INSANE! Membrane UpperLeaflet>loPI:POPI:DPPI:PYPI:ERGO=180.0:5.0:3.0:2.0:10.0 LowerLeaflet>PSPI:POPI:POPS:YOPS:POPE:YOPE:POPC:YOPC:ERGO=6.0:14.0:21.0:9.0:9.0:21.0:12.0:48.0:60.0
49261
    1loPI    C1    1  13.372   3.361  10.685  0.1541 -0.3302  0.3367
    1loPI    C2    2  13.662   3.547  10.887  0.0743 -0.0063  0.1592
    1loPI    C3    3  13.280   3.602  10.991  0.0419  0.0445  0.0148
    1loPI   PO4    4  13.465   3.095  10.616 -0.2704  0.2380 -0.0158
    1loPI   GL1    5  13.318   2.898  10.329 -0.0809 -0.2441  0.1181
    1loPI   GL2    6  13.096   2.871  10.243  0.1936 -0.1598  0.0871
    1loPI   C1A    7  13.354   3.226   9.956  0.2291  0.1325  0.2495
    1loPI   C2A    8  13.389   3.281   9.484  0.1677  0.1380 -0.2558
    1loPI   C3A    9  13.219   3.213   9.115 -0.1435  0.2592 -0.1510
    1loPI   C4A   10  13.265   3.131   8.787 -0.0914 -0.4116 -0.0849
    1loPI   C5A   11  13.260   3.062   8.360  0.1742 -0.1561  0.2490
    1loPI   C6A   12  13.457   3.111   8.033 -0.1522 -0.1286  0.1791
    1loPI   C1B   13  13.188   2.742   9.855  0.0308 -0.1837 -0.0463
    1loPI   C2B   14  13.092   2.791   9.411 -0.1366 -0.1391 -0.3258
    1loPI   C3B   15  13.036   2.660   8.949  0.1303  0.0860 -0.2768
    1loPI   C4B   16  13.025   2.635   8.542 -0.0684 -0.3098 -0.1123
    2loPI    C1   17  12.064   5.829  11.175  0.0869  0.1106  0.0979
    2loPI    C2   18  11.735   5.964  11.359  0.2442  0.2538  0.2786
    2loPI    C3   19  11.976   5.704  11.544  0.0973 -0.0561  0.0448
    2loPI   PO4   20  12.031   5.882  10.959 -0.1670 -0.0260  0.0483
    2loPI   GL1   21  12.078   5.728  10.621  0.1524 -0.1136 -0.1685
    2loPI   GL2   22  12.345   5.615  10.527  0.1906 -0.0559 -0.1473
    2loPI   C1A   23  12.015   5.923  10.239 -0.0262 -0.2852 -0.1034
    2loPI   C2A   24  12.028   5.914   9.843 -0.0011  0.2995  0.0640
    2loPI   C3A   25  11.962   5.835   9.418  0.2438 -0.2052 -0.0492
    2loPI   C4A   26  12.010   5.818   8.952  0.0558 -0.0034  0.2504
    2loPI   C5A   27  12.084   5.798   8.446 -0.0133 -0.2039  0.2546
    2loPI   C6A   28  11.828   6.104   8.251  0.0398  0.2992 -0.0529
    2loPI   C1B   29  12.294   5.448  10.131 -0.3047 -0.3397  0.1127
    2loPI   C2B   30  12.308   5.424   9.640 -0.0679  0.0689  0.2937
    2loPI   C3B   31  12.311   5.420   9.138 -0.2983  0.0097  0.1323
    2loPI   C4B   32  12.278   5.415   8.703  0.2442 -0.1924 -0.1814
    3loPI    C1   33  14.083   0.614  10.889 -0.1115  0.0555  0.0623
    3loPI    C2   34  14.044   0.331  11.169  0.0086 -0.0507 -0.0275
    3loPI    C3   35  14.365   0.571  11.170  0.0139 -0.0575 -0.0794
    3loPI   PO4   36  14.167   0.568  10.648 -0.0497 -0.2490 -0.2085
    3loPI   GL1   37  14.195   0.359  10.314 -0.0421  0.1830 -0.0209
    3loPI   GL2   38  14.021   0.657  10.108 -0.0717 -0.1771 -0.1429
    3loPI   C1A   39  14.008   0.136   9.983 -0.2679 -0.3776  0.1177
    3loPI   C2A   40  14.070   0.071   9.558  0.1167 -0.1766 -0.1822
    3loPI   C3A   41  13.981   0.147   9.100  0.0119 -0.0550  0.1498
    3loPI   C4A   42  13.975   0.097   8.724  0.0714 -0.0312  0.3220
    3loPI   C5A   43  14.089   0.228   8.385  0.0261 -0.0733  0.1151
    3loPI   C6A   44  14.111   0.529   8.063 -0.4261  0.0354 -0.0068
    3loPI   C1B   45  14.184   0.537   9.755  0.2368  0.3778  0.1646
    3loPI   C2B   46  14.233   0.661   9.359  0.0934 -0.0967 -0.0866
    3loPI   C3B   47  14.208   0.611   8.940  0.0107 -0.1861 -0.1257
    3loPI   C4B   48  14.111   0.655   8.608 -0.0887  0.0894  0.3398
    4loPI    C1   49   8.137   4.490  11.020 -0.0808  0.1578 -0.0164
    4loPI    C2   50   8.014   4.178  10.803 -0.0957  0.2677 -0.1672
    4loPI    C3   51   7.955   4.181  11.198 -0.1826  0.1231 -0.1779
    4loPI   PO4   52   8.036   4.661  10.885  0.1240  0.0989  0.0558
    4loPI   GL1   53   7.909   4.634  10.507  0.2707 -0.0114 -0.3181
    4loPI   GL2   54   8.027   4.458  10.210 -0.0430 -0.0947  0.0480
    4loPI   C1A   55   7.676   4.793  10.090  0.4223 -0.0195 -0.0875
    4loPI   C2A   56   7.664   4.905   9.663  0.4087  0.2074 -0.2737
    4loPI   C3A   57   7.714   4.830   9.256 -0.0768 -0.1514 -0.0653
    4loPI   C4A   58   7.671   4.809   8.730  0.2187  0.0456  0.1356
    4loPI   C5A   59   7.593   4.638   8.343  0.2246 -0.0402  0.0840
    4loPI   C6A   60   7.671   4.282   8.104  0.1995 -0.0451 -0.1561
    4loPI   C1B   61   7.994   4.479   9.762 -0.1479  0.1341 -0.0085
    4loPI   C2B   62   8.012   4.450   9.302 -0.2095 -0.4858  0.0437
    4loPI   C3B   63   7.996   4.495   8.871  0.1733 -0.0021 -0.0804
    4loPI   C4B   64   7.939   4.299   8.491  0.0630 -0.2309 -0.3616
    5loPI    C1   65   4.764   7.632  10.831 -0.1847 -0.1960 -0.2947
    5loPI    C2   66   4.923   7.324  11.031  0.2467  0.1185 -0.1373
    5loPI    C3   67   4.780   7.639  11.231  0.0321  0.1300 -0.3051
    5loPI   PO4   68   4.721   7.603  10.559  0.1326 -0.0902  0.0120
    5loPI   GL1   69   4.587   7.337  10.179  0.4242  0.0865 -0.0233
    5loPI   GL2   70   4.351   7.583  10.149  0.0304  0.0262  0.1242
    5loPI   C1A   71   4.652   7.303   9.763 -0.1254 -0.1983 -0.2212
    5loPI   C2A   72   4.754   7.368   9.283 -0.3978  0.2532 -0.0599
    5loPI   C3A   73   4.694   7.271   8.837  0.1042 -0.2249 -0.2336
    5loPI   C4A   74   4.865   7.346   8.396 -0.1787 -0.1260  0.3036
    5loPI   C5A   75   4.607   7.607   7.963 -0.0350 -0.2146  0.0564
    5loPI   C6A   76   4.558   8.095   7.824  0.3011  0.2910  0.2371
    5loPI   C1B   77   4.378   7.727   9.820 -0.0075  0.3116  0.1540
    5loPI   C2B   78   4.476   7.750   9.402  0.1831  0.0298  0.2669
    5loPI   C3B   79   4.503   7.707   8.994 -0.0121 -0.2038 -0.1111
    5loPI   C4B   80   4.441   7.666   8.608  0.2393  0.2500  0.1312
    6loPI    C1   81   5.933   3.246  10.926 -0.0354 -0.1414 -0.0582
    6loPI    C2   82   6.089   2.926  11.108 -0.0290  0.0283  0.2407
    6loPI    C3   83   6.105   3.284  11.285 -0.2167  0.1586 -0.0002
    6loPI   PO4   84   5.801   3.043  10.695 -0.3318 -0.0888  0.0692
    6loPI   GL1   85   5.670   2.681  10.445 -0.1348 -0.0312  0.1126
    6loPI   GL2   86   5.532   2.354  10.336  0.1088 -0.0719 -0.1267
    6loPI   C1A   87   5.744   2.876  10.045  0.2364 -0.0204  0.1121
    6loPI   C2A   88   5.680   2.844   9.631 -0.3620  0.1172 -0.2936
    6loPI   C3A   89   5.790   2.890   9.206 -0.2672  0.0022  0.1046
    6loPI   C4A   90   5.888   2.929   8.834 -0.0773  0.0540  0.0327
    6loPI   C5A   91   5.711   2.979   8.383  0.0316 -0.2950  0.4953
    6loPI   C6A   92   5.452   2.998   7.978  0.0716 -0.1107 -0.1485
    6loPI   C1B   93   5.569   2.380   9.887  0.3365  0.0700 -0.1152
    6loPI   C2B   94   5.605   2.358   9.464 -0.2554  0.1633 -0.0836
    6loPI   C3B   95   5.546   2.442   9.021 -0.2033  0.3086 -0.1356
    6loPI   C4B   96   5.512   2.537   8.608 -0.1502  0.0022 -0.2074
    7loPI    C1   97   1.095  10.763  10.361  0.0326 -0.0562  0.0074
    7loPI    C2   98   0.939  10.709  10.726 -0.0445  0.1621  0.0083
    7loPI    C3   99   0.960  10.402  10.470 -0.0252  0.0170  0.1821
    7loPI   PO4  100   1.265  10.958  10.446  0.0696  0.3808  0.0943
    7loPI   GL1  101   1.520  11.129  10.231  0.2049 -0.2208  0.1124
    7loPI   GL2  102   1.615  10.718  10.150  0.0607 -0.0360 -0.0216
    7loPI   C1A  103   1.364  11.008   9.805 -0.0623 -0.2502  0.0902
    7loPI   C2A  104   1.309  10.852   9.376 -0.0823 -0.1881  0.0148
    7loPI   C3A  105   1.305  10.825   8.909 -0.5801 -0.0921  0.1621
    7loPI   C4A  106   1.234  10.869   8.499 -0.3059 -0.3009 -0.0438
    7loPI   C5A  107   1.317  11.012   8.093 -0.1644 -0.1625 -0.2150
    7loPI   C6A  108   0.965  11.205   8.054 -0.0031  0.0602  0.0420
    7loPI   C1B  109   1.625  10.559   9.757  0.2944  0.0484 -0.0097
    7loPI   C2B  110   1.599  10.516   9.331  0.0051  0.0644  0.1157
    7loPI   C3B  111   1.640  10.456   8.990 -0.0747 -0.2853  0.0662
    7loPI   C4B  112   1.620  10.562   8.563  0.1094 -0.0621 -0.1053
    8loPI    C1  113  17.928  13.334  10.289 -0.0608  0.0052  0.2454
    8loPI    C2  114  17.996  13.195  10.658  0.1643 -0.4380  0.0450
    8loPI    C3  115  18.286  13.387  10.459 -0.0475  0.0604  0.2009
    8loPI   PO4  116  17.788  13.124  10.085  0.0550  0.0936  0.0215
    8loPI   GL1  117  17.920  13.365   9.760 -0.2490  0.0558 -0.3645
    8loPI   GL2  118  18.279  13.305   9.951  0.0910  0.0749  0.1612
    8loPI   C1A  119  17.670  13.374   9.444 -0.2201  0.4643 -0.1336
    8loPI   C2A  120  17.546  13.489   9.075  0.0568 -0.2297  0.3302
    8loPI   C3A  121  17.753  13.897   8.939  0.0908 -0.1476  0.1108
    8loPI   C4A  122  17.709  14.104   8.570  0.1792  0.0039  0.0800
    8loPI   C5A  123  17.820  14.056   8.089 -0.1469 -0.0797 -0.2435
    8loPI   C6A  124  17.874  13.778   7.752 -0.1189 -0.1479 -0.0311
    8loPI   C1B  125  18.370  13.238   9.531 -0.1982  0.0545 -0.0038
    8loPI   C2B  126  18.419  13.046   9.045  0.0097 -0.2791  0.1757
    8loPI   C3B  127  18.482  13.118   8.597  0.0291  0.0296  0.0646
    8loPI   C4B  128  18.399  13.302   8.200  0.0435  0.1745  0.0271
    9loPI    C1  129   7.628   3.910  10.958  0.0682 -0.2340 -0.0365
    9loPI    C2  130   7.292   3.897  11.175  0.0283  0.0944 -0.0732
    9loPI    C3  131   7.559   3.600  11.201 -0.1460 -0.0462  0.1472
    9loPI   PO4  132   7.530   3.985  10.733 -0.1000  0.1869 -0.2999
    9loPI   GL1  133   7.737   4.042  10.378 -0.0369  0.0168 -0.4101
    9loPI   GL2  134   7.505   4.370  10.393  0.0231 -0.1058 -0.0718
    9loPI   C1A  135   7.778   4.002   9.953  0.1045 -0.2015 -0.0494
    9loPI   C2A  136   7.788   4.031   9.531 -0.1512 -0.2829 -0.0786
    9loPI   C3A  137   7.840   4.001   9.218  0.1774  0.0502 -0.3042
    9loPI   C4A  138   7.783   3.930   8.798  0.1682 -0.0137  0.3827
    9loPI   C5A  139   7.938   3.851   8.345  0.0003 -0.1868 -0.0186
    9loPI   C6A  140   8.157   3.646   8.038  0.3403 -0.2609  0.1751
    9loPI   C1B  141   7.482   4.401   9.919  0.0481  0.0124  0.2718
    9loPI   C2B  142   7.479   4.399   9.481 -0.0267  0.0399 -0.1744
    9loPI   C3B  143   7.487   4.392   9.127  0.1885  0.1255  0.2273
    9loPI   C4B  144   7.424   4.285   8.653 -0.0832 -0.4515 -0.0208
   10loPI    C1  145   8.250   0.255  10.833  0.0523  0.1940  0.0131
   10loPI    C2  146   8.563   0.031  10.943  0.0175  0.1286 -0.0211
   10loPI    C3  147   8.469   0.359  11.151  0.2515  0.2799 -0.1501
   10loPI   PO4  148   8.278   0.368  10.532 -0.1616 -0.3464 -0.3437
   10loPI   GL1  149   8.597   0.555  10.433  0.2805  0.0920 -0.2056
   10loPI   GL2  150   8.436   0.841  10.272  0.0126 -0.0055 -0.1082
   10loPI   C1A  151   8.570   0.508   9.994  0.1275  0.1566 -0.2449
   10loPI   C2A  152   8.665   0.431   9.539  0.1158 -0.0927  0.0825
   10loPI   C3A  153   8.736   0.472   9.131  0.1644  0.0880 -0.0973
   10loPI   C4A  154   8.729   0.554   8.748 -0.1169 -0.1696  0.0193
   10loPI   C5A  155   8.667   0.555   8.334 -0.1522  0.2113  0.0586
   10loPI   C6A  156   8.612   0.293   8.077 -0.2398 -0.1045 -0.0184
   10loPI   C1B  157   8.281   0.930   9.881  0.0852 -0.0347  0.0234
   10loPI   C2B  158   8.335   0.787   9.465  0.1883  0.2146 -0.2899
   10loPI   C3B  159   8.410   0.905   8.946 -0.0245 -0.0968  0.1652
   10loPI   C4B  160   8.319   0.888   8.494 -0.1592  0.1288 -0.2262
   11loPI    C1  161   8.958   0.342  10.830  0.2798 -0.1610  0.1170
   11loPI    C2  162   8.835   0.141  10.507 -0.1450  0.0823  0.1189
   11loPI    C3  163   9.136  -0.002  10.729 -0.2850 -0.4289 -0.0065
   11loPI   PO4  164   9.009   0.615  10.658 -0.0889 -0.1471  0.0739
   11loPI   GL1  165   8.902   0.830  10.192 -0.1571  0.4477  0.1947
   11loPI   GL2  166   9.210   0.584  10.240 -0.2366 -0.0325  0.0504
   11loPI   C1A  167   8.823   0.954   9.828  0.0034  0.2361  0.1031
   11loPI   C2A  168   8.812   0.939   9.422 -0.0025 -0.1075  0.3551
   11loPI   C3A  169   8.978   0.967   9.052  0.1642 -0.0014 -0.1588
   11loPI   C4A  170   8.928   0.996   8.555 -0.5612  0.1632  0.0404
   11loPI   C5A  171   9.187   0.859   8.217 -0.0041 -0.2200 -0.1208
   11loPI   C6A  172   9.499   0.609   7.884 -0.3334  0.0509  0.1198
   11loPI   C1B  173   9.060   0.436   9.919  0.2059  0.1357  0.2000
   11loPI   C2B  174   9.132   0.537   9.456 -0.0920  0.0291 -0.0100
   11loPI   C3B  175   9.212   0.456   8.985  0.1191 -0.0223 -0.2202
   11loPI   C4B  176   9.277   0.524   8.559 -0.0579 -0.0818  0.0111
   12loPI    C1  177   8.909   4.576  10.923 -0.0103  0.0092 -0.2074
   12loPI    C2  178   8.912   4.925  11.119  0.3153 -0.0094 -0.1748
   12loPI    C3  179   8.660   4.635  11.231  0.1117  0.1789 -0.1398
   12loPI   PO4  180   8.894   4.649  10.629  0.0283 -0.0100 -0.0031
   12loPI   GL1  181   9.098   4.750  10.221  0.1115 -0.0939  0.2461
   12loPI   GL2  182   9.273   4.427  10.356 -0.1388  0.0231  0.1165
   12loPI   C1A  183   9.043   4.619   9.821 -0.1947 -0.1212 -0.2624
   12loPI   C2A  184   9.025   4.593   9.471  0.3518 -0.1059  0.0295
   12loPI   C3A  185   8.973   4.531   9.015  0.0781  0.0226 -0.2848
   12loPI   C4A  186   8.892   4.566   8.510  0.1082 -0.1824 -0.2302
   12loPI   C5A  187   9.187   4.686   8.241  0.1711 -0.0105  0.3386
   12loPI   C6A  188   9.627   4.530   8.390  0.0809  0.1204 -0.1872
   12loPI   C1B  189   9.371   4.288   9.915 -0.1792 -0.1317 -0.0259
   12loPI   C2B  190   9.416   4.142   9.530 -0.1233 -0.1734 -0.0288
   12loPI   C3B  191   9.332   4.109   9.147 -0.0544 -0.0598  0.1532
   12loPI   C4B  192   9.273   4.213   8.714 -0.1574  0.1011 -0.1488
   13loPI    C1  193  13.154   0.805  10.847 -0.0302  0.0460  0.2593
   13loPI    C2  194  13.533   0.933  10.861 -0.0782  0.2574 -0.1950
   13loPI    C3  195  13.236   1.175  10.977 -0.0896  0.1539 -0.0042
   13loPI   PO4  196  13.167   0.760  10.597  0.2353 -0.1167 -0.0870
   13loPI   GL1  197  12.889   0.906  10.202  0.1783  0.1477 -0.1648
   13loPI   GL2  198  13.015   0.573  10.174  0.0352 -0.0791  0.3613
   13loPI   C1A  199  12.857   0.936   9.739  0.1470  0.2718  0.0635
   13loPI   C2A  200  12.909   0.912   9.309  0.2119  0.1591 -0.3136
   13loPI   C3A  201  12.819   0.820   8.982  0.1801  0.3776 -0.4204
   13loPI   C4A  202  12.877   0.812   8.614 -0.0144  0.2266  0.0908
   13loPI   C5A  203  12.836   0.820   8.205  0.3042 -0.0818  0.0320
   13loPI   C6A  204  13.030   0.913   7.771  0.0910 -0.2425  0.0259
   13loPI   C1B  205  13.196   0.536   9.687 -0.1178  0.0489  0.1513
   13loPI   C2B  206  13.259   0.517   9.282  0.1493 -0.0585  0.0043
   13loPI   C3B  207  13.126   0.441   8.868 -0.0618  0.1450 -0.1732
   13loPI   C4B  208  13.235   0.427   8.480  0.1627  0.0372  0.1164
   14loPI    C1  209  15.062   4.444  10.839  0.2738  0.1237 -0.1086
   14loPI    C2  210  14.885   4.186  10.590 -0.0296  0.2163  0.0065
   14loPI    C3  211  14.894   4.111  10.983  0.0628  0.2820  0.0175
   14loPI   PO4  212  15.130   4.645  10.624  0.2492 -0.2515 -0.0144
   14loPI   GL1  213  15.110   4.647  10.226 -0.1522  0.2594 -0.1612
   14loPI   GL2  214  14.995   4.337  10.136 -0.0439 -0.1411  0.3444
   14loPI   C1A  215  15.010   4.870   9.895 -0.1069 -0.1283  0.0272
   14loPI   C2A  216  14.924   4.829   9.447  0.1380 -0.5204  0.1859
   14loPI   C3A  217  14.924   4.766   8.933 -0.1095  0.3100  0.0863
   14loPI   C4A  218  14.879   4.835   8.469 -0.2744  0.1964  0.1044
   14loPI   C5A  219  14.753   4.587   8.082  0.0018  0.0524  0.1054
   14loPI   C6A  220  14.546   4.281   8.024  0.1474 -0.1151  0.1078
   14loPI   C1B  221  14.688   4.456   9.824  0.4590  0.1487  0.0563
   14loPI   C2B  222  14.631   4.391   9.458  0.0617  0.2436 -0.2613
   14loPI   C3B  223  14.657   4.321   9.042  0.0501  0.1226 -0.3094
   14loPI   C4B  224  14.523   4.406   8.582  0.1598 -0.0534 -0.0270
   15loPI    C1  225   4.142   0.867  10.401 -0.0048 -0.0284  0.2081
   15loPI    C2  226   4.232   0.689  10.748 -0.0683  0.1932  0.3396
   15loPI    C3  227   4.275   1.085  10.709  0.2632  0.1282 -0.0138
   15loPI   PO4  228   3.942   0.762  10.311 -0.0411  0.2580 -0.3685
   15loPI   GL1  229   3.625   0.830  10.102 -0.1163 -0.1653 -0.2607
   15loPI   GL2  230   3.275   0.857   9.895 -0.3730  0.1292 -0.0539
   15loPI   C1A  231   3.734   0.858   9.626 -0.0990 -0.1228  0.0892
   15loPI   C2A  232   3.878   0.973   9.181 -0.1430  0.0077  0.0437
   15loPI   C3A  233   3.912   0.836   8.773 -0.1694  0.4569  0.0781
   15loPI   C4A  234   3.970   0.806   8.331 -0.0283 -0.1433  0.0321
   15loPI   C5A  235   3.843   0.842   7.891  0.1152 -0.0739 -0.1624
   15loPI   C6A  236   3.716   0.621   7.584  0.1320  0.0915  0.0482
   15loPI   C1B  237   3.249   0.803   9.457  0.1578  0.2850  0.0529
   15loPI   C2B  238   3.359   0.854   9.044  0.1215 -0.1145 -0.0513
   15loPI   C3B  239   3.414   0.896   8.653 -0.0085  0.0735 -0.0179
   15loPI   C4B  240   3.449   0.793   8.268 -0.0142 -0.0717 -0.1176
   16loPI    C1  241   8.557   7.650  10.820 -0.2242  0.0067  0.0530
   16loPI    C2  242   8.796   7.783  11.112  0.0533 -0.1616 -0.0941
   16loPI    C3  243   8.553   7.473  11.179 -0.2372  0.1026  0.1006
   16loPI   PO4  244   8.542   7.880  10.715 -0.2136 -0.4129 -0.0084
   16loPI   GL1  245   8.799   8.163  10.484  0.0517 -0.1154  0.3998
   16loPI   GL2  246   8.852   8.346  10.206  0.1451 -0.1705 -0.0277
   16loPI   C1A  247   8.764   7.881  10.112 -0.1463 -0.3308  0.1554
   16loPI   C2A  248   8.844   7.719   9.783  0.0429  0.4048 -0.1860
   16loPI   C3A  249   8.860   7.840   9.328  0.2263  0.0699 -0.0152
   16loPI   C4A  250   8.851   7.830   8.946 -0.2029  0.0614 -0.0362
   16loPI   C5A  251   8.996   7.755   8.463  0.2067 -0.1473 -0.2846
   16loPI   C6A  252   8.889   8.058   8.113  0.1630  0.2065  0.1709
   16loPI   C1B  253   9.013   8.266   9.935 -0.1632 -0.1376  0.0624
   16loPI   C2B  254   9.074   8.252   9.505  0.2874 -0.2451 -0.1292
   16loPI   C3B  255   9.061   8.318   9.061 -0.1101 -0.1667  0.2503
   16loPI   C4B  256   9.079   8.244   8.674  0.1132  0.1750  0.1308
   17loPI    C1  257  11.250   6.807  11.234 -0.1312  0.0249 -0.2061
   17loPI    C2  258  11.021   6.495  11.334 -0.1443  0.0332 -0.2098
   17loPI    C3  259  11.236   6.683  11.614 -0.3101  0.1609 -0.1672
   17loPI   PO4  260  11.350   6.649  10.982 -0.2701  0.0844  0.0408
   17loPI   GL1  261  11.306   6.585  10.614 -0.0879  0.1979  0.3172
   17loPI   GL2  262  10.918   6.565  10.385  0.0034  0.0617  0.0441
   17loPI   C1A  263  11.349   6.611  10.152 -0.3575  0.0765 -0.2209
   17loPI   C2A  264  11.430   6.733   9.744  0.1064 -0.3140 -0.1319
   17loPI   C3A  265  11.288   6.724   9.286 -0.2748  0.1064 -0.0516
   17loPI   C4A  266  11.409   6.625   8.858 -0.1660  0.0229 -0.2110
   17loPI   C5A  267  11.448   6.681   8.456 -0.0776 -0.0075 -0.0981
   17loPI   C6A  268  11.616   6.512   8.109 -0.1510  0.2343 -0.3711
   17loPI   C1B  269  10.815   6.605   9.925 -0.0816  0.1224  0.0641
   17loPI   C2B  270  10.824   6.596   9.518 -0.3354 -0.1224  0.1459
   17loPI   C3B  271  10.807   6.668   9.145 -0.0763  0.1408  0.0203
   17loPI   C4B  272  10.921   6.502   8.753  0.1920  0.0509 -0.1211
   18loPI    C1  273   5.961   6.657  10.842 -0.1363  0.0648 -0.1162
   18loPI    C2  274   5.953   6.314  11.049 -0.0109  0.0184 -0.1872
   18loPI    C3  275   5.611   6.486  10.933 -0.0767 -0.0399 -0.0811
   18loPI   PO4  276   6.251   6.656  10.663 -0.2656  0.0563  0.1402
   18loPI   GL1  277   6.393   6.878  10.287  0.0924  0.1091 -0.2679
   18loPI   GL2  278   6.566   7.088  10.257  0.4504  0.1855  0.1010
   18loPI   C1A  279   6.380   6.610   9.974  0.1151  0.2460  0.0035
   18loPI   C2A  280   6.327   6.698   9.496 -0.2384  0.2072  0.0055
   18loPI   C3A  281   6.448   6.611   9.011  0.1785  0.1509  0.0679
   18loPI   C4A  282   6.513   6.474   8.478  0.1730 -0.1328  0.0604
   18loPI   C5A  283   6.379   6.302   8.172  0.1856 -0.2518  0.2510
   18loPI   C6A  284   6.342   6.145   7.726  0.2554  0.1296  0.0338
   18loPI   C1B  285   6.542   7.132   9.780  0.0986 -0.1855  0.1741
   18loPI   C2B  286   6.665   7.041   9.292  0.0136  0.0725 -0.0482
   18loPI   C3B  287   6.688   7.006   8.836  0.2694 -0.1248 -0.0325
   18loPI   C4B  288   6.687   6.970   8.380 -0.0042 -0.3109 -0.1867
   19loPI    C1  289   9.814  16.105  10.973 -0.0696  0.1228  0.0062
   19loPI    C2  290   9.771  15.785  11.209  0.3719 -0.0439 -0.1302
   19loPI    C3  291   9.947  16.115  11.350 -0.0334  0.1255 -0.0067
   19loPI   PO4  292   9.930  16.042  10.777 -0.0852  0.1518  0.0763
   19loPI   GL1  293  10.036  16.140  10.400  0.1550 -0.3403 -0.0846
   19loPI   GL2  294   9.900  15.830  10.338 -0.2390 -0.0773 -0.0567
   19loPI   C1A  295   9.943  16.190  10.048  0.0581 -0.0669 -0.0241
   19loPI   C2A  296   9.954  16.146   9.590  0.1499 -0.1523 -0.0085
   19loPI   C3A  297   9.933  16.065   9.175 -0.1239 -0.1987  0.3324
   19loPI   C4A  298  10.047  16.074   8.679  0.2116 -0.0400  0.1121
   19loPI   C5A  299  10.152  16.326   8.265  0.0215  0.1664 -0.2617
   19loPI   C6A  300  10.427  16.630   8.061  0.1130 -0.3514 -0.3077
   19loPI   C1B  301   9.690  15.698   9.966 -0.0713 -0.1273 -0.0427
   19loPI   C2B  302   9.716  15.638   9.556  0.1762 -0.1095 -0.0495
   19loPI   C3B  303   9.870  15.550   9.096  0.2847 -0.0654  0.1890
   19loPI   C4B  304   9.929  15.584   8.739  0.2940 -0.0503 -0.1092
   20loPI    C1  305   7.551   2.572  11.339 -0.1647  0.0235 -0.0933
   20loPI    C2  306   7.327   2.702  11.644 -0.0571  0.0586 -0.0283
   20loPI    C3  307   7.415   2.313  11.612  0.1168  0.0855  0.1110
   20loPI   PO4  308   7.402   2.679  11.088  0.2117 -0.1973 -0.0562
   20loPI   GL1  309   7.491   2.805  10.601 -0.0349 -0.0983 -0.1269
   20loPI   GL2  310   7.787   3.016  10.606 -0.1321  0.3263  0.2797
   20loPI   C1A  311   7.532   2.605  10.271  0.1396  0.1098 -0.0411
   20loPI   C2A  312   7.636   2.556   9.858 -0.1429 -0.1664  0.2474
   20loPI   C3A  313   7.655   2.585   9.393 -0.0496  0.0986 -0.1983
   20loPI   C4A  314   7.681   2.546   9.043 -0.0724  0.2929  0.5024
   20loPI   C5A  315   7.655   2.581   8.643 -0.0412 -0.0348  0.1825
   20loPI   C6A  316   7.915   2.312   8.423  0.0331  0.1059  0.0209
   20loPI   C1B  317   7.805   3.085  10.156  0.1122 -0.0713 -0.0251
   20loPI   C2B  318   7.827   3.011   9.750 -0.0691 -0.0483 -0.0227
   20loPI   C3B  319   7.880   3.060   9.342  0.1484  0.1285  0.2169
   20loPI   C4B  320   7.777   3.015   8.857 -0.1164  0.0099  0.1040
   21loPI    C1  321  15.706   0.463  10.869  0.1057 -0.1917  0.0083
   21loPI    C2  322  15.885   0.648  11.175  0.2093  0.0462 -0.1925
   21loPI    C3  323  15.629   0.348  11.245  0.0137  0.2837  0.1415
   21loPI   PO4  324  15.595   0.672  10.704 -0.0373 -0.1309  0.0986
   21loPI   GL1  325  15.407   0.766  10.371 -0.0325  0.2717  0.1029
   21loPI   GL2  326  15.064   0.709  10.325 -0.0857 -0.1069  0.1324
   21loPI   C1A  327  15.497   0.560  10.003 -0.3784 -0.3277  0.4386
   21loPI   C2A  328  15.400   0.369   9.505  0.0055 -0.1309 -0.0833
   21loPI   C3A  329  15.536   0.459   9.110 -0.0232  0.1162  0.0694
   21loPI   C4A  330  15.559   0.389   8.735  0.2647 -0.3050 -0.1036
   21loPI   C5A  331  15.470   0.275   8.346 -0.3399 -0.0910  0.0412
   21loPI   C6A  332  15.063   0.178   8.076 -0.2364 -0.0904 -0.2494
   21loPI   C1B  333  15.094   0.853   9.915 -0.0689  0.1418 -0.0075
   21loPI   C2B  334  15.233   0.805   9.529  0.3054  0.0776 -0.0353
   21loPI   C3B  335  15.184   0.899   9.115  0.1592 -0.3401  0.0766
   21loPI   C4B  336  15.210   0.778   8.814 -0.0680  0.2726  0.0695
   22loPI    C1  337  18.092   4.608  10.214 -0.1284  0.0161  0.0835
   22loPI    C2  338  17.935   4.903  10.435  0.1341  0.0897  0.1748
   22loPI    C3  339  17.994   4.543  10.597 -0.0342  0.0324  0.1105
   22loPI   PO4  340  18.383   4.709  10.047 -0.0364 -0.1672 -0.3414
   22loPI   GL1  341  18.748   4.630   9.784  0.2000  0.1136  0.1253
   22loPI   GL2  342  18.553   4.666   9.550  0.1409  0.0938 -0.1821
   22loPI   C1A  343  18.878   4.359   9.292 -0.2837  0.0894  0.1282
   22loPI   C2A  344  18.919   4.306   8.847 -0.3525 -0.0918  0.0301
   22loPI   C3A  345  18.718   4.492   8.480 -0.2181 -0.1026 -0.0448
   22loPI   C4A  346  18.570   4.441   8.050 -0.1364  0.1688 -0.2011
   22loPI   C5A  347  18.536   4.785   7.778  0.5603 -0.0638 -0.0364
   22loPI   C6A  348  18.603   5.083   7.525  0.3299 -0.2499  0.0118
   22loPI   C1B  349  18.585   5.003   9.358 -0.1265  0.0646  0.3865
   22loPI   C2B  350  18.855   5.201   9.090 -0.1489  0.1852 -0.1729
   22loPI   C3B  351  18.670   5.269   8.631 -0.1011  0.0096 -0.0866
   22loPI   C4B  352  18.760   5.427   8.152 -0.1769  0.1708  0.1544
   23loPI    C1  353   2.405  12.478  10.592 -0.2367 -0.0248 -0.1306
   23loPI    C2  354   2.273  12.227  10.873  0.0642 -0.1314 -0.0811
   23loPI    C3  355   2.664  12.304  10.842  0.0072  0.0762 -0.3091
   23loPI   PO4  356   2.308  12.412  10.358  0.0553 -0.3071  0.2755
   23loPI   GL1  357   2.432  12.150   9.939 -0.0013 -0.2511 -0.0982
   23loPI   GL2  358   2.749  12.031   9.824 -0.1409  0.1510  0.0813
   23loPI   C1A  359   2.322  12.086   9.516 -0.3231  0.1908  0.3348
   23loPI   C2A  360   2.351  12.018   9.076 -0.1184 -0.1087 -0.2492
   23loPI   C3A  361   2.465  11.866   8.674 -0.0292 -0.1638 -0.0536
   23loPI   C4A  362   2.405  11.805   8.193 -0.0823  0.0108  0.1361
   23loPI   C5A  363   2.300  11.476   7.860  0.0614  0.0428  0.1092
   23loPI   C6A  364   2.249  11.073   7.697  0.4321  0.1618  0.0043
   23loPI   C1B  365   2.868  12.090   9.418 -0.2081  0.1353  0.2135
   23loPI   C2B  366   2.841  12.005   8.950  0.0317 -0.1244  0.1509
   23loPI   C3B  367   2.913  12.099   8.504 -0.1368  0.0724  0.0066
   23loPI   C4B  368   2.971  12.029   8.080 -0.1087 -0.3120 -0.2568
   24loPI    C1  369   6.944   7.240  11.040  0.1304  0.0376 -0.0062
   24loPI    C2  370   7.006   7.198  11.433  0.0180  0.2353  0.0339
   24loPI    C3  371   6.633   7.212  11.289  0.0570 -0.1685 -0.1192
   24loPI   PO4  372   7.089   7.382  10.963  0.0472  0.2820  0.2041
   24loPI   GL1  373   7.217   7.391  10.582 -0.1241 -0.1953 -0.0402
   24loPI   GL2  374   6.992   7.142  10.477 -0.0227  0.1692 -0.0796
   24loPI   C1A  375   7.209   7.560  10.266  0.3649 -0.0745  0.3440
   24loPI   C2A  376   7.305   7.540   9.790  0.1556  0.1141 -0.2045
   24loPI   C3A  377   7.330   7.608   9.352  0.1075  0.1461 -0.1264
   24loPI   C4A  378   7.377   7.636   8.821 -0.2099  0.2052  0.1328
   24loPI   C5A  379   7.607   7.531   8.395 -0.0953 -0.2209  0.0805
   24loPI   C6A  380   7.655   7.133   8.094 -0.0367 -0.2612 -0.0979
   24loPI   C1B  381   7.042   7.121   9.990  0.2371 -0.1168 -0.0031
   24loPI   C2B  382   7.068   7.165   9.603  0.0673  0.7326 -0.0614
   24loPI   C3B  383   7.132   7.116   9.127  0.0596 -0.2013  0.0919
   24loPI   C4B  384   7.345   7.170   8.749 -0.1925  0.0776  0.1691
   25loPI    C1  385  13.700   3.078  11.121 -0.2562  0.0630 -0.1062
   25loPI    C2  386  13.838   3.394  11.324  0.1849 -0.1283 -0.0973
   25loPI    C3  387  13.711   3.069  11.521  0.0546 -0.0890 -0.1155
   25loPI   PO4  388  13.935   3.092  10.877 -0.1445  0.0071  0.1608
   25loPI   GL1  389  13.879   2.856  10.401 -0.1396 -0.0575 -0.1648
   25loPI   GL2  390  13.863   2.525  10.303  0.0228 -0.0337  0.1060
   25loPI   C1A  391  13.670   2.863   9.999  0.0739 -0.0748  0.0465
   25loPI   C2A  392  13.614   2.879   9.600 -0.0916  0.0962  0.1069
   25loPI   C3A  393  13.578   2.781   9.144  0.2002 -0.0600  0.0243
   25loPI   C4A  394  13.537   2.740   8.717 -0.1066 -0.2623 -0.2902
   25loPI   C5A  395  13.668   2.663   8.315  0.1651  0.0938 -0.3903
   25loPI   C6A  396  13.718   2.727   7.897 -0.2187  0.0491  0.4734
   25loPI   C1B  397  13.960   2.484   9.892 -0.1998 -0.2902  0.0567
   25loPI   C2B  398  13.925   2.503   9.498 -0.0241 -0.1653  0.1208
   25loPI   C3B  399  13.946   2.416   9.075 -0.0364  0.0515  0.1679
   25loPI   C4B  400  13.956   2.413   8.652  0.3720 -0.0103 -0.1071
   26loPI    C1  401  13.743   9.502  11.103  0.1748 -0.1069  0.0702
   26loPI    C2  402  13.822   9.650  11.466  0.0163  0.1202  0.0147
   26loPI    C3  403  13.589   9.327  11.427  0.4938 -0.2506  0.1472
   26loPI   PO4  404  13.939   9.504  10.916  0.1066  0.1943  0.0920
   26loPI   GL1  405  13.859   9.571  10.524  0.1207 -0.0315 -0.1095
   26loPI   GL2  406  14.011   9.860  10.353  0.1532 -0.0756  0.0510
   26loPI   C1A  407  13.891   9.406  10.066 -0.1627 -0.0649 -0.0108
   26loPI   C2A  408  13.942   9.208   9.543  0.2024 -0.4002  0.0529
   26loPI   C3A  409  13.863   9.242   9.194  0.0003 -0.1787  0.2771
   26loPI   C4A  410  13.968   9.234   8.746  0.0177  0.1265 -0.2423
   26loPI   C5A  411  14.131   9.046   8.345  0.1091 -0.1731  0.1627
   26loPI   C6A  412  14.399   8.736   8.242 -0.0112 -0.2891 -0.1794
   26loPI   C1B  413  14.162   9.777   9.976  0.2307 -0.3116  0.2616
   26loPI   C2B  414  14.118   9.832   9.556 -0.1722 -0.3441 -0.0897
   26loPI   C3B  415  14.141   9.725   9.125 -0.4152 -0.2539 -0.2682
   26loPI   C4B  416  14.155   9.696   8.687 -0.3223 -0.3575 -0.2057
   27loPI    C1  417  10.579  10.295  11.253  0.1310 -0.2109  0.0105
   27loPI    C2  418  10.593  10.114  11.609  0.0990 -0.1691  0.0331
   27loPI    C3  419  10.609  10.513  11.587  0.0447 -0.1691 -0.0086
   27loPI   PO4  420  10.756  10.137  11.096  0.0615  0.2195 -0.1993
   27loPI   GL1  421  10.689  10.084  10.668 -0.0826 -0.5157 -0.1479
   27loPI   GL2  422  11.011  10.190  10.564  0.1704 -0.1532  0.0752
   27loPI   C1A  423  10.394  10.194  10.314 -0.0413  0.0306  0.3923
   27loPI   C2A  424  10.269  10.200   9.872  0.0916 -0.1274  0.1156
   27loPI   C3A  425  10.333  10.263   9.474  0.0417 -0.0012 -0.0323
   27loPI   C4A  426  10.463  10.282   9.117 -0.2646  0.0416 -0.0158
   27loPI   C5A  427  10.392  10.315   8.756  0.1840  0.0256  0.2931
   27loPI   C6A  428  10.352  10.592   8.385 -0.0932  0.1117  0.0999
   27loPI   C1B  429  10.913  10.339  10.140 -0.2582 -0.1239 -0.1707
   27loPI   C2B  430  10.908  10.379   9.686  0.4725  0.4911 -0.0111
   27loPI   C3B  431  10.952  10.427   9.184  0.0334  0.1336  0.0030
   27loPI   C4B  432  10.933  10.355   8.786  0.1629 -0.2872  0.1539
   28loPI    C1  433   5.747  17.530  10.742  0.1016 -0.1672  0.0879
   28loPI    C2  434   5.574  17.273  10.489 -0.0595  0.1519 -0.1330
   28loPI    C3  435   5.702  17.147  10.847 -0.1198 -0.2357 -0.2438
   28loPI   PO4  436   5.857  17.675  10.620 -0.3218 -0.1258 -0.1724
   28loPI   GL1  437   5.920  17.686  10.246  0.0573 -0.1571 -0.1485
   28loPI   GL2  438   6.033  17.437  10.074 -0.0673  0.0279 -0.0136
   28loPI   C1A  439   5.810  17.849   9.784 -0.0211  0.0316 -0.0728
   28loPI   C2A  440   5.790  17.833   9.311 -0.1203 -0.0820  0.4785
   28loPI   C3A  441   5.773  17.937   8.881  0.3207 -0.1636  0.1723
   28loPI   C4A  442   5.900  17.973   8.430 -0.0747 -0.0440  0.0295
   28loPI   C5A  443   5.792  18.026   8.072 -0.0798 -0.1911 -0.1238
   28loPI   C6A  444   5.438  18.171   7.834  0.0998 -0.0431  0.2159
   28loPI   C1B  445   6.128  17.519   9.607  0.3310  0.2285  0.1409
   28loPI   C2B  446   6.267  17.502   9.144  0.0613 -0.0593  0.1500
   28loPI   C3B  447   6.195  17.470   8.766 -0.3999  0.0160  0.1819
   28loPI   C4B  448   6.252  17.382   8.365  0.1350 -0.1763  0.0161
   29loPI    C1  449   8.463   2.102  11.257  0.2609 -0.0864  0.1169
   29loPI    C2  450   8.330   2.170  11.629  0.0425 -0.1185  0.0462
   29loPI    C3  451   8.491   1.816  11.536 -0.0745 -0.1764  0.0627
   29loPI   PO4  452   8.236   2.127  11.123  0.0189  0.3626 -0.2746
   29loPI   GL1  453   8.090   2.089  10.779 -0.1035  0.0860 -0.1541
   29loPI   GL2  454   8.351   2.245  10.582  0.1544  0.2533  0.0421
   29loPI   C1A  455   7.934   2.080  10.390  0.1985 -0.2508  0.2330
   29loPI   C2A  456   8.008   2.157   9.910  0.0966 -0.2832 -0.2568
   29loPI   C3A  457   7.950   2.226   9.457 -0.0850  0.3964 -0.4440
   29loPI   C4A  458   7.972   2.148   9.069 -0.1264  0.2776 -0.1569
   29loPI   C5A  459   8.071   2.020   8.775 -0.2885  0.1080 -0.1268
   29loPI   C6A  460   8.461   2.223   8.460  0.1402  0.1506  0.0020
   29loPI   C1B  461   8.370   2.196  10.210  0.1429  0.0024 -0.0970
   29loPI   C2B  462   8.502   2.231   9.807 -0.2963  0.1112 -0.1201
   29loPI   C3B  463   8.393   2.199   9.348  0.3609 -0.0496 -0.1157
   29loPI   C4B  464   8.524   2.180   8.976 -0.2564  0.2537  0.4172
   30loPI    C1  465  15.851  10.533  10.950  0.1333 -0.2387  0.3232
   30loPI    C2  466  15.455  10.541  11.008  0.0894  0.0267  0.0149
   30loPI    C3  467  15.699  10.715  11.272 -0.0075 -0.0206  0.1366
   30loPI   PO4  468  15.739  10.480  10.612 -0.1107  0.2116 -0.4261
   30loPI   GL1  469  15.787  10.570  10.289 -0.0465 -0.1741 -0.1133
   30loPI   GL2  470  15.871  10.252  10.202  0.0015 -0.0740  0.3579
   30loPI   C1A  471  15.648  10.723   9.931  0.2728 -0.0818 -0.0773
   30loPI   C2A  472  15.571  10.817   9.486  0.0123 -0.2908 -0.0200
   30loPI   C3A  473  15.571  10.799   9.056  0.1841  0.2103  0.0873
   30loPI   C4A  474  15.574  10.772   8.640  0.0756 -0.4905 -0.1220
   30loPI   C5A  475  15.598  10.862   8.302  0.1578 -0.0763 -0.0680
   30loPI   C6A  476  15.701  10.845   7.901  0.0744 -0.0594  0.3223
   30loPI   C1B  477  16.012  10.423   9.856 -0.1497 -0.0179  0.0067
   30loPI   C2B  478  15.890  10.360   9.443 -0.1783 -0.0337 -0.1871
   30loPI   C3B  479  15.763  10.359   9.032 -0.1879 -0.3728  0.3213
   30loPI   C4B  480  15.922  10.451   8.569 -0.0372 -0.1524 -0.3147
   31loPI    C1  481  12.156  17.695  10.631 -0.1743 -0.1222 -0.1014
   31loPI    C2  482  12.319  17.349  10.514 -0.2145 -0.1723 -0.0104
   31loPI    C3  483  12.523  17.595  10.755 -0.2375 -0.1933  0.0306
   31loPI   PO4  484  12.141  17.871  10.475  0.4184  0.1783  0.1843
   31loPI   GL1  485  12.309  17.755  10.074 -0.1688  0.3740 -0.1198
   31loPI   GL2  486  12.422  17.458  10.068 -0.3310 -0.1130  0.0364
   31loPI   C1A  487  12.183  17.752   9.663  0.1715 -0.2577 -0.1403
   31loPI   C2A  488  12.206  17.683   9.204  0.3120 -0.0020 -0.3546
   31loPI   C3A  489  12.218  17.676   8.782  0.0444  0.2069 -0.1960
   31loPI   C4A  490  12.243  17.676   8.337 -0.1127  0.2393 -0.2925
   31loPI   C5A  491  12.295  18.030   8.028 -0.3795  0.0798 -0.1863
   31loPI   C6A  492  12.400  18.245   7.745 -0.1272 -0.0181  0.0944
   31loPI   C1B  493  12.499  17.387   9.703  0.0936 -0.4470  0.3626
   31loPI   C2B  494  12.490  17.305   9.341  0.1893  0.4966 -0.2283
   31loPI   C3B  495  12.481  17.255   8.948  0.1258 -0.3396 -0.0813
   31loPI   C4B  496  12.564  17.241   8.497  0.1870  0.0206  0.1958
   32loPI    C1  497   0.302  16.050  10.523  0.0983  0.0382  0.1216
   32loPI    C2  498   0.292  15.651  10.498  0.0085  0.0503 -0.0472
   32loPI    C3  499   0.342  15.827  10.853 -0.3691 -0.1055  0.0891
   32loPI   PO4  500   0.459  16.189  10.419  0.0846  0.4010  0.3045
   32loPI   GL1  501   0.472  16.329   9.989 -0.1585  0.1308 -0.1975
   32loPI   GL2  502   0.748  16.486   9.867  0.5069  0.3833  0.1471
   32loPI   C1A  503   0.352  16.273   9.583  0.3151  0.0872  0.1236
   32loPI   C2A  504   0.359  16.180   9.154  0.0510 -0.1514  0.1133
   32loPI   C3A  505   0.462  16.414   8.777  0.0093  0.2390 -0.0434
   32loPI   C4A  506   0.817  16.569   8.478 -0.0866 -0.0898  0.0382
   32loPI   C5A  507   0.933  16.662   8.090 -0.1058  0.0307  0.3517
   32loPI   C6A  508   1.228  16.939   7.872  0.0188  0.1643 -0.5391
   32loPI   C1B  509   0.764  16.565   9.445 -0.0135 -0.3258  0.1827
   32loPI   C2B  510   0.709  16.680   9.094  0.1652  0.1106 -0.1715
   32loPI   C3B  511   0.986  16.894   8.787 -0.0152  0.1405 -0.0266
   32loPI   C4B  512   1.023  17.039   8.338  0.0742 -0.0733 -0.3609
   33loPI    C1  513   5.493  15.717  10.816 -0.1484  0.2568 -0.2519
   33loPI    C2  514   5.149  15.656  11.011  0.0501 -0.1334 -0.0114
   33loPI    C3  515   5.479  15.755  11.214  0.1646 -0.1267 -0.1980
   33loPI   PO4  516   5.436  15.820  10.563 -0.0403  0.0548 -0.2247
   33loPI   GL1  517   5.595  15.770  10.160  0.0699  0.1929  0.0746
   33loPI   GL2  518   5.614  15.462  10.169  0.1736  0.0497  0.1838
   33loPI   C1A  519   5.704  15.828   9.764 -0.0289 -0.1122 -0.0153
   33loPI   C2A  520   5.874  15.693   9.429  0.2539 -0.0874 -0.0404
   33loPI   C3A  521   5.903  15.628   9.027  0.0228  0.2614 -0.0035
   33loPI   C4A  522   5.957  15.611   8.578 -0.1673  0.0493 -0.1148
   33loPI   C5A  523   6.012  15.476   8.208  0.1747  0.1881  0.0546
   33loPI   C6A  524   6.389  15.377   7.924  0.0041 -0.1927  0.0472
   33loPI   C1B  525   5.648  15.366   9.809 -0.1439 -0.0811 -0.3228
   33loPI   C2B  526   5.741  15.243   9.264  0.1403 -0.1377 -0.2596
   33loPI   C3B  527   5.755  15.190   8.892 -0.1811  0.0412  0.0876
   33loPI   C4B  528   5.800  15.122   8.514 -0.0371  0.0506  0.2251
   34loPI    C1  529   6.017   9.604  10.942  0.2370  0.0263 -0.2672
   34loPI    C2  530   6.182   9.724  11.286  0.0568  0.1572 -0.2250
   34loPI    C3  531   5.798   9.805  11.209  0.0571  0.0041 -0.3961
   34loPI   PO4  532   6.192   9.702  10.792  0.2435  0.0050  0.3796
   34loPI   GL1  533   6.180   9.959  10.487  0.0737 -0.1614 -0.1064
   34loPI   GL2  534   6.238   9.801  10.292  0.0829 -0.1646 -0.2783
   34loPI   C1A  535   6.023  10.285  10.342  0.0170 -0.1118  0.0294
   34loPI   C2A  536   5.940  10.308  10.016  0.4701  0.0183  0.2168
   34loPI   C3A  537   5.963  10.174   9.617  0.1708 -0.1486  0.4946
   34loPI   C4A  538   6.032  10.260   9.134 -0.0408 -0.4377  0.1090
   34loPI   C5A  539   5.923  10.157   8.765  0.0185  0.0106 -0.0843
   34loPI   C6A  540   5.853  10.248   8.303 -0.3385  0.0000  0.2482
   34loPI   C1B  541   6.274   9.868   9.828  0.0153  0.1138  0.0125
   34loPI   C2B  542   6.265   9.728   9.450  0.0169 -0.2103  0.2632
   34loPI   C3B  543   6.423   9.739   9.080  0.0031  0.1266  0.1848
   34loPI   C4B  544   6.369   9.712   8.667 -0.1166  0.3254  0.1393
   35loPI    C1  545  14.981  10.697  10.941 -0.0266  0.0037 -0.3486
   35loPI    C2  546  14.735  10.819  11.231  0.1608 -0.3306 -0.0409
   35loPI    C3  547  15.125  10.901  11.253  0.1184  0.0031 -0.4142
   35loPI   PO4  548  15.008  10.741  10.733 -0.0334  0.0463 -0.0429
   35loPI   GL1  549  15.311  10.678  10.413  0.1957  0.3907 -0.0759
   35loPI   GL2  550  15.397  10.985  10.346 -0.1783 -0.4084 -0.1226
   35loPI   C1A  551  15.070  10.584  10.089 -0.1159  0.1761 -0.0149
   35loPI   C2A  552  15.059  10.728   9.627  0.0776  0.1618 -0.4921
   35loPI   C3A  553  15.044  10.798   9.207  0.0519 -0.1484  0.0144
   35loPI   C4A  554  15.075  10.696   8.807 -0.1576 -0.0930 -0.2057
   35loPI   C5A  555  15.089  10.765   8.341  0.0309 -0.2870  0.0488
   35loPI   C6A  556  15.048  10.627   7.951 -0.1125  0.0164 -0.1252
   35loPI   C1B  557  15.203  11.055   9.954 -0.4229  0.0607  0.0686
   35loPI   C2B  558  15.292  11.178   9.568  0.1713  0.1454 -0.0613
   35loPI   C3B  559  15.364  11.214   9.189  0.0416 -0.1295  0.2014
   35loPI   C4B  560  15.334  11.203   8.720 -0.1006  0.0489 -0.0008
   36loPI    C1  561   6.793   0.304  11.032 -0.0098  0.1725  0.1685
   36loPI    C2  562   6.785   0.521  11.367 -0.1176  0.3044  0.0814
   36loPI    C3  563   6.451   0.344  11.236 -0.0661  0.2181  0.0659
   36loPI   PO4  564   6.824   0.457  10.768  0.0992  0.1264  0.0149
   36loPI   GL1  565   6.869   0.419  10.360 -0.1207  0.1725  0.0558
   36loPI   GL2  566   6.633   0.704  10.322 -0.0003 -0.2772 -0.0746
   36loPI   C1A  567   7.077   0.215   9.962  0.2322 -0.0823  0.1662
   36loPI   C2A  568   7.086   0.260   9.484  0.0648  0.1304 -0.1270
   36loPI   C3A  569   7.079   0.280   9.154  0.0567 -0.1395 -0.2193
   36loPI   C4A  570   7.078   0.179   8.707 -0.0029 -0.0556 -0.0589
   36loPI   C5A  571   7.025   0.247   8.290 -0.0854 -0.0322  0.2303
   36loPI   C6A  572   7.017   0.339   7.963 -0.3130  0.1568  0.0077
   36loPI   C1B  573   6.717   0.594   9.852  0.1346  0.0057 -0.1226
   36loPI   C2B  574   6.808   0.711   9.426  0.1410 -0.1752  0.0796
   36loPI   C3B  575   6.727   0.848   8.970 -0.0471 -0.0437  0.2672
   36loPI   C4B  576   6.846   0.624   8.609 -0.2599 -0.1183  0.2353
   37loPI    C1  577   9.697   5.239  10.951  0.0055  0.0183  0.0485
   37loPI    C2  578   9.746   5.269  11.347 -0.2770  0.0214  0.0856
   37loPI    C3  579   9.435   5.066  11.199 -0.0503 -0.1693 -0.1387
   37loPI   PO4  580   9.655   5.515  10.730 -0.1256 -0.1470  0.0849
   37loPI   GL1  581   9.704   5.334  10.281 -0.2179 -0.2395  0.0276
   37loPI   GL2  582  10.064   5.334  10.169 -0.1938  0.0142 -0.0128
   37loPI   C1A  583   9.648   5.245   9.831  0.0278 -0.3062 -0.3122
   37loPI   C2A  584   9.762   5.161   9.395 -0.0507  0.1175 -0.1210
   37loPI   C3A  585   9.688   5.051   8.878 -0.0187  0.2481  0.0705
   37loPI   C4A  586   9.861   5.041   8.482 -0.1753 -0.1542 -0.0782
   37loPI   C5A  587   9.612   5.113   8.117  0.0168 -0.1296  0.0400
   37loPI   C6A  588   9.407   4.960   7.781  0.3621 -0.1434 -0.1098
   37loPI   C1B  589  10.106   5.313   9.688  0.0524 -0.0868 -0.0565
   37loPI   C2B  590  10.214   5.229   9.262 -0.3144  0.2911  0.1825
   37loPI   C3B  591  10.207   5.176   8.905 -0.1223 -0.1035 -0.4665
   37loPI   C4B  592  10.299   5.201   8.493 -0.2597  0.0307 -0.0063
   38loPI    C1  593  13.082   9.911  10.850  0.0101 -0.0600  0.1011
   38loPI    C2  594  13.014  10.228  11.084 -0.0503  0.0249 -0.0303
   38loPI    C3  595  12.863   9.870  11.182  0.0087  0.0386  0.1125
   38loPI   PO4  596  12.971   9.906  10.656 -0.1440 -0.1504  0.2289
   38loPI   GL1  597  12.962   9.531  10.356  0.1988  0.1805 -0.0418
   38loPI   GL2  598  12.860   9.359  10.213  0.1710  0.2224 -0.0895
   38loPI   C1A  599  13.158   9.685   9.967  0.1433  0.2319 -0.1659
   38loPI   C2A  600  13.223   9.722   9.531  0.1761  0.0160  0.3622
   38loPI   C3A  601  13.150   9.619   9.152  0.2919  0.1306  0.1875
   38loPI   C4A  602  12.987   9.639   8.708 -0.3637 -0.1630  0.4427
   38loPI   C5A  603  12.914   9.816   8.313 -0.0632 -0.1230  0.1970
   38loPI   C6A  604  12.972  10.016   7.984 -0.0348  0.4092  0.2121
   38loPI   C1B  605  12.932   9.222   9.857  0.2994  0.0064 -0.0039
   38loPI   C2B  606  12.933   9.178   9.345 -0.0317  0.0742 -0.2888
   38loPI   C3B  607  12.890   9.174   8.935 -0.1653 -0.2576  0.1198
   38loPI   C4B  608  12.831   9.072   8.504  0.2457  0.0222 -0.1864
   39loPI    C1  609  11.121  13.782  10.673 -0.1184  0.1668  0.0279
   39loPI    C2  610  11.106  13.884  11.060 -0.0491  0.1746  0.0285
   39loPI    C3  611  10.900  14.094  10.789  0.1581  0.3701  0.0191
   39loPI   PO4  612  11.368  13.748  10.574 -0.0161 -0.0035 -0.0821
   39loPI   GL1  613  11.573  13.734  10.251  0.2260 -0.1022  0.1333
   39loPI   GL2  614  11.919  13.675  10.246 -0.0874 -0.0294  0.0855
   39loPI   C1A  615  11.312  13.610   9.845 -0.0536  0.1144 -0.4522
   39loPI   C2A  616  11.297  13.441   9.509  0.1897  0.1553  0.5175
   39loPI   C3A  617  11.422  13.531   9.148  0.0420  0.4661  0.0929
   39loPI   C4A  618  11.401  13.614   8.822  0.4019  0.1902  0.0717
   39loPI   C5A  619  11.475  13.628   8.448 -0.0333 -0.0714  0.0252
   39loPI   C6A  620  11.575  13.559   8.045  0.1548  0.1310  0.0500
   39loPI   C1B  621  11.909  13.588   9.742 -0.0781 -0.1660  0.0720
   39loPI   C2B  622  11.928  13.539   9.247 -0.1771 -0.1169  0.0430
   39loPI   C3B  623  11.980  13.622   8.818 -0.0143 -0.0703  0.2259
   39loPI   C4B  624  11.927  13.451   8.428 -0.2841 -0.0793  0.0457
   40loPI    C1  625   6.213   4.198  11.114  0.2441 -0.0479 -0.1406
   40loPI    C2  626   6.156   4.566  11.259  0.0844 -0.1593  0.0840
   40loPI    C3  627   6.488   4.363  11.352  0.0997 -0.1326  0.0878
   40loPI   PO4  628   6.120   4.187  10.798  0.0387  0.2872 -0.1986
   40loPI   GL1  629   5.814   4.079  10.422  0.2853 -0.0220 -0.0551
   40loPI   GL2  630   6.148   3.838  10.318 -0.0156 -0.0813 -0.0425
   40loPI   C1A  631   5.996   4.286  10.130  0.2023 -0.2912 -0.3276
   40loPI   C2A  632   5.880   4.287   9.670  0.3086 -0.2909  0.0324
   40loPI   C3A  633   5.920   4.242   9.211  0.0451 -0.2233 -0.1302
   40loPI   C4A  634   5.891   4.351   8.771  0.0265  0.0958 -0.0473
   40loPI   C5A  635   5.842   4.296   8.310  0.1164  0.3035 -0.0994
   40loPI   C6A  636   5.472   4.503   8.057  0.1281 -0.0794  0.2916
   40loPI   C1B  637   6.235   3.812   9.834 -0.1347  0.0950 -0.0800
   40loPI   C2B  638   6.173   3.822   9.310  0.0036 -0.2442 -0.0221
   40loPI   C3B  639   6.153   3.942   8.907 -0.1092 -0.1503 -0.0194
   40loPI   C4B  640   6.279   4.124   8.510 -0.0578  0.2591  0.0455
   41loPI    C1  641  16.149   5.192  10.894 -0.1811 -0.0518 -0.1804
   41loPI    C2  642  15.969   4.900  11.100 -0.0514 -0.1598 -0.2185
   41loPI    C3  643  16.364   4.886  11.038 -0.0406  0.0378 -0.1981
   41loPI   PO4  644  16.045   5.233  10.644 -0.0287 -0.2789  0.0032
   41loPI   GL1  645  15.648   5.318  10.303 -0.0121  0.2003 -0.0710
   41loPI   GL2  646  15.309   5.159  10.262  0.0887  0.0743  0.1055
   41loPI   C1A  647  15.708   5.471   9.879  0.2861  0.0068 -0.0077
   41loPI   C2A  648  15.610   5.367   9.386  0.1217  0.0330 -0.1177
   41loPI   C3A  649  15.582   5.330   8.962  0.1180 -0.2101  0.1040
   41loPI   C4A  650  15.637   5.409   8.509  0.1411 -0.1366 -0.3257
   41loPI   C5A  651  15.682   5.434   8.124  0.0138  0.0595  0.0219
   41loPI   C6A  652  15.874   5.265   7.823 -0.0957 -0.1891 -0.0628
   41loPI   C1B  653  15.234   5.361   9.917  0.2713  0.1735 -0.2107
   41loPI   C2B  654  15.103   5.349   9.422 -0.0712 -0.2289  0.2253
   41loPI   C3B  655  15.077   5.269   8.988 -0.3495  0.0799 -0.0357
   41loPI   C4B  656  15.137   5.327   8.631  0.1101  0.1204 -0.1069
   42loPI    C1  657   8.256   3.226  10.864  0.0402 -0.2216 -0.1404
   42loPI    C2  658   8.282   3.031  11.212 -0.1484  0.1096  0.0647
   42loPI    C3  659   8.500   3.361  11.151  0.1686 -0.1537 -0.2795
   42loPI   PO4  660   8.235   3.021  10.721 -0.2920 -0.0532  0.2120
   42loPI   GL1  661   8.453   2.775  10.452 -0.1269 -0.3469 -0.0247
   42loPI   GL2  662   8.710   2.653  10.493  0.1168 -0.1510  0.0240
   42loPI   C1A  663   8.032   2.603  10.190  0.0729 -0.2010  0.0890
   42loPI   C2A  664   8.103   2.626   9.693 -0.2152 -0.2290 -0.0027
   42loPI   C3A  665   8.200   2.663   9.223  0.0742  0.3727 -0.1332
   42loPI   C4A  666   8.188   2.490   8.801  0.2347  0.1161 -0.0644
   42loPI   C5A  667   8.253   2.659   8.373 -0.0841 -0.0493  0.0817
   42loPI   C6A  668   8.194   2.549   7.856  0.2718 -0.3149  0.1521
   42loPI   C1B  669   8.566   2.705  10.000  0.0138  0.0319 -0.1816
   42loPI   C2B  670   8.629   2.690   9.535  0.3247  0.2552 -0.0715
   42loPI   C3B  671   8.628   2.760   9.091 -0.1468 -0.3434  0.3545
   42loPI   C4B  672   8.652   2.629   8.633  0.1363 -0.2987 -0.2794
   43loPI    C1  673  16.998  18.053  10.069 -0.0730 -0.0356  0.2056
   43loPI    C2  674  16.676  18.250   9.936  0.1269  0.1426 -0.0228
   43loPI    C3  675  16.857  18.367  10.273  0.1770  0.2802 -0.0971
   43loPI   PO4  676  17.178  18.074   9.908 -0.0720 -0.1354 -0.0929
   43loPI   GL1  677  17.131  18.176   9.478  0.1375 -0.0028 -0.2691
   43loPI   GL2  678  16.941  18.401   9.550  0.0447 -0.0252  0.2469
   43loPI   C1A  679  17.194  18.055   9.031  0.1084 -0.0637  0.0950
   43loPI   C2A  680  17.164  17.989   8.651  0.2406  0.1235 -0.2032
   43loPI   C3A  681  17.001  18.185   8.239 -0.4010 -0.0305 -0.1496
   43loPI   C4A  682  16.979  18.425   7.795 -0.2604  0.1784  0.0239
   43loPI   C5A  683  16.915  18.627   7.449 -0.1104  0.0678 -0.0668
   43loPI   C6A  684  16.828  18.963   7.325 -0.3198 -0.1384 -0.3597
   43loPI   C1B  685  16.764  18.461   9.096 -0.0864  0.0642  0.3501
   43loPI   C2B  686  16.868  18.506   8.684 -0.0082 -0.1135  0.0218
   43loPI   C3B  687  16.918  18.676   8.229 -0.2585  0.0398  0.2765
   43loPI   C4B  688  17.007  18.992   7.819  0.1124 -0.3488  0.0890
   44loPI    C1  689   2.135  16.066  10.528 -0.3292 -0.1430 -0.0075
   44loPI    C2  690   2.103  15.943  10.907 -0.0054  0.0131  0.0732
   44loPI    C3  691   1.851  16.219  10.764  0.0057  0.1114  0.2403
   44loPI   PO4  692   2.115  15.849  10.393  0.1390 -0.1331  0.0018
   44loPI   GL1  693   1.921  15.828  10.052  0.1922 -0.0593 -0.2224
   44loPI   GL2  694   1.921  15.589   9.841  0.1231 -0.0694  0.0829
   44loPI   C1A  695   2.154  16.003   9.633  0.0525  0.0554 -0.0502
   44loPI   C2A  696   2.005  16.037   9.235  0.2859 -0.1273 -0.0396
   44loPI   C3A  697   2.013  16.122   8.826 -0.1615 -0.1434  0.0325
   44loPI   C4A  698   2.137  16.077   8.419  0.1618 -0.0460  0.0927
   44loPI   C5A  699   2.245  16.192   7.929 -0.1177  0.1225 -0.0242
   44loPI   C6A  700   2.184  16.566   7.742 -0.1541  0.0730 -0.0167
   44loPI   C1B  701   1.721  15.612   9.287 -0.1767 -0.1135 -0.0828
   44loPI   C2B  702   1.822  15.652   8.792  0.0491  0.1362  0.0991
   44loPI   C3B  703   1.911  15.654   8.315 -0.0167 -0.1017 -0.1223
   44loPI   C4B  704   1.897  15.571   7.899  0.0831  0.1505  0.1539
   45loPI    C1  705  14.713   5.300  11.033  0.2304 -0.2639  0.1977
   45loPI    C2  706  14.701   5.612  11.283  0.0969 -0.0142 -0.1122
   45loPI    C3  707  14.967   5.318  11.342  0.1047  0.0664  0.2859
   45loPI   PO4  708  14.618   5.363  10.811  0.1052  0.2998 -0.2598
   45loPI   GL1  709  14.447   5.653  10.447 -0.0063  0.0675 -0.4045
   45loPI   GL2  710  14.319   5.268  10.437 -0.2135  0.1084  0.2309
   45loPI   C1A  711  14.440   5.694  10.052 -0.5652  0.2551  0.2157
   45loPI   C2A  712  14.263   5.732   9.646 -0.1509  0.2625  0.0184
   45loPI   C3A  713  14.302   5.631   9.270  0.0132  0.0796  0.3720
   45loPI   C4A  714  14.260   5.746   8.827  0.1716 -0.2743  0.1124
   45loPI   C5A  715  14.252   5.647   8.325 -0.2364  0.0564  0.0713
   45loPI   C6A  716  14.373   5.945   7.951 -0.0376  0.0985  0.1326
   45loPI   C1B  717  14.130   5.292  10.101  0.0148  0.0210 -0.1045
   45loPI   C2B  718  14.138   5.232   9.572  0.1031 -0.1975 -0.2655
   45loPI   C3B  719  14.120   5.172   9.179  0.3379 -0.0596 -0.0185
   45loPI   C4B  720  14.054   5.184   8.726  0.2742 -0.4524  0.1324
   46loPI    C1  721  13.407   7.406  11.158 -0.0207  0.0589  0.0714
   46loPI    C2  722  13.031   7.323  11.267 -0.0769  0.0953 -0.0917
   46loPI    C3  723  13.289   7.025  11.197 -0.0833  0.0700 -0.0094
   46loPI   PO4  724  13.400   7.628  10.915 -0.1490 -0.2532  0.2141
   46loPI   GL1  725  13.532   7.617  10.509 -0.2167 -0.1891 -0.3968
   46loPI   GL2  726  13.803   7.463  10.247 -0.1266  0.1404  0.1167
   46loPI   C1A  727  13.383   7.816  10.061  0.1616  0.3290 -0.1623
   46loPI   C2A  728  13.308   7.867   9.530  0.1553  0.1560  0.0076
   46loPI   C3A  729  13.312   7.850   9.146 -0.1758  0.0053  0.1128
   46loPI   C4A  730  13.313   7.830   8.670 -0.0830  0.3121 -0.2021
   46loPI   C5A  731  13.127   7.690   8.311  0.0976  0.4038 -0.2820
   46loPI   C6A  732  12.722   7.686   8.128 -0.0470 -0.0406 -0.0713
   46loPI   C1B  733  13.680   7.515   9.769  0.0055  0.0507  0.4105
   46loPI   C2B  734  13.614   7.464   9.319  0.3958  0.0883 -0.1043
   46loPI   C3B  735  13.594   7.409   8.825  0.1571 -0.1248 -0.2819
   46loPI   C4B  736  13.699   7.469   8.409 -0.2501 -0.2415 -0.0056
   47loPI    C1  737   7.943  14.182  10.821  0.0703 -0.1956 -0.0825
   47loPI    C2  738   8.167  14.234  11.149 -0.0769 -0.2392  0.0261
   47loPI    C3  739   8.199  14.489  10.842  0.0409 -0.1814  0.0857
   47loPI   PO4  740   8.018  13.962  10.704 -0.2945  0.1504  0.1782
   47loPI   GL1  741   8.262  13.826  10.323  0.3988  0.1677 -0.2858
   47loPI   GL2  742   8.461  13.614  10.198 -0.1153 -0.0052 -0.5832
   47loPI   C1A  743   7.995  13.622  10.027 -0.0875  0.3264 -0.2142
   47loPI   C2A  744   7.859  13.610   9.607 -0.4187 -0.2023 -0.3909
   47loPI   C3A  745   7.949  13.576   9.160 -0.0133  0.1420  0.0295
   47loPI   C4A  746   8.007  13.502   8.632  0.1050 -0.0657 -0.1476
   47loPI   C5A  747   8.224  13.569   8.357 -0.0541 -0.0956  0.0076
   47loPI   C6A  748   8.343  13.948   8.156  0.2067 -0.0822  0.0164
   47loPI   C1B  749   8.483  13.675   9.811  0.1998  0.2235  0.0045
   47loPI   C2B  750   8.458  13.566   9.278  0.0817 -0.2201 -0.2855
   47loPI   C3B  751   8.530  13.556   8.823 -0.2094 -0.0962  0.3949
   47loPI   C4B  752   8.824  13.526   8.426  0.0740  0.0346 -0.1218
   48loPI    C1  753  13.563  17.611  11.207 -0.0797 -0.1781  0.0889
   48loPI    C2  754  13.502  17.358  11.511  0.1009 -0.1845  0.1215
   48loPI    C3  755  13.465  17.752  11.568 -0.1168 -0.1986  0.0869
   48loPI   PO4  756  13.524  17.424  11.056  0.0614 -0.1249  0.2963
   48loPI   GL1  757  13.624  17.437  10.635  0.1107  0.0060  0.0012
   48loPI   GL2  758  13.847  17.430  10.513  0.0526  0.1977  0.1185
   48loPI   C1A  759  13.412  17.422  10.225 -0.0991  0.0420 -0.1379
   48loPI   C2A  760  13.493  17.491   9.705  0.0444 -0.1812  0.1456
   48loPI   C3A  761  13.657  17.320   9.257 -0.4380  0.0250 -0.2494
   48loPI   C4A  762  13.514  17.367   8.745 -0.2990 -0.2764 -0.2831
   48loPI   C5A  763  13.566  17.175   8.327 -0.1333  0.2782  0.0438
   48loPI   C6A  764  13.608  17.102   7.881  0.2108 -0.0843 -0.1656
   48loPI   C1B  765  14.008  17.535  10.263 -0.1149 -0.5028  0.0198
   48loPI   C2B  766  14.071  17.472   9.813 -0.2311  0.1871  0.0297
   48loPI   C3B  767  14.151  17.375   9.392  0.0482 -0.1714  0.1997
   48loPI   C4B  768  14.114  17.429   9.039 -0.0944 -0.1859 -0.1125
   49loPI    C1  769  17.156   2.959   9.868 -0.1084  0.1332  0.0215
   49loPI    C2  770  17.004   2.963  10.238 -0.2427  0.1524 -0.0333
   49loPI    C3  771  16.760   2.983   9.921 -0.1385 -0.0166 -0.1257
   49loPI   PO4  772  17.305   2.724   9.768 -0.2745  0.0097  0.0609
   49loPI   GL1  773  17.688   2.736   9.382  0.3143 -0.2156 -0.0582
   49loPI   GL2  774  17.641   2.418   9.419 -0.3096  0.0796  0.1722
   49loPI   C1A  775  17.459   2.723   8.975 -0.1559 -0.2010  0.1846
   49loPI   C2A  776  17.392   2.621   8.590  0.0945  0.0455  0.1668
   49loPI   C3A  777  17.398   2.313   8.311  0.0004 -0.1445 -0.2538
   49loPI   C4A  778  17.252   2.093   8.122  0.5981  0.4798  0.3451
   49loPI   C5A  779  17.022   1.791   7.941  0.0673 -0.3209  0.0346
   49loPI   C6A  780  16.976   1.364   8.001  0.0268  0.2555  0.0816
   49loPI   C1B  781  17.729   2.253   9.077 -0.0562 -0.0085  0.2938
   49loPI   C2B  782  17.759   2.188   8.686  0.0153  0.0267 -0.1108
   49loPI   C3B  783  17.883   2.195   8.276 -0.0337  0.2519  0.1493
   49loPI   C4B  784  17.751   2.179   7.858  0.0851 -0.0530 -0.0778
   50loPI    C1  785   2.159   6.797  10.583 -0.0677 -0.2141  0.1595
   50loPI    C2  786   2.305   6.849  10.952  0.0675  0.0402  0.0727
   50loPI    C3  787   1.968   7.035  10.842 -0.0232 -0.1088  0.0964
   50loPI   PO4  788   2.321   6.777  10.398  0.2200  0.2502 -0.1009
   50loPI   GL1  789   2.483   6.959   9.995  0.2877  0.4182  0.2424
   50loPI   GL2  790   2.493   7.285   9.877 -0.0247 -0.1066  0.0875
   50loPI   C1A  791   2.640   6.986   9.504 -0.0042  0.0505  0.0914
   50loPI   C2A  792   2.707   7.201   9.211 -0.1293 -0.0630 -0.3825
   50loPI   C3A  793   2.673   7.058   8.864  0.0429  0.0928 -0.1638
   50loPI   C4A  794   2.550   7.009   8.435  0.3506 -0.1267 -0.0641
   50loPI   C5A  795   2.533   7.005   8.008  0.1198  0.0644  0.5896
   50loPI   C6A  796   2.741   7.344   7.853  0.3571  0.3821 -0.2883
   50loPI   C1B  797   2.347   7.459   9.492 -0.0879 -0.0210 -0.0534
   50loPI   C2B  798   2.345   7.456   9.091  0.0243 -0.2450  0.1247
   50loPI   C3B  799   2.348   7.473   8.671  0.0472 -0.1603  0.4770
   50loPI   C4B  800   2.294   7.455   8.176 -0.0348  0.1331 -0.0768
   51loPI    C1  801  14.385   1.293  10.833  0.1612 -0.0203  0.1563
   51loPI    C2  802  14.533   0.921  10.837  0.0741 -0.0557  0.1259
   51loPI    C3  803  14.308   1.050  11.142 -0.1877 -0.1481 -0.0244
   51loPI   PO4  804  14.362   1.359  10.517 -0.2122 -0.4051  0.3403
   51loPI   GL1  805  14.172   1.295  10.142 -0.1124 -0.0367 -0.0181
   51loPI   GL2  806  14.213   1.550   9.941 -0.2930 -0.0841 -0.3713
   51loPI   C1A  807  14.074   1.060   9.884 -0.2483 -0.1378  0.1224
   51loPI   C2A  808  13.883   0.959   9.543 -0.1591  0.0573  0.1462
   51loPI   C3A  809  13.887   1.012   9.031  0.2786 -0.0409 -0.2064
   51loPI   C4A  810  13.808   1.073   8.631 -0.0667 -0.0995 -0.1254
   51loPI   C5A  811  13.773   1.067   8.129 -0.2728 -0.2769  0.0408
   51loPI   C6A  812  14.010   1.055   7.819  0.2018 -0.3007 -0.1037
   51loPI   C1B  813  14.053   1.559   9.362  0.3012 -0.1791 -0.1195
   51loPI   C2B  814  14.033   1.530   8.953  0.0239  0.0212  0.3880
   51loPI   C3B  815  14.071   1.522   8.538  0.0855 -0.1241 -0.4341
   51loPI   C4B  816  13.987   1.553   8.050  0.2382  0.1048  0.1722
   52loPI    C1  817   5.400   7.573  10.900 -0.1105 -0.2461  0.0327
   52loPI    C2  818   5.174   7.864  11.057  0.2275  0.0546 -0.0262
   52loPI    C3  819   5.272   7.545  11.278  0.0762  0.1129  0.1265
   52loPI   PO4  820   5.283   7.450  10.732 -0.0244 -0.0548 -0.4123
   52loPI   GL1  821   5.204   7.294  10.365 -0.2060  0.0102  0.2009
   52loPI   GL2  822   4.934   7.173  10.442  0.2570 -0.0534  0.2460
   52loPI   C1A  823   5.179   7.421   9.956 -0.4150  0.0206 -0.2709
   52loPI   C2A  824   5.318   7.371   9.493 -0.0379 -0.1009  0.0223
   52loPI   C3A  825   5.226   7.420   9.059  0.0207  0.1895 -0.0097
   52loPI   C4A  826   5.352   7.332   8.698  0.0064 -0.1553 -0.3126
   52loPI   C5A  827   5.398   7.146   8.343 -0.0568 -0.0331  0.0326
   52loPI   C6A  828   5.440   6.767   8.203 -0.3866 -0.0569  0.1193
   52loPI   C1B  829   4.962   7.009  10.020 -0.4304  0.2201  0.1370
   52loPI   C2B  830   5.106   6.963   9.554 -0.1624 -0.1528  0.0668
   52loPI   C3B  831   5.055   6.875   9.126 -0.1886 -0.0910  0.0476
   52loPI   C4B  832   5.087   6.895   8.640 -0.2060 -0.0511  0.0376
   53loPI    C1  833   0.498  10.048  10.474  0.0202 -0.2621  0.1037
   53loPI    C2  834   0.782  10.021  10.755  0.0896  0.0862  0.0715
   53loPI    C3  835   0.398  10.059  10.862  0.0888 -0.0454  0.1167
   53loPI   PO4  836   0.516  10.208  10.319 -0.1047  0.0033 -0.0029
   53loPI   GL1  837   0.344  10.400   9.933 -0.0136  0.0016  0.1960
   53loPI   GL2  838   0.651  10.330   9.828 -0.3552 -0.1192  0.0062
   53loPI   C1A  839   0.209  10.398   9.531  0.1755 -0.1945  0.1599
   53loPI   C2A  840   0.088  10.334   9.104 -0.0573 -0.1409  0.2040
   53loPI   C3A  841   0.119  10.265   8.719 -0.2102 -0.1737 -0.3709
   53loPI   C4A  842   0.042  10.145   8.225  0.2087  0.0322  0.3579
   53loPI   C5A  843  -0.256   9.930   7.919  0.2934 -0.1167 -0.1633
   53loPI   C6A  844  -0.448   9.784   7.547 -0.1974  0.1354  0.0798
   53loPI   C1B  845   0.686  10.438   9.360  0.1594  0.0669 -0.0567
   53loPI   C2B  846   0.619  10.348   8.897 -0.1528  0.0532  0.3165
   53loPI   C3B  847   0.674  10.368   8.531 -0.0550 -0.0229  0.2904
   53loPI   C4B  848   0.542  10.169   8.120  0.2029  0.0692  0.2422
   54loPI    C1  849   3.345   1.192  10.454 -0.1516 -0.0848  0.0777
   54loPI    C2  850   3.480   1.433  10.743  0.0351 -0.0618 -0.0273
   54loPI    C3  851   3.254   1.117  10.836 -0.1591  0.1166  0.1163
   54loPI   PO4  852   3.396   1.363  10.269  0.1277 -0.3290  0.0495
   54loPI   GL1  853   3.315   1.377   9.828 -0.1220  0.2662  0.0808
   54loPI   GL2  854   3.476   1.283   9.640  0.1222 -0.2692  0.0879
   54loPI   C1A  855   3.203   1.721   9.455 -0.0639  0.1620 -0.0468
   54loPI   C2A  856   3.224   1.768   9.078  0.0787 -0.0590 -0.0644
   54loPI   C3A  857   3.348   1.704   8.631  0.2476  0.0522  0.3756
   54loPI   C4A  858   3.509   1.714   8.165  0.2406 -0.0191 -0.0578
   54loPI   C5A  859   3.731   1.776   7.787  0.0244  0.0209  0.4624
   54loPI   C6A  860   3.886   1.916   7.316  0.0272 -0.0305  0.1400
   54loPI   C1B  861   3.521   1.322   9.213  0.0751  0.1019 -0.1992
   54loPI   C2B  862   3.594   1.339   8.858  0.1275  0.1932  0.0740
   54loPI   C3B  863   3.669   1.293   8.391  0.1464  0.2060  0.0312
   54loPI   C4B  864   3.794   1.303   7.979 -0.0318  0.0108  0.0640
   55loPI    C1  865   4.721  13.954  10.846 -0.3601  0.1742 -0.2041
   55loPI    C2  866   4.901  14.143  11.149  0.0296 -0.2376 -0.1678
   55loPI    C3  867   4.528  14.006  11.193 -0.0563  0.0388 -0.0101
   55loPI   PO4  868   4.748  14.069  10.636  0.1158  0.0743  0.2868
   55loPI   GL1  869   4.987  13.996  10.285  0.0152 -0.1415 -0.2719
   55loPI   GL2  870   5.028  14.322  10.227 -0.0091 -0.2028 -0.0058
   55loPI   C1A  871   4.930  13.848   9.850  0.2980  0.1767  0.0551
   55loPI   C2A  872   4.924  13.921   9.425 -0.1200  0.2495  0.0530
   55loPI   C3A  873   4.914  13.758   9.033 -0.2325  0.3610  0.0466
   55loPI   C4A  874   4.986  13.698   8.636 -0.0668  0.0008 -0.3625
   55loPI   C5A  875   5.129  13.597   8.242  0.0056  0.1660  0.2308
   55loPI   C6A  876   5.519  13.324   8.044  0.1773 -0.0058 -0.2822
   55loPI   C1B  877   5.070  14.336   9.870 -0.0746  0.1426  0.1184
   55loPI   C2B  878   5.152  14.335   9.337  0.2310  0.2090 -0.0224
   55loPI   C3B  879   5.250  14.181   8.913 -0.3100  0.1058 -0.0909
   55loPI   C4B  880   5.284  14.197   8.476  0.2148  0.0080 -0.0756
   56loPI    C1  881  13.052   7.179  10.819  0.0689  0.0163 -0.1877
   56loPI    C2  882  13.170   6.803  10.748  0.0695 -0.0347  0.0728
   56loPI    C3  883  12.831   6.872  10.949 -0.0407  0.1074 -0.1576
   56loPI   PO4  884  13.058   7.412  10.573  0.2217  0.1040 -0.2462
   56loPI   GL1  885  13.275   7.293  10.262 -0.0559 -0.2325  0.1459
   56loPI   GL2  886  13.504   7.081  10.137 -0.1374 -0.1182  0.4151
   56loPI   C1A  887  13.138   7.348   9.909  0.0231  0.0058 -0.0648
   56loPI   C2A  888  13.097   7.402   9.440  0.1662  0.2521  0.1786
   56loPI   C3A  889  13.106   7.339   8.914 -0.0425 -0.0437  0.1171
   56loPI   C4A  890  13.266   7.232   8.503 -0.1013 -0.1609 -0.0155
   56loPI   C5A  891  13.391   7.282   8.049 -0.2998 -0.0534 -0.0417
   56loPI   C6A  892  13.175   7.589   7.735 -0.0227  0.0892 -0.1457
   56loPI   C1B  893  13.490   6.945   9.675  0.0354  0.1212 -0.1356
   56loPI   C2B  894  13.365   6.998   9.180  0.0876  0.0474 -0.1312
   56loPI   C3B  895  13.343   6.787   8.705 -0.0806  0.0737 -0.3137
   56loPI   C4B  896  13.312   6.693   8.302 -0.1167 -0.1854  0.2959
   57loPI    C1  897   6.826   0.949  10.756 -0.1462  0.0133  0.0730
   57loPI    C2  898   6.725   1.296  10.927 -0.0303  0.0438  0.0798
   57loPI    C3  899   6.699   0.956  11.135  0.3737  0.1127  0.2536
   57loPI   PO4  900   7.019   1.012  10.546 -0.0737  0.1964 -0.2497
   57loPI   GL1  901   7.109   0.956  10.158 -0.0685 -0.1279 -0.0069
   57loPI   GL2  902   7.206   0.680  10.117 -0.0701 -0.1723 -0.1090
   57loPI   C1A  903   6.954   1.230   9.722 -0.2006 -0.1859  0.0159
   57loPI   C2A  904   7.033   1.200   9.360 -0.1628 -0.1089 -0.1128
   57loPI   C3A  905   6.988   1.217   8.881 -0.1281  0.0603 -0.0228
   57loPI   C4A  906   6.988   1.129   8.447 -0.0546  0.3234 -0.0344
   57loPI   C5A  907   7.127   1.387   8.093  0.1825  0.3090 -0.1061
   57loPI   C6A  908   6.942   1.746   8.068 -0.1323 -0.0524  0.1437
   57loPI   C1B  909   7.242   0.753   9.613  0.1178 -0.1562 -0.0002
   57loPI   C2B  910   7.297   0.749   9.159 -0.1485  0.1230 -0.0179
   57loPI   C3B  911   7.330   0.787   8.687 -0.0810 -0.3064  0.0415
   57loPI   C4B  912   7.308   0.663   8.279  0.1653  0.0330  0.0526
   58loPI    C1  913   8.085  17.884  10.780  0.1192 -0.0696  0.2320
   58loPI    C2  914   8.066  17.485  10.763 -0.2332 -0.0469 -0.0114
   58loPI    C3  915   8.031  17.672  11.114  0.1040 -0.2347  0.1262
   58loPI   PO4  916   8.283  18.017  10.624 -0.0249  0.2020 -0.3035
   58loPI   GL1  917   8.445  18.230  10.258  0.0932 -0.0285 -0.3267
   58loPI   GL2  918   8.125  18.239  10.210  0.1579  0.0810 -0.1872
   58loPI   C1A  919   8.451  18.254   9.801 -0.2181 -0.2127 -0.1880
   58loPI   C2A  920   8.373  18.300   9.324 -0.0274  0.0165  0.1421
   58loPI   C3A  921   8.459  18.286   8.850 -0.1181 -0.1673 -0.1025
   58loPI   C4A  922   8.500  18.170   8.390 -0.1081  0.0931  0.0870
   58loPI   C5A  923   8.711  18.046   8.078  0.0007  0.1876  0.0813
   58loPI   C6A  924   8.940  18.269   7.739 -0.2036 -0.0272 -0.0444
   58loPI   C1B  925   7.902  18.260   9.842  0.1577  0.1063  0.0709
   58loPI   C2B  926   7.806  18.249   9.461  0.2695 -0.2986  0.0150
   58loPI   C3B  927   7.756  18.160   9.013  0.0154  0.0993 -0.3348
   58loPI   C4B  928   8.002  18.155   8.624  0.2692 -0.2098  0.1883
   59loPI    C1  929   4.105  16.782  10.811  0.0901 -0.0530 -0.0845
   59loPI    C2  930   3.936  16.453  10.962  0.1034 -0.0188  0.0050
   59loPI    C3  931   4.197  16.662  11.181 -0.2015  0.2726  0.0992
   59loPI   PO4  932   4.283  16.749  10.582  0.2534 -0.3571 -0.0418
   59loPI   GL1  933   4.307  16.814  10.171 -0.0268  0.3321  0.0306
   59loPI   GL2  934   4.076  16.728   9.952 -0.0867 -0.2105 -0.2206
   59loPI   C1A  935   4.476  16.869   9.742  0.0985 -0.1138 -0.0645
   59loPI   C2A  936   4.402  16.864   9.350  0.2164 -0.0464 -0.1523
   59loPI   C3A  937   4.477  16.850   8.978 -0.0083  0.3020 -0.0708
   59loPI   C4A  938   4.497  16.931   8.573 -0.0388  0.0715 -0.1082
   59loPI   C5A  939   4.587  16.978   8.180  0.1266 -0.0142 -0.0459
   59loPI   C6A  940   4.525  16.818   7.767  0.0764  0.1688  0.0563
   59loPI   C1B  941   3.945  16.855   9.564  0.1212 -0.0595 -0.2449
   59loPI   C2B  942   3.988  16.892   9.138 -0.3662 -0.1819 -0.1163
   59loPI   C3B  943   4.037  16.818   8.735 -0.0107 -0.0514  0.1586
   59loPI   C4B  944   3.984  16.960   8.275  0.0525  0.0051 -0.2274
   60loPI    C1  945   5.321  16.849  10.640 -0.3930  0.1319 -0.0593
   60loPI    C2  946   5.205  16.519  10.832  0.1418  0.0199  0.0893
   60loPI    C3  947   5.109  16.879  10.978 -0.0787 -0.0657  0.1607
   60loPI   PO4  948   5.314  16.811  10.374  0.1364  0.2092  0.4107
   60loPI   GL1  949   5.212  16.916   9.981 -0.0758 -0.3748 -0.0622
   60loPI   GL2  950   4.919  16.902   9.928  0.1929  0.1292  0.1521
   60loPI   C1A  951   5.417  16.967   9.578 -0.0855 -0.0430 -0.1743
   60loPI   C2A  952   5.576  17.007   9.249  0.1210  0.0858 -0.0539
   60loPI   C3A  953   5.514  17.034   8.844 -0.4034  0.1691  0.1278
   60loPI   C4A  954   5.512  16.835   8.450  0.0673 -0.0282 -0.0460
   60loPI   C5A  955   5.534  17.016   8.023  0.0199  0.4142  0.0175
   60loPI   C6A  956   5.518  16.925   7.567 -0.3034 -0.1173  0.1388
   60loPI   C1B  957   4.960  16.930   9.398  0.3054  0.0610  0.1365
   60loPI   C2B  958   5.064  16.890   9.010  0.0719  0.1236 -0.0453
   60loPI   C3B  959   5.077  16.916   8.618  0.1044 -0.2224  0.0190
   60loPI   C4B  960   5.084  16.922   8.162 -0.0189 -0.2941  0.1634
   61loPI    C1  961  15.642   4.916  10.757  0.2639  0.1652  0.1901
   61loPI    C2  962  15.662   4.565  10.948 -0.1781  0.0412  0.0212
   61loPI    C3  963  15.393   4.839  11.060  0.0902  0.2853  0.0802
   61loPI   PO4  964  15.635   4.843  10.500 -0.3595 -0.2347 -0.1439
   61loPI   GL1  965  15.666   4.707  10.115  0.0564  0.0651 -0.2620
   61loPI   GL2  966  15.981   4.489  10.204  0.1365 -0.2416  0.0859
   61loPI   C1A  967  15.550   4.852   9.797 -0.2079 -0.0998  0.0346
   61loPI   C2A  968  15.443   4.974   9.600 -0.1486 -0.0959 -0.1357
   61loPI   C3A  969  15.368   4.888   9.217  0.4131 -0.1924 -0.0800
   61loPI   C4A  970  15.370   4.905   8.672  0.0477 -0.0893  0.0867
   61loPI   C5A  971  15.335   5.018   8.236 -0.2175  0.1357 -0.1270
   61loPI   C6A  972  15.168   5.426   8.148  0.1576 -0.1236 -0.2654
   61loPI   C1B  973  15.957   4.499   9.762  0.1473 -0.0054 -0.1482
   61loPI   C2B  974  15.678   4.446   9.467  0.3418 -0.0993 -0.1697
   61loPI   C3B  975  15.509   4.505   9.013 -0.2773 -0.0757  0.1220
   61loPI   C4B  976  15.586   4.472   8.567  0.1656 -0.1415  0.0074
   62loPI    C1  977  12.953   8.494  10.875  0.0313  0.0103  0.2129
   62loPI    C2  978  13.283   8.600  11.075  0.1021 -0.2739  0.2505
   62loPI    C3  979  12.964   8.841  11.074  0.2815 -0.0327  0.2774
   62loPI   PO4  980  13.030   8.419  10.631 -0.2240 -0.2210  0.0379
   62loPI   GL1  981  13.026   8.279  10.197  0.0762 -0.1567 -0.0760
   62loPI   GL2  982  12.662   8.263  10.272 -0.0977  0.3604  0.0821
   62loPI   C1A  983  12.965   8.330   9.714 -0.1221  0.1182  0.0815
   62loPI   C2A  984  12.984   8.299   9.258  0.0469  0.3883 -0.1880
   62loPI   C3A  985  13.000   8.243   8.821 -0.0593 -0.1492  0.0297
   62loPI   C4A  986  12.902   8.192   8.365 -0.3020 -0.1361 -0.0514
   62loPI   C5A  987  12.724   8.328   8.016  0.2825  0.0120 -0.0721
   62loPI   C6A  988  12.745   8.527   7.555  0.0777 -0.0672  0.0105
   62loPI   C1B  989  12.396   8.272   9.843 -0.0807  0.0123 -0.1942
   62loPI   C2B  990  12.416   8.271   9.430  0.0703  0.2858 -0.0541
   62loPI   C3B  991  12.505   8.222   9.075  0.2240 -0.2771  0.1168
   62loPI   C4B  992  12.420   8.256   8.737 -0.1195 -0.1323 -0.3311
   63loPI    C1  993   7.532  16.167  10.872 -0.0794 -0.1660 -0.0265
   63loPI    C2  994   7.730  16.074  11.206  0.0215  0.0496 -0.0243
   63loPI    C3  995   7.645  16.456  11.124 -0.1192 -0.0140 -0.1804
   63loPI   PO4  996   7.614  16.086  10.585 -0.1141 -0.0186 -0.1215
   63loPI   GL1  997   7.547  16.203  10.176 -0.0478  0.0747  0.3458
   63loPI   GL2  998   7.288  15.934  10.131  0.4309 -0.0719  0.3021
   63loPI   C1A  999   7.417  16.365   9.835  0.0265 -0.2020 -0.1694
   63loPI   C2A 1000   7.619  16.456   9.428  0.0102 -0.3329  0.3959
   63loPI   C3A 1001   7.650  16.290   8.990 -0.3061 -0.6088  0.2701
   63loPI   C4A 1002   7.670  16.229   8.544 -0.1130  0.3559 -0.2731
   63loPI   C5A 1003   7.485  16.042   8.250  0.1944  0.2405 -0.0769
   63loPI   C6A 1004   7.544  15.752   7.948 -0.0317 -0.0834  0.1197
   63loPI   C1B 1005   7.361  15.960   9.572 -0.1852 -0.0040  0.1475
   63loPI   C2B 1006   7.375  15.839   9.138 -0.2186 -0.0747 -0.1609
   63loPI   C3B 1007   7.490  15.834   8.823  0.1353  0.0295  0.2082
   63loPI   C4B 1008   7.613  15.634   8.439 -0.6143  0.0238  0.0572
   64loPI    C1 1009   8.329  12.372  10.876 -0.1580 -0.0241 -0.1081
   64loPI    C2 1010   8.189  12.071  11.098 -0.0218 -0.1108 -0.1386
   64loPI    C3 1011   8.159  12.448  11.229  0.0116 -0.1571  0.0037
   64loPI   PO4 1012   8.540  12.298  10.750 -0.0636 -0.3009 -0.3795
   64loPI   GL1 1013   8.795  12.238  10.347  0.1107  0.0524  0.1098
   64loPI   GL2 1014   8.943  12.499  10.525 -0.0819  0.0545 -0.0607
   64loPI   C1A 1015   8.877  12.275   9.817 -0.1669 -0.3676  0.2085
   64loPI   C2A 1016   8.848  12.368   9.365 -0.1170  0.2004 -0.0631
   64loPI   C3A 1017   8.916  12.375   8.972  0.0324 -0.1675  0.0771
   64loPI   C4A 1018   8.836  12.285   8.493 -0.0557 -0.1979 -0.1454
   64loPI   C5A 1019   8.999  12.471   8.086 -0.1623 -0.1215 -0.1624
   64loPI   C6A 1020   9.373  12.815   8.089  0.0351  0.5131  0.1523
   64loPI   C1B 1021   9.275  12.425  10.352  0.0276 -0.1775 -0.0765
   64loPI   C2B 1022   9.337  12.316   9.917  0.0445 -0.1950  0.3758
   64loPI   C3B 1023   9.341  12.338   9.487  0.2942 -0.0056 -0.2083
   64loPI   C4B 1024   9.370  12.358   9.126 -0.1251 -0.0947 -0.1405
   65loPI    C1 1025   5.394   1.494  10.714 -0.0754 -0.0246 -0.2203
   65loPI    C2 1026   5.147   1.253  10.917  0.1168  0.0262  0.0805
   65loPI    C3 1027   5.112   1.650  10.950 -0.0242  0.0405 -0.2022
   65loPI   PO4 1028   5.385   1.429  10.435 -0.3044 -0.1693 -0.2609
   65loPI   GL1 1029   5.161   1.677  10.168  0.3300  0.0544 -0.1303
   65loPI   GL2 1030   5.347   1.918   9.975  0.1686 -0.0996 -0.1026
   65loPI   C1A 1031   5.158   1.496   9.725 -0.0296 -0.1085 -0.0365
   65loPI   C2A 1032   5.106   1.476   9.252 -0.2157 -0.3025 -0.1587
   65loPI   C3A 1033   5.215   1.539   8.836 -0.2366  0.0257  0.2106
   65loPI   C4A 1034   5.155   1.652   8.495 -0.2066 -0.1509 -0.0170
   65loPI   C5A 1035   5.081   1.572   8.102  0.1532 -0.1554 -0.1424
   65loPI   C6A 1036   4.724   1.388   7.912  0.1829  0.3739 -0.0483
   65loPI   C1B 1037   5.347   1.900   9.479  0.1239  0.5282 -0.0509
   65loPI   C2B 1038   5.306   1.999   9.025  0.1534 -0.0454 -0.1109
   65loPI   C3B 1039   5.432   2.094   8.567  0.2233 -0.0707 -0.0723
   65loPI   C4B 1040   5.509   1.939   8.238 -0.2484  0.1327  0.1463
   66loPI    C1 1041   6.202   3.723  10.914  0.1954 -0.2521  0.4694
   66loPI    C2 1042   5.854   3.700  10.719  0.4267 -0.1964  0.0373
   66loPI    C3 1043   5.862   3.824  11.099  0.0182  0.1927 -0.0712
   66loPI   PO4 1044   6.321   3.550  10.781 -0.2899  0.3224  0.0847
   66loPI   GL1 1045   6.506   3.428  10.292  0.1388  0.2109  0.2695
   66loPI   GL2 1046   6.130   3.300  10.368 -0.0007  0.1260  0.2589
   66loPI   C1A 1047   6.491   3.345   9.791  0.0360  0.1407  0.2026
   66loPI   C2A 1048   6.521   3.377   9.319  0.3029  0.0857  0.0939
   66loPI   C3A 1049   6.449   3.510   8.868 -0.0485  0.2891 -0.1166
   66loPI   C4A 1050   6.533   3.580   8.486 -0.2309  0.0118 -0.1765
   66loPI   C5A 1051   6.905   3.409   8.259 -0.1128  0.3553 -0.0568
   66loPI   C6A 1052   7.250   3.333   8.204  0.1548  0.0255  0.0507
   66loPI   C1B 1053   5.941   3.322   9.968 -0.1407 -0.1195  0.1945
   66loPI   C2B 1054   5.989   3.342   9.465 -0.0754 -0.2114 -0.0419
   66loPI   C3B 1055   6.015   3.351   9.107  0.1832  0.2077  0.2633
   66loPI   C4B 1056   6.076   3.320   8.571 -0.3393  0.1686 -0.2109
   67loPI    C1 1057  18.128   0.940  10.402 -0.1595 -0.3186 -0.0880
   67loPI    C2 1058  18.066   0.566  10.527 -0.0494 -0.2609  0.1442
   67loPI    C3 1059  18.004   0.873  10.776  0.3683 -0.1556  0.1245
   67loPI   PO4 1060  18.050   0.956  10.154 -0.3844 -0.0550 -0.2426
   67loPI   GL1 1061  18.293   0.914   9.693  0.4436 -0.1425 -0.0950
   67loPI   GL2 1062  18.291   0.543   9.604 -0.1366 -0.1615  0.2643
   67loPI   C1A 1063  18.622   0.920   9.345 -0.0397  0.1118 -0.0109
   67loPI   C2A 1064  18.605   0.981   8.956 -0.0149 -0.0405  0.1221
   67loPI   C3A 1065  18.700   0.981   8.546  0.2452  0.0528  0.0521
   67loPI   C4A 1066  18.664   1.025   8.144 -0.0834 -0.0583  0.2567
   67loPI   C5A 1067  18.717   1.004   7.751  0.0384 -0.0737 -0.0188
   67loPI   C6A 1068  19.045   1.107   7.418 -0.0544  0.0216 -0.2772
   67loPI   C1B 1069  18.288   0.551   9.224 -0.1615 -0.4577 -0.0743
   67loPI   C2B 1070  18.451   0.525   8.777  0.0664  0.1229  0.1321
   67loPI   C3B 1071  18.619   0.470   8.338 -0.0421 -0.0408  0.0654
   67loPI   C4B 1072  18.658   0.478   7.885  0.3436  0.2907 -0.0778
   68loPI    C1 1073   0.650   9.558  10.884  0.0042 -0.0699 -0.0292
   68loPI    C2 1074   0.261   9.491  10.949 -0.0675  0.3853  0.0477
   68loPI    C3 1075   0.533   9.358  11.210 -0.1580 -0.0265 -0.0600
   68loPI   PO4 1076   0.904   9.499  10.686 -0.2783 -0.2183 -0.1759
   68loPI   GL1 1077   0.795   9.706  10.255 -0.0404  0.0619  0.1457
   68loPI   GL2 1078   0.949   9.943  10.222 -0.0079 -0.2461  0.1047
   68loPI   C1A 1079   0.706   9.442   9.837 -0.3070  0.0855  0.0185
   68loPI   C2A 1080   0.796   9.499   9.424 -0.0092  0.3288  0.1360
   68loPI   C3A 1081   0.701   9.484   9.046  0.0089 -0.1513  0.0792
   68loPI   C4A 1082   0.612   9.454   8.608 -0.1171 -0.3412  0.0565
   68loPI   C5A 1083   0.603   9.465   8.171  0.3027 -0.1664  0.1417
   68loPI   C6A 1084   0.186   9.727   8.038 -0.0004  0.2801 -0.1914
   68loPI   C1B 1085   0.949   9.903   9.810 -0.1241  0.2701 -0.0144
   68loPI   C2B 1086   1.056   9.953   9.408  0.3000  0.2954 -0.0201
   68loPI   C3B 1087   0.977   9.889   8.847  0.1036  0.0572  0.0692
   68loPI   C4B 1088   0.838   9.916   8.437 -0.4375 -0.2866 -0.2691
   69loPI    C1 1089   2.829   5.868  10.458  0.0036 -0.0992 -0.1300
   69loPI    C2 1090   2.774   5.654  10.792 -0.3889  0.1552 -0.0246
   69loPI    C3 1091   3.105   5.875  10.748 -0.3036  0.0678  0.1665
   69loPI   PO4 1092   2.838   5.666  10.314 -0.0635 -0.2759  0.0564
   69loPI   GL1 1093   2.755   5.685   9.942  0.1375  0.1026  0.0550
   69loPI   GL2 1094   2.475   5.592   9.866 -0.0771 -0.0348 -0.0793
   69loPI   C1A 1095   2.922   5.734   9.598  0.4013 -0.1068 -0.2792
   69loPI   C2A 1096   3.074   5.729   9.235 -0.1840  0.2363  0.3859
   69loPI   C3A 1097   3.120   5.800   8.811  0.0973 -0.1785 -0.1125
   69loPI   C4A 1098   3.086   5.708   8.338  0.0261  0.0243 -0.0317
   69loPI   C5A 1099   3.042   5.384   8.011  0.3055  0.0860  0.0703
   69loPI   C6A 1100   2.647   5.202   7.782 -0.0481  0.2112 -0.2707
   69loPI   C1B 1101   2.460   5.737   9.354 -0.0687 -0.1107  0.1744
   69loPI   C2B 1102   2.595   5.726   9.001  0.2330 -0.0482 -0.1857
   69loPI   C3B 1103   2.625   5.646   8.578 -0.1065  0.2892 -0.0217
   69loPI   C4B 1104   2.639   5.738   8.098 -0.0634 -0.0849 -0.0158
   70loPI    C1 1105   0.461  13.779  10.191  0.0820  0.0047 -0.0164
   70loPI    C2 1106   0.225  13.889  10.495  0.0630  0.0268 -0.0391
   70loPI    C3 1107   0.224  14.099  10.154 -0.3165 -0.3073 -0.2526
   70loPI   PO4 1108   0.396  13.570  10.127 -0.2154 -0.1665 -0.1447
   70loPI   GL1 1109   0.503  13.165   9.939  0.1413  0.0780 -0.0061
   70loPI   GL2 1110   0.329  12.900   9.889  0.0800  0.0011 -0.2086
   70loPI   C1A 1111   0.713  13.244   9.541  0.0870  0.0156  0.1972
   70loPI   C2A 1112   0.736  13.115   9.102 -0.2282 -0.2660  0.2851
   70loPI   C3A 1113   0.729  13.208   8.644 -0.1759  0.0861  0.2097
   70loPI   C4A 1114   0.986  13.253   8.263  0.0555 -0.0521  0.0616
   70loPI   C5A 1115   1.164  13.239   7.946 -0.1070  0.3330  0.1411
   70loPI   C6A 1116   1.109  13.161   7.461 -0.1004  0.0146  0.1597
   70loPI   C1B 1117   0.429  12.792   9.395  0.1039  0.0779  0.0774
   70loPI   C2B 1118   0.410  12.640   9.034  0.3295 -0.1479 -0.1661
   70loPI   C3B 1119   0.598  12.741   8.699  0.4841  0.0347  0.2585
   70loPI   C4B 1120   0.570  12.898   8.276 -0.3177  0.0345  0.1352
   71loPI    C1 1121  16.057   0.091  10.698  0.0026  0.0833  0.0438
   71loPI    C2 1122  15.852  -0.008  11.028 -0.1656  0.0553 -0.0678
   71loPI    C3 1123  16.164   0.241  11.053  0.0841 -0.2723  0.1744
   71loPI   PO4 1124  15.972  -0.076  10.492 -0.2761 -0.2237  0.1295
   71loPI   GL1 1125  15.788   0.161  10.224  0.0808 -0.2246 -0.2166
   71loPI   GL2 1126  15.844   0.459  10.372  0.2698 -0.1598  0.3168
   71loPI   C1A 1127  15.715  -0.023   9.798  0.2497 -0.1933  0.2916
   71loPI   C2A 1128  15.776   0.011   9.413  0.0237  0.0150  0.0950
   71loPI   C3A 1129  15.758  -0.095   9.105  0.0910  0.0426  0.2110
   71loPI   C4A 1130  15.817  -0.031   8.632  0.0002 -0.0184  0.2070
   71loPI   C5A 1131  16.013   0.153   8.222  0.0735 -0.1870 -0.1272
   71loPI   C6A 1132  16.025   0.017   7.882 -0.1461 -0.0715  0.4075
   71loPI   C1B 1133  15.918   0.431   9.808 -0.3229 -0.3070  0.0747
   71loPI   C2B 1134  15.891   0.481   9.420 -0.4513 -0.2241  0.0065
   71loPI   C3B 1135  15.999   0.481   9.005 -0.1609 -0.0141  0.0370
   71loPI   C4B 1136  16.016   0.468   8.653 -0.3750  0.3136  0.0526
   72loPI    C1 1137  10.881   7.284  11.005 -0.3870  0.1381 -0.3855
   72loPI    C2 1138  11.049   7.645  11.035 -0.2178  0.0554 -0.3242
   72loPI    C3 1139  10.800   7.517  11.320 -0.0381  0.0021 -0.1885
   72loPI   PO4 1140  11.047   7.069  10.862 -0.1273  0.1996  0.2263
   72loPI   GL1 1141  11.124   7.005  10.480 -0.2043  0.3050  0.3784
   72loPI   GL2 1142  10.757   7.075  10.478 -0.1124 -0.0649  0.0389
   72loPI   C1A 1143  11.119   7.045   9.990 -0.1529  0.2518 -0.0788
   72loPI   C2A 1144  11.008   7.151   9.695  0.1260 -0.1884 -0.1712
   72loPI   C3A 1145  11.002   7.172   9.192  0.3340 -0.1283 -0.0817
   72loPI   C4A 1146  11.087   6.965   8.732  0.2220  0.2094 -0.0535
   72loPI   C5A 1147  10.989   7.074   8.269  0.0218  0.0557  0.2004
   72loPI   C6A 1148  10.873   6.896   7.854 -0.0297 -0.2026  0.3005
   72loPI   C1B 1149  10.534   7.036   9.987  0.1172 -0.2681 -0.2259
   72loPI   C2B 1150  10.549   7.013   9.547  0.0555 -0.0535  0.1468
   72loPI   C3B 1151  10.487   7.136   9.094  0.1069  0.2320 -0.0614
   72loPI   C4B 1152  10.591   6.904   8.701 -0.2101 -0.0635  0.2163
   73loPI    C1 1153   8.761  17.849  10.709 -0.2471  0.2531 -0.1992
   73loPI    C2 1154   8.714  17.454  10.749  0.2593  0.2078  0.0229
   73loPI    C3 1155   8.522  17.704  10.996 -0.1280  0.1104 -0.1711
   73loPI   PO4 1156   9.073  17.762  10.578  0.1186 -0.3944 -0.1762
   73loPI   GL1 1157   9.312  17.796  10.310 -0.2930  0.3200  0.2464
   73loPI   GL2 1158   9.400  17.462  10.362  0.0978  0.2583  0.2781
   73loPI   C1A 1159   9.380  17.827   9.938  0.0057 -0.1639 -0.0728
   73loPI   C2A 1160   9.350  17.948   9.509 -0.1100  0.0776  0.1918
   73loPI   C3A 1161   9.319  17.882   9.036 -0.0613 -0.1163  0.1328
   73loPI   C4A 1162   9.413  17.808   8.615 -0.0397 -0.0264 -0.0193
   73loPI   C5A 1163   9.385  17.506   8.293 -0.1284 -0.1182  0.1203
   73loPI   C6A 1164   9.707  17.206   8.151 -0.0019  0.2952  0.1914
   73loPI   C1B 1165   9.641  17.429  10.045 -0.0502  0.1214 -0.2950
   73loPI   C2B 1166   9.616  17.376   9.652 -0.1657 -0.1318  0.0447
   73loPI   C3B 1167   9.626  17.412   9.165  0.1172  0.0678  0.3916
   73loPI   C4B 1168   9.703  17.395   8.823 -0.2869  0.0217 -0.4627
   74loPI    C1 1169   4.260  14.042  10.804  0.0764  0.1156  0.1441
   74loPI    C2 1170   3.911  13.947  10.975  0.0371  0.0717  0.0407
   74loPI    C3 1171   4.101  14.283  11.081  0.0088  0.0496  0.1631
   74loPI   PO4 1172   4.111  14.002  10.502  0.0658 -0.2915 -0.3942
   74loPI   GL1 1173   4.484  13.971  10.096  0.1296  0.0884  0.0006
   74loPI   GL2 1174   4.574  14.244  10.050 -0.4771  0.0720 -0.0069
   74loPI   C1A 1175   4.496  13.778   9.683 -0.1968  0.1419  0.3588
   74loPI   C2A 1176   4.416  13.812   9.283 -0.1201  0.1427 -0.1734
   74loPI   C3A 1177   4.450  13.794   8.868  0.0712  0.0441 -0.0057
   74loPI   C4A 1178   4.523  13.595   8.380  0.2287  0.0635  0.3827
   74loPI   C5A 1179   4.674  13.560   8.007 -0.1751 -0.2138  0.0142
   74loPI   C6A 1180   4.587  13.226   7.807  0.0658  0.3026  0.0912
   74loPI   C1B 1181   4.661  14.274   9.635  0.0902 -0.3496 -0.0690
   74loPI   C2B 1182   4.642  14.269   9.153  0.1441  0.0220  0.0278
   74loPI   C3B 1183   4.824  14.138   8.664  0.0084  0.2994  0.2792
   74loPI   C4B 1184   4.812  13.969   8.296  0.3940  0.1867 -0.1930
   75loPI    C1 1185   2.526   4.497  10.650 -0.1079 -0.0774  0.0039
   75loPI    C2 1186   2.146   4.532  10.771 -0.0976  0.1312 -0.0199
   75loPI    C3 1187   2.430   4.764  10.932 -0.0267  0.1705 -0.1991
   75loPI   PO4 1188   2.555   4.475  10.411 -0.0493  0.2668 -0.1014
   75loPI   GL1 1189   2.732   4.266  10.147 -0.0939 -0.1858  0.0209
   75loPI   GL2 1190   2.606   3.917  10.312 -0.1862 -0.1720  0.0201
   75loPI   C1A 1191   2.898   4.294   9.739 -0.3720 -0.3221  0.0211
   75loPI   C2A 1192   2.999   4.401   9.363 -0.0734  0.1725  0.1479
   75loPI   C3A 1193   2.951   4.429   8.932  0.0272  0.1158 -0.4780
   75loPI   C4A 1194   2.940   4.411   8.369 -0.0176 -0.0959 -0.0541
   75loPI   C5A 1195   2.832   4.130   8.001  0.2311 -0.1332 -0.2694
   75loPI   C6A 1196   2.796   3.896   7.643 -0.0089  0.0493  0.0327
   75loPI   C1B 1197   2.609   3.849   9.844  0.2460  0.1643 -0.2560
   75loPI   C2B 1198   2.743   3.900   9.463 -0.0701 -0.2463 -0.2523
   75loPI   C3B 1199   2.789   3.979   8.951  0.3020 -0.0176 -0.2771
   75loPI   C4B 1200   2.783   3.916   8.491  0.0455  0.0840  0.2936
   76loPI    C1 1201   9.174   5.399  10.960  0.1407 -0.2055 -0.0700
   76loPI    C2 1202   9.416   5.583  11.220  0.0355 -0.0658 -0.0695
   76loPI    C3 1203   9.110   5.363  11.353  0.0530 -0.0929 -0.0735
   76loPI   PO4 1204   9.108   5.574  10.790 -0.2116 -0.1242  0.0137
   76loPI   GL1 1205   9.260   5.519  10.333 -0.0474  0.1353 -0.1513
   76loPI   GL2 1206   9.137   5.291  10.184  0.0938 -0.2619  0.0123
   76loPI   C1A 1207   9.289   5.677   9.908  0.1015  0.1665  0.3440
   76loPI   C2A 1208   9.397   5.587   9.485 -0.3161  0.0012  0.2634
   76loPI   C3A 1209   9.395   5.462   8.941 -0.0874 -0.1002 -0.1018
   76loPI   C4A 1210   9.471   5.453   8.445  0.0053 -0.1442 -0.0173
   76loPI   C5A 1211   9.524   5.763   8.104 -0.0334 -0.0168  0.3209
   76loPI   C6A 1212   9.748   6.073   7.994  0.0190  0.0472  0.3161
   76loPI   C1B 1213   9.148   5.089   9.765  0.0266  0.1912 -0.2577
   76loPI   C2B 1214   9.278   5.067   9.350  0.0729 -0.1142 -0.0510
   76loPI   C3B 1215   9.217   4.988   9.005 -0.2808 -0.2360 -0.0977
   76loPI   C4B 1216   9.263   4.999   8.588 -0.1443  0.1020  0.0259
   77loPI    C1 1217   3.021   2.493  10.985  0.1376  0.2866 -0.1584
   77loPI    C2 1218   2.773   2.714  11.207 -0.1225 -0.0017 -0.1541
   77loPI    C3 1219   2.642   2.375  11.040  0.2092 -0.0420 -0.3402
   77loPI   PO4 1220   3.056   2.682  10.704 -0.0225 -0.0867 -0.1473
   77loPI   GL1 1221   3.283   2.633  10.275  0.0761  0.0770  0.1736
   77loPI   GL2 1222   3.008   2.569  10.172  0.0307  0.0410 -0.2139
   77loPI   C1A 1223   3.461   2.634   9.927 -0.0366 -0.0820  0.0178
   77loPI   C2A 1224   3.636   2.703   9.553  0.2895  0.2224  0.2836
   77loPI   C3A 1225   3.729   2.742   9.094  0.0802  0.3494 -0.1018
   77loPI   C4A 1226   3.725   2.766   8.676 -0.0768  0.0109  0.0488
   77loPI   C5A 1227   3.614   2.717   8.191 -0.2013 -0.0797  0.0336
   77loPI   C6A 1228   3.546   2.909   7.776 -0.2813  0.1198 -0.2755
   77loPI   C1B 1229   2.979   2.545   9.754 -0.2236 -0.2007  0.1730
   77loPI   C2B 1230   3.088   2.591   9.302  0.1116  0.0718  0.0028
   77loPI   C3B 1231   3.150   2.709   8.889 -0.0472 -0.0383 -0.0685
   77loPI   C4B 1232   3.178   2.638   8.508 -0.1583 -0.2687  0.1227
   78loPI    C1 1233   4.718  15.548  10.741 -0.0694 -0.0594 -0.1282
   78loPI    C2 1234   4.656  15.854  10.991 -0.1648 -0.0308 -0.1862
   78loPI    C3 1235   4.699  15.484  11.135 -0.1032  0.0020 -0.1196
   78loPI   PO4 1236   4.971  15.592  10.503 -0.0207  0.0099 -0.2481
   78loPI   GL1 1237   5.138  15.485  10.097  0.2683  0.0087  0.2192
   78loPI   GL2 1238   5.147  15.144   9.893 -0.1270 -0.2258 -0.1361
   78loPI   C1A 1239   5.224  15.637   9.753 -0.0530  0.3206 -0.0310
   78loPI   C2A 1240   5.354  15.683   9.246 -0.4008 -0.4312 -0.0349
   78loPI   C3A 1241   5.438  15.602   8.798  0.0495 -0.0512 -0.0844
   78loPI   C4A 1242   5.511  15.500   8.368  0.4212  0.2562  0.1883
   78loPI   C5A 1243   5.606  15.280   7.993 -0.4839  0.2048  0.0491
   78loPI   C6A 1244   5.892  14.915   7.933 -0.2360  0.1348 -0.0336
   78loPI   C1B 1245   5.274  15.195   9.485 -0.2069 -0.0321  0.3331
   78loPI   C2B 1246   5.294  15.196   9.096 -0.1720  0.0229 -0.2314
   78loPI   C3B 1247   5.305  15.106   8.707  0.1125  0.1724  0.1112
   78loPI   C4B 1248   5.212  15.133   8.270  0.1796 -0.0222  0.0888
   79loPI    C1 1249   7.006  14.340  10.730 -0.0762 -0.0151 -0.0786
   79loPI    C2 1250   6.755  14.561  10.949  0.1945  0.1604  0.0597
   79loPI    C3 1251   7.122  14.480  11.086  0.1501 -0.2559 -0.0544
   79loPI   PO4 1252   7.042  14.372  10.554  0.2592  0.3249 -0.1222
   79loPI   GL1 1253   7.397  14.500  10.222 -0.0318  0.0252  0.0347
   79loPI   GL2 1254   7.658  14.437  10.096  0.1773  0.0230 -0.0653
   79loPI   C1A 1255   7.335  14.549   9.757 -0.0556  0.0773  0.2947
   79loPI   C2A 1256   7.302  14.477   9.359  0.4745 -0.2468  0.0037
   79loPI   C3A 1257   7.377  14.422   8.953  0.0015 -0.0830 -0.2266
   79loPI   C4A 1258   7.364  14.288   8.657 -0.0764 -0.0112 -0.0479
   79loPI   C5A 1259   7.408  14.375   8.209  0.0317 -0.0825 -0.3327
   79loPI   C6A 1260   7.262  14.004   7.951 -0.2010 -0.2586  0.1041
   79loPI   C1B 1261   7.824  14.609   9.753  0.1924  0.0472  0.1690
   79loPI   C2B 1262   7.859  14.454   9.296  0.0332  0.0027  0.1396
   79loPI   C3B 1263   7.892  14.393   8.853 -0.2101 -0.0138  0.3440
   79loPI   C4B 1264   7.944  14.232   8.386  0.1246 -0.2438 -0.0192
   80loPI    C1 1265   0.367   8.270  10.636 -0.2079  0.0860 -0.0082
   80loPI    C2 1266   0.552   7.923  10.714  0.0322  0.2458  0.1474
   80loPI    C3 1267   0.187   7.994  10.863 -0.1863 -0.0941 -0.2063
   80loPI   PO4 1268   0.333   8.246  10.426 -0.0747  0.1303 -0.2730
   80loPI   GL1 1269   0.354   8.429  10.069  0.0496 -0.1331 -0.0914
   80loPI   GL2 1270   0.759   8.315  10.165 -0.1611 -0.1827  0.1134
   80loPI   C1A 1271   0.336   8.599   9.663  0.0961 -0.1714  0.0262
   80loPI   C2A 1272   0.317   8.590   9.180  0.3652  0.2194  0.2680
   80loPI   C3A 1273   0.292   8.528   8.750  0.0351 -0.0359  0.1303
   80loPI   C4A 1274   0.287   8.500   8.392  0.2303 -0.1274 -0.2318
   80loPI   C5A 1275   0.119   8.547   8.007 -0.2068 -0.1154 -0.1112
   80loPI   C6A 1276  -0.162   8.661   7.699  0.3194 -0.2617  0.3942
   80loPI   C1B 1277   0.658   8.194   9.767 -0.3655  0.0795  0.0303
   80loPI   C2B 1278   0.623   8.227   9.357  0.4565 -0.2538 -0.0341
   80loPI   C3B 1279   0.632   8.128   8.923 -0.0972  0.1323 -0.1182
   80loPI   C4B 1280   0.537   8.004   8.467 -0.2319 -0.0141  0.2465
   81loPI    C1 1281   0.207   4.223   9.968 -0.0667 -0.1032  0.0311
   81loPI    C2 1282   0.101   4.231  10.354 -0.0763  0.1042  0.0252
   81loPI    C3 1283   0.464   4.360  10.242 -0.1786  0.3177 -0.0665
   81loPI   PO4 1284   0.112   3.890   9.836  0.2929  0.0728  0.0976
   81loPI   GL1 1285   0.034   3.988   9.380  0.0301  0.0735  0.3655
   81loPI   GL2 1286   0.130   4.241   9.388 -0.2636  0.0480 -0.1186
   81loPI   C1A 1287   0.231   4.022   8.915  0.0055 -0.2077  0.0083
   81loPI   C2A 1288   0.220   3.990   8.408  0.0828  0.0511  0.2394
   81loPI   C3A 1289   0.264   3.818   7.964 -0.2251 -0.1507 -0.0023
   81loPI   C4A 1290   0.551   3.768   7.602 -0.0460  0.2574 -0.0153
   81loPI   C5A 1291   0.512   3.936   7.254  0.1610 -0.0579  0.0493
   81loPI   C6A 1292   0.597   4.284   7.039  0.1768  0.2160 -0.2170
   81loPI   C1B 1293   0.156   4.507   9.033  0.0691 -0.0241 -0.2507
   81loPI   C2B 1294   0.466   4.751   8.935 -0.1273  0.0102  0.1178
   81loPI   C3B 1295   0.720   4.908   8.630  0.0432 -0.0013 -0.2643
   81loPI   C4B 1296   0.549   4.971   8.238 -0.2762  0.2783 -0.5196
   82loPI    C1 1297   9.047   8.396  10.953 -0.1483  0.0726 -0.0345
   82loPI    C2 1298   8.653   8.347  10.902 -0.1878  0.0863  0.2394
   82loPI    C3 1299   8.813   8.315  11.267  0.0362  0.2837  0.1617
   82loPI   PO4 1300   9.070   8.584  10.643  0.1495  0.0400 -0.1569
   82loPI   GL1 1301   8.830   8.816  10.320  0.0152  0.1543 -0.0835
   82loPI   GL2 1302   9.120   8.788  10.176 -0.3424  0.1517  0.0988
   82loPI   C1A 1303   8.702   8.799   9.897  0.2108 -0.2570 -0.1020
   82loPI   C2A 1304   8.732   8.714   9.493  0.1129  0.1179 -0.0047
   82loPI   C3A 1305   8.692   8.688   9.074  0.1071 -0.0876 -0.0354
   82loPI   C4A 1306   8.797   8.801   8.679 -0.0809 -0.2087  0.1115
   82loPI   C5A 1307   8.723   8.503   8.380  0.0185  0.0763  0.1152
   82loPI   C6A 1308   8.402   8.110   8.195 -0.0722  0.1060 -0.0590
   82loPI   C1B 1309   9.191   8.762   9.708  0.2507  0.2060 -0.0304
   82loPI   C2B 1310   9.193   8.726   9.300  0.0702  0.1962 -0.0593
   82loPI   C3B 1311   9.321   8.696   8.759  0.5756  0.2151  0.4760
   82loPI   C4B 1312   9.393   8.565   8.414  0.2806  0.2941 -0.2560
   83loPI    C1 1313   3.641   5.741  10.513 -0.0825  0.3145 -0.0074
   83loPI    C2 1314   3.540   5.707  10.898  0.1376 -0.0151  0.0253
   83loPI    C3 1315   3.911   5.818  10.798  0.0351  0.2277 -0.0942
   83loPI   PO4 1316   3.404   5.790  10.306 -0.0455  0.2232  0.1192
   83loPI   GL1 1317   3.394   5.807   9.875  0.0664 -0.0876  0.0914
   83loPI   GL2 1318   3.247   6.111   9.869 -0.4427  0.1627  0.0167
   83loPI   C1A 1319   3.633   5.868   9.515 -0.2130  0.0685 -0.3879
   83loPI   C2A 1320   3.631   5.807   9.093  0.1943 -0.4394 -0.1483
   83loPI   C3A 1321   3.623   5.814   8.603  0.1165 -0.1845 -0.0492
   83loPI   C4A 1322   3.586   5.710   8.204 -0.0748 -0.0888 -0.1163
   83loPI   C5A 1323   3.359   5.756   7.758  0.1747 -0.1501 -0.1358
   83loPI   C6A 1324   3.073   5.519   7.507  0.0231 -0.1451  0.0019
   83loPI   C1B 1325   3.269   6.259   9.389  0.1393 -0.0369 -0.4214
   83loPI   C2B 1326   3.286   6.236   8.931 -0.0864 -0.1496  0.4245
   83loPI   C3B 1327   3.308   6.237   8.534 -0.0405 -0.2712 -0.1626
   83loPI   C4B 1328   3.244   6.125   8.054 -0.2577 -0.4048 -0.2248
   84loPI    C1 1329  13.971  12.288  11.057 -0.1796  0.1172 -0.1957
   84loPI    C2 1330  13.960  12.669  11.176 -0.2396  0.1068 -0.1677
   84loPI    C3 1331  14.184  12.404  11.375 -0.2790  0.1055 -0.1247
   84loPI   PO4 1332  14.040  12.212  10.830  0.1018 -0.0078  0.0198
   84loPI   GL1 1333  13.885  12.440  10.386 -0.1394  0.2997  0.0284
   84loPI   GL2 1334  13.758  12.648  10.235 -0.1161  0.0047 -0.1733
   84loPI   C1A 1335  14.254  12.535  10.218 -0.3043 -0.1345 -0.3233
   84loPI   C2A 1336  14.427  12.427   9.911 -0.6695  0.0793  0.0745
   84loPI   C3A 1337  14.434  12.452   9.382 -0.3270 -0.1146 -0.0715
   84loPI   C4A 1338  14.457  12.356   8.952 -0.0610 -0.0015  0.2949
   84loPI   C5A 1339  14.529  12.396   8.502  0.0725 -0.3292  0.1275
   84loPI   C6A 1340  14.233  12.246   8.160  0.2090 -0.0041  0.1652
   84loPI   C1B 1341  13.936  12.497   9.847 -0.0962 -0.1537  0.1922
   84loPI   C2B 1342  13.929  12.446   9.417  0.1083  0.0810  0.3957
   84loPI   C3B 1343  13.968  12.361   9.023 -0.0192 -0.1712 -0.2943
   84loPI   C4B 1344  13.991  12.374   8.570  0.2515  0.2433  0.1375
   85loPI    C1 1345   1.414  14.471  10.500 -0.1366 -0.0455 -0.2025
   85loPI    C2 1346   1.622  14.149  10.614 -0.0973  0.0422 -0.0232
   85loPI    C3 1347   1.225  14.155  10.655 -0.0993  0.0118 -0.0382
   85loPI   PO4 1348   1.389  14.527  10.239  0.2640  0.1535  0.0880
   85loPI   GL1 1349   1.494  14.517   9.831 -0.0729  0.0517  0.0677
   85loPI   GL2 1350   1.619  14.334   9.848 -0.5128  0.1029 -0.1923
   85loPI   C1A 1351   1.328  14.692   9.433  0.2684 -0.0447 -0.1281
   85loPI   C2A 1352   1.325  14.652   8.968 -0.2070 -0.0121 -0.0744
   85loPI   C3A 1353   1.345  14.718   8.597 -0.0395  0.0675  0.2008
   85loPI   C4A 1354   1.177  14.611   8.256 -0.3948  0.2445  0.0789
   85loPI   C5A 1355   0.912  14.309   8.065  0.2257  0.1978  0.3767
   85loPI   C6A 1356   0.601  14.532   7.827  0.1472  0.0544  0.0087
   85loPI   C1B 1357   1.614  14.217   9.472 -0.0522 -0.1175 -0.3467
   85loPI   C2B 1358   1.703  14.181   8.987  0.0268  0.1541  0.0873
   85loPI   C3B 1359   1.610  14.244   8.599 -0.0892  0.0342  0.0925
   85loPI   C4B 1360   1.361  13.995   8.292 -0.3728 -0.1815  0.0591
   86loPI    C1 1361  11.491   3.167  11.131 -0.0146  0.0735 -0.2857
   86loPI    C2 1362  11.164   2.939  11.165  0.0912 -0.0346  0.0495
   86loPI    C3 1363  11.166   3.309  11.316  0.0545  0.0442 -0.1402
   86loPI   PO4 1364  11.564   3.224  10.819  0.0336  0.1056 -0.0951
   86loPI   GL1 1365  11.220   3.260  10.552 -0.0746 -0.1677  0.2421
   86loPI   GL2 1366  10.997   3.123  10.479 -0.1617 -0.2358  0.0708
   86loPI   C1A 1367  11.413   3.154  10.144 -0.2612  0.2362  0.0389
   86loPI   C2A 1368  11.299   3.119   9.733 -0.1858  0.0366 -0.2183
   86loPI   C3A 1369  11.212   2.957   9.304 -0.1053 -0.0126 -0.2130
   86loPI   C4A 1370  11.297   2.826   8.905  0.3448  0.0534 -0.0975
   86loPI   C5A 1371  11.259   2.965   8.518 -0.1862  0.0718  0.1839
   86loPI   C6A 1372  10.907   3.054   8.248 -0.2586  0.1140 -0.3928
   86loPI   C1B 1373  10.820   3.092  10.021 -0.2957  0.3121 -0.0764
   86loPI   C2B 1374  10.753   2.980   9.624 -0.0887 -0.1020  0.1564
   86loPI   C3B 1375  10.712   2.929   9.166  0.0252  0.0549 -0.0417
   86loPI   C4B 1376  10.767   2.923   8.739  0.0973  0.5561  0.0426
   87loPI    C1 1377  16.843   6.308  10.577  0.2023 -0.1340 -0.0158
   87loPI    C2 1378  16.999   6.135  10.902  0.0819 -0.0969  0.0628
   87loPI    C3 1379  16.607   6.211  10.885  0.1715  0.4228  0.1472
   87loPI   PO4 1380  16.923   6.199  10.414 -0.1482  0.0928 -0.1063
   87loPI   GL1 1381  16.788   6.196   9.968  0.1229  0.0031  0.0630
   87loPI   GL2 1382  16.603   6.405   9.776  0.1159 -0.1030 -0.0018
   87loPI   C1A 1383  16.475   5.902   9.629 -0.0956 -0.0290 -0.2702
   87loPI   C2A 1384  16.339   5.870   9.194  0.0008  0.0080 -0.1447
   87loPI   C3A 1385  16.439   5.953   8.745  0.2109  0.0732 -0.1605
   87loPI   C4A 1386  16.438   5.980   8.259 -0.3351 -0.1885  0.3841
   87loPI   C5A 1387  16.172   5.988   7.849 -0.0903  0.0274  0.1678
   87loPI   C6A 1388  15.836   5.791   7.813  0.4746 -0.2417  0.2902
   87loPI   C1B 1389  16.640   6.451   9.414 -0.2315  0.0740 -0.0990
   87loPI   C2B 1390  16.529   6.325   9.143 -0.0169 -0.1089  0.1115
   87loPI   C3B 1391  16.624   6.504   8.757 -0.2825 -0.0251 -0.0340
   87loPI   C4B 1392  16.582   6.440   8.358  0.0446 -0.0326 -0.4657
   88loPI    C1 1393   6.945  12.137  11.121 -0.1285 -0.1100 -0.1389
   88loPI    C2 1394   6.995  12.323  11.472 -0.0583 -0.1929 -0.1048
   88loPI    C3 1395   6.627  12.270  11.324 -0.0914 -0.2010 -0.0202
   88loPI   PO4 1396   7.193  12.239  10.995 -0.2263  0.2134 -0.0147
   88loPI   GL1 1397   7.390  12.095  10.641  0.0884  0.0878 -0.3234
   88loPI   GL2 1398   7.441  12.285  10.343 -0.1384  0.3069 -0.0244
   88loPI   C1A 1399   7.628  11.795  10.358  0.2088 -0.0884  0.2444
   88loPI   C2A 1400   7.656  11.684   9.905 -0.0604  0.0634  0.1275
   88loPI   C3A 1401   7.647  11.733   9.410 -0.0940  0.2536  0.2685
   88loPI   C4A 1402   7.589  11.749   8.954 -0.0005  0.2150  0.0756
   88loPI   C5A 1403   7.728  11.628   8.490  0.2261 -0.0591 -0.0498
   88loPI   C6A 1404   8.187  11.613   8.309  0.3355 -0.0101 -0.0466
   88loPI   C1B 1405   7.336  12.130  10.077 -0.1521  0.1660  0.0201
   88loPI   C2B 1406   7.366  12.046   9.694 -0.0027  0.1670 -0.3724
   88loPI   C3B 1407   7.363  12.085   9.266 -0.0880 -0.1024 -0.4389
   88loPI   C4B 1408   7.365  12.145   8.803  0.0273 -0.1007 -0.1959
   89loPI    C1 1409   1.654  16.807  10.294  0.2066 -0.2061  0.1839
   89loPI    C2 1410   1.553  17.137  10.495 -0.1212 -0.0097 -0.2850
   89loPI    C3 1411   1.328  16.808  10.526  0.0273 -0.0930 -0.0640
   89loPI   PO4 1412   1.764  16.918  10.132  0.0501 -0.0727  0.3210
   89loPI   GL1 1413   1.643  17.010   9.792  0.3916 -0.2402  0.0784
   89loPI   GL2 1414   1.464  17.259   9.661 -0.3940  0.1902 -0.0853
   89loPI   C1A 1415   1.521  16.843   9.406  0.0253  0.0488 -0.0172
   89loPI   C2A 1416   1.418  16.978   8.971  0.0444 -0.0288 -0.0027
   89loPI   C3A 1417   1.459  16.999   8.576  0.2717 -0.2936 -0.1606
   89loPI   C4A 1418   1.647  17.073   8.130 -0.0691  0.0880 -0.1369
   89loPI   C5A 1419   1.781  16.949   7.691  0.3831 -0.2227  0.0406
   89loPI   C6A 1420   1.595  17.097   7.402  0.1547 -0.0550  0.0029
   89loPI   C1B 1421   1.676  17.369   9.259 -0.0927 -0.2038  0.3146
   89loPI   C2B 1422   1.722  17.535   8.883  0.3981 -0.3925 -0.1018
   89loPI   C3B 1423   1.672  17.508   8.618 -0.0864  0.0508 -0.1445
   89loPI   C4B 1424   1.806  17.570   8.140  0.3686  0.0866 -0.2227
   90loPI    C1 1425  16.261  16.953  10.521  0.2172  0.2090  0.0179
   90loPI    C2 1426  16.356  17.065  10.894  0.0599  0.0167  0.1177
   90loPI    C3 1427  16.503  16.724  10.744  0.0467  0.0458  0.0381
   90loPI   PO4 1428  16.240  17.149  10.388  0.1439  0.1349 -0.0540
   90loPI   GL1 1429  16.015  17.187  10.053 -0.0094  0.1629 -0.0159
   90loPI   GL2 1430  16.170  16.897   9.952 -0.0043  0.0569 -0.3930
   90loPI   C1A 1431  15.959  17.287   9.661 -0.1068 -0.1230  0.0821
   90loPI   C2A 1432  15.874  17.341   9.136 -0.1492 -0.0599  0.2041
   90loPI   C3A 1433  15.870  17.308   8.745 -0.0714  0.1330  0.0339
   90loPI   C4A 1434  15.823  17.410   8.323  0.0836  0.1746 -0.0254
   90loPI   C5A 1435  16.200  17.553   8.027  0.1721 -0.0305 -0.0062
   90loPI   C6A 1436  16.465  17.755   7.813 -0.0746 -0.0608  0.0317
   90loPI   C1B 1437  15.868  16.763   9.625  0.0570  0.0659 -0.2474
   90loPI   C2B 1438  15.748  16.806   9.236  0.1604  0.1065 -0.1635
   90loPI   C3B 1439  15.681  16.836   8.801 -0.2077  0.0489 -0.0930
   90loPI   C4B 1440  15.643  16.908   8.437  0.1250  0.1270  0.3425
   91loPI    C1 1441  15.884  12.040  10.637  0.1094 -0.4819  0.1709
   91loPI    C2 1442  15.931  12.397  10.810 -0.2472 -0.1574 -0.3706
   91loPI    C3 1443  15.927  12.066  11.034 -0.0318  0.1807  0.1545
   91loPI   PO4 1444  16.024  12.067  10.457 -0.0889 -0.3353  0.0771
   91loPI   GL1 1445  15.805  12.117   9.960  0.1103 -0.3345 -0.0705
   91loPI   GL2 1446  15.525  12.261  10.230 -0.3239  0.0295  0.1485
   91loPI   C1A 1447  15.786  12.082   9.536  0.0312 -0.0093  0.2974
   91loPI   C2A 1448  15.738  12.113   9.150  0.1261  0.2155  0.0949
   91loPI   C3A 1449  15.758  12.128   8.709 -0.0143 -0.0854  0.3548
   91loPI   C4A 1450  15.897  12.384   8.378  0.4021 -0.3416 -0.1447
   91loPI   C5A 1451  16.115  12.754   8.263 -0.2015  0.3120  0.3181
   91loPI   C6A 1452  16.021  13.074   7.992 -0.0260 -0.1589  0.0138
   91loPI   C1B 1453  15.311  12.137   9.896  0.1378  0.1676 -0.3379
   91loPI   C2B 1454  15.240  12.080   9.483 -0.0046  0.2555  0.0817
   91loPI   C3B 1455  15.231  12.075   8.965  0.0455 -0.2043 -0.2062
   91loPI   C4B 1456  15.203  12.099   8.670  0.2661 -0.1040  0.0890
   92loPI    C1 1457  10.611  12.773  11.259 -0.2085 -0.1375 -0.0717
   92loPI    C2 1458  10.420  12.607  11.568 -0.0698 -0.0424  0.0667
   92loPI    C3 1459  10.224  12.851  11.319 -0.0983  0.1610  0.2851
   92loPI   PO4 1460  10.797  12.540  11.131 -0.0681 -0.4002  0.2836
   92loPI   GL1 1461  10.873  12.490  10.783 -0.1172 -0.1757 -0.1842
   92loPI   GL2 1462  10.657  12.143  10.732 -0.1023  0.4035 -0.1032
   92loPI   C1A 1463  10.882  12.626  10.405  0.4169  0.2167 -0.0353
   92loPI   C2A 1464  11.006  12.536   9.937 -0.0325 -0.3719 -0.1472
   92loPI   C3A 1465  10.976  12.564   9.509  0.2035 -0.3558 -0.0576
   92loPI   C4A 1466  10.978  12.542   9.100  0.0629 -0.2240 -0.0876
   92loPI   C5A 1467  11.024  12.582   8.673  0.1999 -0.0309  0.2757
   92loPI   C6A 1468  10.890  12.500   8.212 -0.1831  0.0625 -0.1632
   92loPI   C1B 1469  10.631  12.134  10.235  0.0628 -0.3561  0.0228
   92loPI   C2B 1470  10.735  12.117   9.744 -0.0097  0.1855 -0.4218
   92loPI   C3B 1471  10.744  12.160   9.313  0.4741  0.5713 -0.1009
   92loPI   C4B 1472  10.751  12.129   8.824  0.1272  0.0973 -0.0231
   93loPI    C1 1473  16.648  12.994  10.694 -0.0620 -0.2624  0.1902
   93loPI    C2 1474  16.991  13.195  10.657 -0.1827 -0.0550  0.1826
   93loPI    C3 1475  16.942  12.940  10.960 -0.1050  0.0838  0.3131
   93loPI   PO4 1476  16.598  12.940  10.449  0.1060 -0.1049  0.0731
   93loPI   GL1 1477  16.377  12.863  10.073 -0.1046 -0.1547 -0.5347
   93loPI   GL2 1478  16.229  13.128  10.087 -0.0265  0.1009  0.3806
   93loPI   C1A 1479  16.584  12.562   9.817 -0.1120  0.0668 -0.1055
   93loPI   C2A 1480  16.644  12.377   9.414  0.0169 -0.0757 -0.3747
   93loPI   C3A 1481  16.718  12.315   8.939 -0.1496  0.3732 -0.0165
   93loPI   C4A 1482  16.791  12.244   8.457  0.0216  0.0567 -0.3546
   93loPI   C5A 1483  17.045  12.221   8.079 -0.3067  0.1930 -0.3265
   93loPI   C6A 1484  17.252  11.952   7.797  0.2313 -0.2061  0.0616
   93loPI   C1B 1485  16.091  13.170   9.619 -0.1262  0.0236 -0.0225
   93loPI   C2B 1486  16.065  13.160   9.248 -0.2838 -0.1028  0.1481
   93loPI   C3B 1487  16.174  13.237   8.818 -0.0718 -0.3877 -0.3785
   93loPI   C4B 1488  16.010  13.314   8.440 -0.0204 -0.1077 -0.0124
   94loPI    C1 1489   6.840  11.096  11.434 -0.2034 -0.0200 -0.0154
   94loPI    C2 1490   6.499  11.161  11.632 -0.2223  0.0406 -0.0677
   94loPI    C3 1491   6.637  10.789  11.590 -0.4244 -0.0133 -0.2807
   94loPI   PO4 1492   6.788  11.144  11.189 -0.0354  0.0586  0.3607
   94loPI   GL1 1493   6.699  11.149  10.715 -0.0280 -0.3859  0.0766
   94loPI   GL2 1494   6.972  11.123  10.526  0.1433  0.2899 -0.1709
   94loPI   C1A 1495   6.468  11.300  10.417  0.0050 -0.2695  0.0289
   94loPI   C2A 1496   6.428  11.173  10.024 -0.2484  0.2010  0.3288
   94loPI   C3A 1497   6.304  11.199   9.527 -0.4099 -0.1379  0.1374
   94loPI   C4A 1498   6.405  11.204   9.112  0.1904  0.2357  0.1934
   94loPI   C5A 1499   6.396  11.116   8.606 -0.1794  0.1434 -0.3522
   94loPI   C6A 1500   6.596  10.878   8.216  0.0475  0.4642  0.0219
   94loPI   C1B 1501   6.938  11.206  10.077  0.2735 -0.2012  0.0079
   94loPI   C2B 1502   6.971  11.175   9.634 -0.0994  0.0976  0.1156
   94loPI   C3B 1503   6.879  11.074   9.115 -0.4116  0.2979  0.0497
   94loPI   C4B 1504   6.878  11.179   8.594  0.0352 -0.1326 -0.0880
   95loPI    C1 1505   7.408  16.860  10.983 -0.3587 -0.0169 -0.4187
   95loPI    C2 1506   7.302  17.188  11.186 -0.1334 -0.0291 -0.2775
   95loPI    C3 1507   7.160  16.830  11.296 -0.1010 -0.0219 -0.2111
   95loPI   PO4 1508   7.404  16.971  10.717 -0.3066  0.0345  0.2463
   95loPI   GL1 1509   7.434  16.808  10.347  0.0876  0.1071 -0.0315
   95loPI   GL2 1510   7.155  16.691  10.142  0.0153  0.0519 -0.1755
   95loPI   C1A 1511   7.739  16.753  10.016 -0.1666  0.0618 -0.1311
   95loPI   C2A 1512   7.843  16.889   9.548 -0.2156  0.0500 -0.3051
   95loPI   C3A 1513   7.875  16.781   9.091  0.0590  0.0510 -0.3504
   95loPI   C4A 1514   7.881  16.805   8.634 -0.4434  0.0524 -0.0915
   95loPI   C5A 1515   7.959  16.634   8.263  0.1832  0.2661 -0.2764
   95loPI   C6A 1516   8.353  16.712   8.054  0.0383  0.0514  0.0318
   95loPI   C1B 1517   7.286  16.829   9.757  0.1673  0.0472 -0.0321
   95loPI   C2B 1518   7.270  16.866   9.352 -0.0356 -0.2251 -0.3014
   95loPI   C3B 1519   7.380  16.718   9.035 -0.1594  0.0970 -0.0424
   95loPI   C4B 1520   7.385  16.641   8.619  0.0917  0.1213  0.1684
   96loPI    C1 1521   4.951   4.786  10.806 -0.1982  0.3976 -0.3272
   96loPI    C2 1522   4.896   4.928  11.176  0.0198 -0.1460 -0.0752
   96loPI    C3 1523   4.581   4.859  10.939 -0.1419 -0.0577  0.1111
   96loPI   PO4 1524   5.298   4.812  10.726  0.0647  0.0407  0.1742
   96loPI   GL1 1525   5.571   5.125  10.433 -0.2303 -0.1827  0.0814
   96loPI   GL2 1526   5.865   5.237  10.295 -0.1832 -0.1212  0.0897
   96loPI   C1A 1527   5.251   5.172  10.065 -0.4126 -0.0577 -0.2037
   96loPI   C2A 1528   5.345   5.187   9.663 -0.2319 -0.0571  0.1528
   96loPI   C3A 1529   5.255   5.079   9.199  0.2937 -0.0730  0.0828
   96loPI   C4A 1530   5.288   5.037   8.756  0.0323  0.0366 -0.0884
   96loPI   C5A 1531   5.266   4.942   8.324 -0.4770  0.1263 -0.0891
   96loPI   C6A 1532   5.024   4.918   8.041  0.2625 -0.4127 -0.0558
   96loPI   C1B 1533   5.811   5.295   9.875 -0.0971 -0.1080 -0.0400
   96loPI   C2B 1534   5.882   5.191   9.463  0.0739 -0.1649  0.0313
   96loPI   C3B 1535   5.772   5.129   9.067  0.1055  0.0190  0.0527
   96loPI   C4B 1536   5.776   5.106   8.678  0.3530 -0.0974 -0.0827
   97loPI    C1 1537   3.900   0.203  10.562  0.2433  0.2122 -0.1251
   97loPI    C2 1538   3.850   0.387  10.914 -0.2965  0.0254 -0.0959
   97loPI    C3 1539   3.832  -0.013  10.892  0.2874 -0.0012 -0.2535
   97loPI   PO4 1540   3.783   0.295  10.389 -0.0888  0.2886 -0.1558
   97loPI   GL1 1541   3.565   0.377  10.069 -0.1648  0.1664 -0.2286
   97loPI   GL2 1542   3.894   0.488   9.902 -0.0481 -0.1697 -0.1800
   97loPI   C1A 1543   3.501   0.349   9.643 -0.1696  0.1138 -0.1675
   97loPI   C2A 1544   3.583   0.397   9.208  0.2356 -0.1009  0.0593
   97loPI   C3A 1545   3.673   0.422   8.747  0.0533 -0.0833 -0.0460
   97loPI   C4A 1546   3.744   0.386   8.265  0.0471 -0.0132 -0.1428
   97loPI   C5A 1547   3.966   0.262   7.844 -0.0321 -0.1100 -0.1166
   97loPI   C6A 1548   4.220   0.206   7.409 -0.2546 -0.0255  0.0610
   97loPI   C1B 1549   4.048   0.432   9.523  0.1824  0.2433  0.1542
   97loPI   C2B 1550   4.100   0.424   9.102 -0.1808 -0.1505 -0.1039
   97loPI   C3B 1551   4.231   0.464   8.630  0.1312  0.1505  0.0900
   97loPI   C4B 1552   4.341   0.415   8.122  0.0916 -0.1350 -0.2006
   98loPI    C1 1553   9.540  14.975  11.025 -0.1580 -0.0547 -0.0091
   98loPI    C2 1554   9.864  15.129  11.202  0.0027 -0.2769 -0.1049
   98loPI    C3 1555   9.501  15.265  11.298  0.1154 -0.1031  0.0853
   98loPI   PO4 1556   9.702  14.864  10.796  0.1057 -0.0982  0.2177
   98loPI   GL1 1557   9.913  14.650  10.435  0.0738 -0.2158  0.1828
   98loPI   GL2 1558  10.247  14.477  10.404  0.0018  0.0641  0.2253
   98loPI   C1A 1559   9.882  14.774  10.084 -0.0786 -0.2415  0.1217
   98loPI   C2A 1560   9.835  14.812   9.692  0.0704  0.2265  0.0547
   98loPI   C3A 1561   9.980  14.749   9.274 -0.0472  0.0192  0.0060
   98loPI   C4A 1562   9.917  14.690   8.858  0.0034 -0.0031 -0.3686
   98loPI   C5A 1563   9.952  14.557   8.410 -0.0837 -0.0053 -0.1089
   98loPI   C6A 1564   9.815  14.522   7.954  0.0653  0.1581  0.1899
   98loPI   C1B 1565  10.191  14.431  10.008 -0.1529  0.0256 -0.2650
   98loPI   C2B 1566  10.322  14.248   9.536  0.1634  0.1941 -0.1869
   98loPI   C3B 1567  10.335  14.330   9.133  0.3371 -0.1521  0.2443
   98loPI   C4B 1568  10.266  14.391   8.702  0.0599  0.1666 -0.3872
   99loPI    C1 1569   3.980  11.420  10.868 -0.3871  0.0676 -0.2769
   99loPI    C2 1570   3.866  11.783  10.744  0.0366  0.2766 -0.0777
   99loPI    C3 1571   3.825  11.682  11.129  0.0279  0.1551 -0.1103
   99loPI   PO4 1572   3.829  11.276  10.679  0.0383 -0.0595  0.5297
   99loPI   GL1 1573   3.599  11.389  10.407  0.0904  0.0034 -0.0292
   99loPI   GL2 1574   3.603  11.650  10.369  0.2075 -0.2195  0.3090
   99loPI   C1A 1575   3.415  11.279  10.046  0.0697 -0.1165  0.0338
   99loPI   C2A 1576   3.355  11.225   9.569 -0.0017 -0.0276  0.0786
   99loPI   C3A 1577   3.478  11.366   9.246  0.2230  0.2379 -0.1294
   99loPI   C4A 1578   3.514  11.116   8.858  0.2151 -0.2676  0.0623
   99loPI   C5A 1579   3.681  11.108   8.468  0.0559 -0.1149 -0.2105
   99loPI   C6A 1580   4.059  11.097   8.166  0.1502 -0.3195  0.1058
   99loPI   C1B 1581   3.548  11.793   9.905 -0.1508 -0.0745  0.0256
   99loPI   C2B 1582   3.574  11.850   9.485 -0.2441  0.3555  0.0107
   99loPI   C3B 1583   3.593  11.817   9.088  0.1542 -0.1150  0.1882
   99loPI   C4B 1584   3.647  11.656   8.737  0.0018  0.0557 -0.0835
  100loPI    C1 1585   5.834  16.543  10.638 -0.0102 -0.2830 -0.1923
  100loPI    C2 1586   5.688  16.686  10.982 -0.0859 -0.1183 -0.2913
  100loPI    C3 1587   6.044  16.505  10.976  0.0232  0.0888 -0.1667
  100loPI   PO4 1588   5.794  16.757  10.524  0.2377 -0.0888  0.1881
  100loPI   GL1 1589   5.742  16.947  10.180 -0.0764 -0.1398  0.2514
  100loPI   GL2 1590   5.726  16.696   9.929 -0.2323 -0.1475 -0.3000
  100loPI   C1A 1591   5.946  17.071   9.761 -0.2240 -0.1709 -0.2601
  100loPI   C2A 1592   6.072  17.080   9.343 -0.1503 -0.0295  0.0829
  100loPI   C3A 1593   6.076  17.028   8.912  0.3867  0.1616  0.2628
  100loPI   C4A 1594   6.015  16.951   8.622 -0.0229  0.0043  0.0076
  100loPI   C5A 1595   6.025  16.936   8.202 -0.0781  0.0397  0.0440
  100loPI   C6A 1596   5.952  17.137   7.787  0.1869 -0.0687 -0.3369
  100loPI   C1B 1597   5.814  16.575   9.522 -0.0050 -0.3224 -0.0337
  100loPI   C2B 1598   5.782  16.622   9.096  0.1560 -0.0588  0.2353
  100loPI   C3B 1599   5.764  16.481   8.648 -0.1903  0.0374 -0.0887
  100loPI   C4B 1600   5.832  16.357   8.318  0.0370  0.0717  0.1406
  101loPI    C1 1601   9.142  11.502  11.101  0.0054  0.0519 -0.1823
  101loPI    C2 1602   9.037  11.741  11.404  0.0489  0.1037 -0.2079
  101loPI    C3 1603   9.350  11.495  11.443 -0.0332  0.0060 -0.1598
  101loPI   PO4 1604   9.049  11.565  10.835  0.2813  0.3546  0.0453
  101loPI   GL1 1605   9.056  11.580  10.366 -0.0749 -0.0098  0.0732
  101loPI   GL2 1606   8.922  11.383  10.388  0.1175 -0.1137 -0.3111
  101loPI   C1A 1607   9.138  11.787   9.946  0.0672 -0.0811  0.3218
  101loPI   C2A 1608   9.150  11.902   9.539  0.0487  0.3663 -0.0970
  101loPI   C3A 1609   9.123  11.935   9.122 -0.2735  0.5189 -0.0420
  101loPI   C4A 1610   9.381  12.214   8.677  0.2251  0.0925  0.0515
  101loPI   C5A 1611   9.611  12.455   8.410 -0.3078 -0.0550 -0.2094
  101loPI   C6A 1612   9.882  12.727   8.037 -0.1241  0.2729 -0.3146
  101loPI   C1B 1613   8.880  11.421   9.970  0.0132  0.1329 -0.0268
  101loPI   C2B 1614   8.942  11.441   9.458 -0.1508  0.0251 -0.0680
  101loPI   C3B 1615   8.949  11.419   8.981 -0.0585  0.0427  0.0132
  101loPI   C4B 1616   8.804  11.306   8.551  0.0199  0.1007 -0.0259
  102loPI    C1 1617  15.200  11.870  10.786 -0.0285  0.2031 -0.0924
  102loPI    C2 1618  15.454  11.750  11.071  0.0529 -0.0139 -0.2535
  102loPI    C3 1619  15.142  11.982  11.165  0.1673  0.0454 -0.0141
  102loPI   PO4 1620  15.369  11.908  10.564  0.1511 -0.0335 -0.1266
  102loPI   GL1 1621  15.564  11.782  10.135 -0.0684  0.0402  0.1750
  102loPI   GL2 1622  15.288  11.495  10.158  0.0311 -0.0923  0.0311
  102loPI   C1A 1623  15.513  11.711   9.668 -0.0607 -0.1365  0.5570
  102loPI   C2A 1624  15.530  11.688   9.227  0.0962  0.0787 -0.0506
  102loPI   C3A 1625  15.537  11.664   8.793  0.2547 -0.3258  0.0406
  102loPI   C4A 1626  15.590  11.697   8.482  0.0053  0.0525  0.1960
  102loPI   C5A 1627  15.316  11.829   8.243  0.2025  0.0041  0.1372
  102loPI   C6A 1628  15.054  11.476   8.083 -0.0153  0.0981 -0.0154
  102loPI   C1B 1629  15.036  11.740   9.869  0.1560  0.0383  0.3470
  102loPI   C2B 1630  14.985  11.628   9.390 -0.0793 -0.1715 -0.1017
  102loPI   C3B 1631  15.080  11.573   9.006  0.0132 -0.0768  0.0365
  102loPI   C4B 1632  15.051  11.599   8.614  0.1070  0.2233  0.0500
  103loPI    C1 1633   5.211   8.439  10.855 -0.0341  0.2661  0.1112
  103loPI    C2 1634   4.875   8.656  10.854  0.0218  0.3530  0.0715
  103loPI    C3 1635   5.102   8.641  11.183 -0.1261  0.1287  0.1663
  103loPI   PO4 1636   5.294   8.387  10.619  0.0873 -0.1132  0.1070
  103loPI   GL1 1637   4.917   8.338  10.384  0.2302 -0.4265 -0.1742
  103loPI   GL2 1638   4.686   8.530  10.413  0.0795  0.2255 -0.3932
  103loPI   C1A 1639   5.074   8.197   9.944 -0.1448 -0.2027 -0.0462
  103loPI   C2A 1640   5.169   8.246   9.521 -0.3564  0.2114  0.2320
  103loPI   C3A 1641   5.175   8.250   9.135  0.1492 -0.0383  0.0577
  103loPI   C4A 1642   5.181   8.204   8.737 -0.1540  0.0633  0.0607
  103loPI   C5A 1643   5.295   8.165   8.316  0.3294  0.2317 -0.2506
  103loPI   C6A 1644   5.480   8.113   7.846 -0.1297 -0.1227  0.2909
  103loPI   C1B 1645   4.817   8.711  10.039  0.1962  0.0316 -0.0427
  103loPI   C2B 1646   4.754   8.646   9.696  0.0564  0.2963  0.1523
  103loPI   C3B 1647   4.827   8.596   9.282 -0.3609 -0.0180 -0.1152
  103loPI   C4B 1648   4.904   8.673   8.817  0.2938 -0.2900  0.2830
  104loPI    C1 1649   5.528  14.976  10.850  0.0132  0.3340 -0.0131
  104loPI    C2 1650   5.648  15.310  11.035  0.1416  0.2083  0.1331
  104loPI    C3 1651   5.444  15.031  11.237 -0.0401  0.2352 -0.0102
  104loPI   PO4 1652   5.756  15.042  10.524  0.1155  0.2859 -0.0586
  104loPI   GL1 1653   6.082  14.893  10.318 -0.2691  0.1255 -0.0503
  104loPI   GL2 1654   6.059  14.632  10.088  0.3164  0.4078 -0.4812
  104loPI   C1A 1655   6.113  15.203   9.921  0.0837  0.3125 -0.0755
  104loPI   C2A 1656   6.133  15.243   9.529 -0.2080 -0.4029 -0.1590
  104loPI   C3A 1657   6.262  15.302   9.105 -0.0864  0.1637 -0.4236
  104loPI   C4A 1658   6.250  15.179   8.720 -0.0627 -0.1456  0.0524
  104loPI   C5A 1659   6.372  15.035   8.252  0.0585 -0.0626  0.2042
  104loPI   C6A 1660   6.707  15.002   8.039 -0.4413 -0.1197  0.1797
  104loPI   C1B 1661   6.356  14.816   9.720 -0.2064  0.1844  0.0929
  104loPI   C2B 1662   6.501  14.954   9.381  0.1254 -0.2721 -0.0091
  104loPI   C3B 1663   6.456  14.772   8.981  0.1232 -0.0411  0.1659
  104loPI   C4B 1664   6.487  14.691   8.576  0.0733 -0.2547  0.0193
  105loPI    C1 1665  13.652  14.240  11.039 -0.1249 -0.0931 -0.0525
  105loPI    C2 1666  13.282  14.372  11.112 -0.0860  0.0566 -0.1204
  105loPI    C3 1667  13.455  14.111  11.361 -0.2172  0.0261 -0.0606
  105loPI   PO4 1668  13.700  14.056  10.848 -0.0980  0.2053 -0.2630
  105loPI   GL1 1669  13.434  14.041  10.405 -0.1839  0.0592 -0.2977
  105loPI   GL2 1670  13.165  14.159  10.309  0.1459  0.0643 -0.1279
  105loPI   C1A 1671  13.460  13.800  10.090 -0.0668 -0.3949  0.2059
  105loPI   C2A 1672  13.495  13.781   9.647  0.0687 -0.0246  0.2036
  105loPI   C3A 1673  13.507  13.792   9.201 -0.0962  0.0207  0.4312
  105loPI   C4A 1674  13.327  13.794   8.766  0.0285  0.0098  0.1415
  105loPI   C5A 1675  13.496  13.634   8.311 -0.0735  0.2505  0.0517
  105loPI   C6A 1676  13.166  13.424   8.001  0.0128 -0.1246 -0.3008
  105loPI   C1B 1677  13.260  14.249   9.882 -0.0640 -0.1977  0.5089
  105loPI   C2B 1678  13.248  14.187   9.474 -0.0253 -0.1992  0.3479
  105loPI   C3B 1679  13.168  14.200   9.054  0.0400  0.0949  0.1586
  105loPI   C4B 1680  13.010  14.127   8.631 -0.0313 -0.3380  0.2364
  106loPI    C1 1681  11.885   6.637  10.991 -0.2564 -0.0611 -0.1547
  106loPI    C2 1682  11.764   6.953  11.204  0.0692  0.1204 -0.2309
  106loPI    C3 1683  12.151   6.854  11.196 -0.0525 -0.4026 -0.0497
  106loPI   PO4 1684  11.840   6.703  10.776  0.0824  0.3196 -0.0217
  106loPI   GL1 1685  11.619   6.949  10.428  0.0170 -0.0037 -0.2745
  106loPI   GL2 1686  11.610   7.227  10.353 -0.2098 -0.3733 -0.0411
  106loPI   C1A 1687  11.804   6.745  10.026  0.0603  0.1620 -0.3819
  106loPI   C2A 1688  11.939   6.786   9.569  0.1859 -0.0205 -0.2276
  106loPI   C3A 1689  11.818   6.680   9.186  0.2523  0.0730 -0.2489
  106loPI   C4A 1690  11.894   6.770   8.788 -0.2857  0.0132 -0.1226
  106loPI   C5A 1691  12.080   6.526   8.511  0.2955 -0.1237 -0.0920
  106loPI   C6A 1692  12.332   6.210   8.258 -0.1181 -0.0060  0.0130
  106loPI   C1B 1693  11.562   7.204   9.896  0.0595  0.1387  0.3038
  106loPI   C2B 1694  11.443   7.192   9.512 -0.1211  0.0704 -0.1516
  106loPI   C3B 1695  11.494   7.116   9.026 -0.0831 -0.3859 -0.0436
  106loPI   C4B 1696  11.478   7.204   8.561  0.1136 -0.3881  0.1227
  107loPI    C1 1697   2.987  16.217  10.243  0.1208 -0.0445 -0.3543
  107loPI    C2 1698   3.359  16.179  10.385  0.0148  0.2506  0.0183
  107loPI    C3 1699   3.077  15.915  10.490  0.0612  0.1646 -0.0717
  107loPI   PO4 1700   2.971  16.201  10.074  0.0031  0.1087  0.0164
  107loPI   GL1 1701   3.297  15.986   9.901 -0.3606 -0.2147 -0.0020
  107loPI   GL2 1702   3.415  16.334   9.861 -0.0087  0.0072  0.1390
  107loPI   C1A 1703   3.185  15.984   9.511  0.2223  0.0118 -0.0877
  107loPI   C2A 1704   3.369  15.947   9.047 -0.0843  0.1626 -0.0020
  107loPI   C3A 1705   3.495  15.921   8.610 -0.3068  0.0461  0.4010
  107loPI   C4A 1706   3.707  15.890   8.253  0.1625 -0.1078  0.0745
  107loPI   C5A 1707   3.846  15.861   7.879  0.1419 -0.2741  0.3653
  107loPI   C6A 1708   4.267  15.811   7.595 -0.3193 -0.0585  0.0349
  107loPI   C1B 1709   3.548  16.279   9.404  0.2096 -0.2988 -0.2781
  107loPI   C2B 1710   3.576  16.365   8.955  0.2967  0.0641  0.3264
  107loPI   C3B 1711   3.823  16.423   8.594  0.0960  0.1238  0.1360
  107loPI   C4B 1712   3.939  16.503   8.236 -0.0679  0.2316 -0.2371
  108loPI    C1 1713  12.356   5.374  10.988 -0.0202  0.0412  0.3149
  108loPI    C2 1714  12.290   5.150  11.312  0.0139 -0.0661  0.2484
  108loPI    C3 1715  12.449   5.515  11.350 -0.0772 -0.0376  0.3603
  108loPI   PO4 1716  12.414   5.201  10.784  0.0573 -0.1118 -0.0209
  108loPI   GL1 1717  12.593   5.123  10.541 -0.1215  0.0494  0.0607
  108loPI   GL2 1718  12.638   5.121  10.201 -0.1752  0.2075  0.1113
  108loPI   C1A 1719  12.755   5.556  10.302 -0.0977 -0.3791  0.1105
  108loPI   C2A 1720  12.754   5.532   9.875 -0.0147  0.3375  0.1013
  108loPI   C3A 1721  12.767   5.447   9.447  0.3474 -0.4531 -0.1009
  108loPI   C4A 1722  12.802   5.471   9.033 -0.0095 -0.0673  0.5060
  108loPI   C5A 1723  12.829   5.407   8.624 -0.0080 -0.2388 -0.0204
  108loPI   C6A 1724  12.587   5.560   8.297  0.0291  0.2077  0.2331
  108loPI   C1B 1725  12.592   5.025   9.762 -0.0366 -0.2434  0.1606
  108loPI   C2B 1726  12.529   4.964   9.281 -0.1972  0.3402  0.1362
  108loPI   C3B 1727  12.522   5.010   8.884 -0.3847 -0.0944  0.2268
  108loPI   C4B 1728  12.432   4.942   8.508 -0.0313 -0.0776  0.0054
  109loPI    C1 1729   2.181  13.164  10.122 -0.0572 -0.0805 -0.2192
  109loPI    C2 1730   2.282  12.968  10.455  0.3169  0.1725 -0.1772
  109loPI    C3 1731   2.064  12.785  10.174  0.0275 -0.0558  0.1851
  109loPI   PO4 1732   2.312  13.250   9.994  0.0625  0.0293 -0.4850
  109loPI   GL1 1733   2.530  13.251   9.619  0.2397  0.0416  0.3916
  109loPI   GL2 1734   2.741  13.120   9.708 -0.0670 -0.1223 -0.0451
  109loPI   C1A 1735   2.328  13.339   9.310  0.4898 -0.0541 -0.1794
  109loPI   C2A 1736   2.270  13.400   8.999 -0.0158 -0.0994  0.3030
  109loPI   C3A 1737   2.393  13.431   8.536 -0.0744  0.0175 -0.0564
  109loPI   C4A 1738   2.628  13.490   8.159 -0.2567  0.1063 -0.0358
  109loPI   C5A 1739   2.751  13.839   7.871  0.3837  0.0065 -0.2364
  109loPI   C6A 1740   3.036  14.049   7.914 -0.3101  0.2621 -0.1536
  109loPI   C1B 1741   2.749  12.931   9.316 -0.3605 -0.0022  0.1475
  109loPI   C2B 1742   2.717  12.966   8.864 -0.5977  0.0672  0.0541
  109loPI   C3B 1743   2.882  13.072   8.478 -0.1738  0.1268 -0.0995
  109loPI   C4B 1744   2.888  13.069   7.936 -0.2749 -0.2560  0.1784
  110loPI    C1 1745  10.579  13.923  11.182  0.3108  0.0041 -0.0254
  110loPI    C2 1746  10.361  13.727  11.453 -0.1975  0.1267 -0.3330
  110loPI    C3 1747  10.490  14.097  11.531 -0.0833  0.0481 -0.1430
  110loPI   PO4 1748  10.583  13.698  10.990  0.1973  0.0933  0.0366
  110loPI   GL1 1749  10.538  13.669  10.599  0.2787 -0.0017  0.2036
  110loPI   GL2 1750  10.392  13.470  10.377  0.0621 -0.1943 -0.1248
  110loPI   C1A 1751  10.786  13.657  10.212  0.0654 -0.1918  0.1390
  110loPI   C2A 1752  10.809  13.492   9.798  0.2332  0.2769  0.0292
  110loPI   C3A 1753  10.828  13.475   9.384 -0.0988  0.0204 -0.0230
  110loPI   C4A 1754  10.829  13.486   8.981 -0.2263  0.2416 -0.1359
  110loPI   C5A 1755  10.889  13.573   8.568 -0.1260 -0.1377 -0.1441
  110loPI   C6A 1756  11.037  13.873   8.250 -0.1979 -0.2384  0.1324
  110loPI   C1B 1757  10.365  13.396  10.047  0.1111 -0.2565 -0.0076
  110loPI   C2B 1758  10.300  13.494   9.591 -0.0049  0.3937  0.0092
  110loPI   C3B 1759  10.329  13.529   9.134 -0.1693  0.0471 -0.1740
  110loPI   C4B 1760  10.347  13.509   8.711 -0.1117  0.2935 -0.1257
  111loPI    C1 1761   3.237   6.584  10.876 -0.0283  0.2994 -0.1782
  111loPI    C2 1762   3.594   6.726  10.990  0.1308 -0.1195 -0.1344
  111loPI    C3 1763   3.268   6.804  11.209  0.1869  0.2826 -0.1857
  111loPI   PO4 1764   3.153   6.700  10.551  0.1280 -0.1622 -0.1397
  111loPI   GL1 1765   3.310   6.542  10.087 -0.0120 -0.0228  0.0654
  111loPI   GL2 1766   3.551   6.620   9.923  0.2024 -0.5337 -0.0081
  111loPI   C1A 1767   3.020   6.592   9.760  0.1438  0.3443  0.4052
  111loPI   C2A 1768   2.984   6.716   9.283 -0.1025  0.1651  0.2782
  111loPI   C3A 1769   2.909   6.625   8.819 -0.2716  0.0187 -0.0072
  111loPI   C4A 1770   2.932   6.621   8.413 -0.1651 -0.1487 -0.1711
  111loPI   C5A 1771   2.993   6.729   8.004 -0.1313  0.2403  0.0354
  111loPI   C6A 1772   2.817   6.853   7.664  0.0307  0.1600  0.1429
  111loPI   C1B 1773   3.444   6.799   9.580 -0.4658 -0.1935 -0.1917
  111loPI   C2B 1774   3.510   6.680   9.140  0.2031 -0.1286  0.0243
  111loPI   C3B 1775   3.436   6.673   8.719  0.1734 -0.1858 -0.1581
  111loPI   C4B 1776   3.401   6.582   8.223 -0.1134  0.1875 -0.1262
  112loPI    C1 1777   7.838  14.834  10.887  0.1270 -0.1427 -0.1460
  112loPI    C2 1778   7.536  14.716  11.120 -0.1305  0.0128 -0.3953
  112loPI    C3 1779   7.913  14.637  11.227 -0.2556 -0.1632 -0.0697
  112loPI   PO4 1780   7.732  14.751  10.608  0.2091 -0.0094  0.3736
  112loPI   GL1 1781   7.676  15.043  10.157  0.0052  0.1107  0.0782
  112loPI   GL2 1782   7.519  14.957   9.981 -0.1626 -0.0276 -0.0901
  112loPI   C1A 1783   8.005  15.075   9.851  0.2451 -0.3180  0.3964
  112loPI   C2A 1784   8.041  14.935   9.430  0.5819 -0.0163 -0.1646
  112loPI   C3A 1785   8.028  14.935   9.157  0.0168 -0.0216  0.2879
  112loPI   C4A 1786   8.157  14.925   8.773  0.0897 -0.0414 -0.1425
  112loPI   C5A 1787   8.191  14.789   8.359 -0.1022  0.0209 -0.2124
  112loPI   C6A 1788   7.835  14.772   8.129  0.3289 -0.1764 -0.2063
  112loPI   C1B 1789   7.516  15.019   9.611 -0.2527  0.0478 -0.0217
  112loPI   C2B 1790   7.536  14.861   9.191 -0.1174 -0.1339  0.0972
  112loPI   C3B 1791   7.659  14.866   8.815 -0.3081 -0.5384 -0.2070
  112loPI   C4B 1792   7.449  14.832   8.472 -0.3670 -0.1299  0.0721
  113loPI    C1 1793  15.764   9.991  10.945 -0.1876  0.2900  0.0242
  113loPI    C2 1794  15.736  10.133  11.318  0.0005  0.1379  0.0976
  113loPI    C3 1795  16.095  10.056  11.159 -0.0909 -0.1028  0.0021
  113loPI   PO4 1796  15.595  10.075  10.816 -0.1061 -0.3609 -0.1690
  113loPI   GL1 1797  15.402  10.142  10.347  0.1889  0.0961  0.2581
  113loPI   GL2 1798  15.307   9.779  10.232 -0.0560 -0.0693  0.0303
  113loPI   C1A 1799  15.449  10.279   9.959 -0.1278  0.1974 -0.0088
  113loPI   C2A 1800  15.388  10.298   9.509  0.0264  0.0500  0.2131
  113loPI   C3A 1801  15.266  10.336   9.102  0.0133 -0.0994  0.1471
  113loPI   C4A 1802  15.373  10.257   8.690 -0.0941  0.0992 -0.0155
  113loPI   C5A 1803  15.483  10.373   8.371 -0.0064 -0.1494  0.3158
  113loPI   C6A 1804  15.511  10.409   7.980 -0.1539  0.3294 -0.0887
  113loPI   C1B 1805  15.259   9.793   9.790 -0.0989  0.2401 -0.2866
  113loPI   C2B 1806  15.104   9.849   9.416 -0.1439 -0.2011 -0.1760
  113loPI   C3B 1807  15.107   9.827   8.938  0.2940  0.1007 -0.1073
  113loPI   C4B 1808  15.183   9.846   8.511  0.1979  0.2154 -0.2620
  114loPI    C1 1809  14.171   8.372  11.119  0.0262 -0.1153  0.1252
  114loPI    C2 1810  13.771   8.368  11.137  0.0287 -0.1395  0.1774
  114loPI    C3 1811  13.987   8.358  11.474  0.0725  0.0418  0.1559
  114loPI   PO4 1812  14.225   8.331  10.880  0.2002  0.0180  0.2567
  114loPI   GL1 1813  14.218   8.221  10.428  0.0327  0.0756  0.1404
  114loPI   GL2 1814  14.491   8.474  10.455  0.1479  0.2189  0.2334
  114loPI   C1A 1815  13.974   8.409  10.142  0.0456  0.0740  0.1604
  114loPI   C2A 1816  14.064   8.480   9.712  0.4460  0.1528 -0.0746
  114loPI   C3A 1817  14.001   8.453   9.246  0.1940  0.0892 -0.1757
  114loPI   C4A 1818  14.034   8.351   8.889  0.2142  0.0738  0.1579
  114loPI   C5A 1819  14.106   8.263   8.400 -0.1401 -0.3658 -0.0574
  114loPI   C6A 1820  13.981   7.967   7.967 -0.0342 -0.2739 -0.0276
  114loPI   C1B 1821  14.495   8.538  10.091 -0.0505  0.1247  0.0184
  114loPI   C2B 1822  14.612   8.505   9.637  0.1158  0.0795  0.0976
  114loPI   C3B 1823  14.498   8.409   9.239  0.0082  0.2859 -0.0421
  114loPI   C4B 1824  14.480   8.447   8.769  0.2205  0.0546  0.2112
  115loPI    C1 1825   9.267   6.005  11.122 -0.0227  0.0996  0.0658
  115loPI    C2 1826   8.945   5.805  11.249 -0.0666  0.1544  0.0416
  115loPI    C3 1827   9.193   5.972  11.514 -0.0904  0.1628  0.0587
  115loPI   PO4 1828   9.078   6.140  10.865  0.0981 -0.0365 -0.1417
  115loPI   GL1 1829   9.128   6.201  10.436 -0.4144  0.2273 -0.0723
  115loPI   GL2 1830   8.968   5.978  10.355 -0.1416  0.1245 -0.0332
  115loPI   C1A 1831   9.223   6.462  10.102 -0.1504 -0.0342  0.0585
  115loPI   C2A 1832   9.266   6.408   9.686  0.2196 -0.1819  0.2046
  115loPI   C3A 1833   9.300   6.367   9.225  0.3002 -0.5948  0.4077
  115loPI   C4A 1834   9.381   6.435   8.818 -0.1004 -0.3513  0.2144
  115loPI   C5A 1835   9.274   6.318   8.484  0.1629 -0.3153  0.0970
  115loPI   C6A 1836   8.984   6.286   8.192 -0.2539  0.0354  0.0484
  115loPI   C1B 1837   8.989   6.071   9.978 -0.0288  0.0418  0.2671
  115loPI   C2B 1838   9.093   5.995   9.565  0.1797  0.0819  0.1344
  115loPI   C3B 1839   9.058   5.925   9.178  0.0912 -0.2041 -0.0831
  115loPI   C4B 1840   9.189   5.917   8.785  0.0012 -0.0237  0.3787
  116loPI    C1 1841   4.703  13.129  10.731  0.1404  0.0475  0.1033
  116loPI    C2 1842   4.634  12.836  10.994 -0.1523 -0.1162 -0.1488
  116loPI    C3 1843   4.730  13.202  11.123 -0.1027 -0.2408  0.1772
  116loPI   PO4 1844   4.423  13.130  10.593 -0.1596  0.1778 -0.3511
  116loPI   GL1 1845   4.398  12.744  10.278  0.2232 -0.0113 -0.0664
  116loPI   GL2 1846   4.586  12.861  10.137 -0.0571 -0.4143  0.2764
  116loPI   C1A 1847   4.132  12.742   9.924  0.0382  0.0324  0.0215
  116loPI   C2A 1848   4.005  12.757   9.494  0.1132 -0.2432 -0.1229
  116loPI   C3A 1849   4.037  12.818   9.032  0.1037 -0.2440 -0.0507
  116loPI   C4A 1850   4.174  12.606   8.624 -0.2025 -0.1484 -0.0837
  116loPI   C5A 1851   4.144  12.521   8.192 -0.0059 -0.2182  0.1698
  116loPI   C6A 1852   3.812  12.504   7.915  0.1336 -0.1744 -0.1832
  116loPI   C1B 1853   4.537  12.853   9.756 -0.2292 -0.0736  0.0809
  116loPI   C2B 1854   4.491  12.933   9.252  0.0576  0.2998 -0.3119
  116loPI   C3B 1855   4.624  12.787   8.868 -0.2375 -0.4876 -0.0038
  116loPI   C4B 1856   4.697  12.719   8.537 -0.0050  0.1787  0.0701
  117loPI    C1 1857  10.327  18.078  10.950 -0.3050  0.1742  0.0675
  117loPI    C2 1858  10.054  18.314  11.123 -0.1403  0.3072  0.1504
  117loPI    C3 1859  10.381  18.205  11.326 -0.1812  0.0622  0.0885
  117loPI   PO4 1860  10.345  18.188  10.693  0.2685 -0.1591 -0.3005
  117loPI   GL1 1861  10.496  18.091  10.262  0.0672 -0.1277 -0.0194
  117loPI   GL2 1862  10.660  18.381  10.227 -0.2468 -0.2133 -0.3875
  117loPI   C1A 1863  10.370  17.964   9.812 -0.1398 -0.0870 -0.0807
  117loPI   C2A 1864  10.397  17.879   9.296  0.5329  0.2390  0.2241
  117loPI   C3A 1865  10.398  18.006   8.889  0.0397  0.2659 -0.1981
  117loPI   C4A 1866  10.337  17.945   8.521 -0.2957  0.2956  0.0100
  117loPI   C5A 1867  10.196  18.179   8.313 -0.0576  0.2414 -0.3532
  117loPI   C6A 1868   9.876  18.487   8.268 -0.2666 -0.1873  0.0414
  117loPI   C1B 1869  10.624  18.444   9.827 -0.0696  0.2517  0.0962
  117loPI   C2B 1870  10.650  18.347   9.405  0.1537  0.1329 -0.0065
  117loPI   C3B 1871  10.594  18.441   8.951 -0.2404 -0.0590 -0.1620
  117loPI   C4B 1872  10.581  18.413   8.508  0.0846 -0.1714 -0.2391
  118loPI    C1 1873  10.662  14.614  10.900 -0.0731  0.0168  0.0122
  118loPI    C2 1874  10.265  14.649  10.862 -0.0913 -0.0503  0.1354
  118loPI    C3 1875  10.422  14.511  11.203  0.0322 -0.1393  0.0434
  118loPI   PO4 1876  10.704  14.551  10.693 -0.0288 -0.0285  0.0295
  118loPI   GL1 1877  10.683  14.250  10.348  0.0846  0.0522 -0.0892
  118loPI   GL2 1878  10.432  14.062  10.233 -0.1410  0.1482  0.0449
  118loPI   C1A 1879  10.647  14.425   9.911 -0.1698 -0.1757 -0.1227
  118loPI   C2A 1880  10.841  14.346   9.510 -0.0548 -0.0563 -0.1897
  118loPI   C3A 1881  10.810  14.399   9.092  0.0733 -0.2394 -0.2065
  118loPI   C4A 1882  10.739  14.423   8.676 -0.1265 -0.2469 -0.1449
  118loPI   C5A 1883  10.833  14.426   8.195  0.0223 -0.1679  0.3829
  118loPI   C6A 1884  10.650  14.675   7.919 -0.0504  0.2746 -0.1003
  118loPI   C1B 1885  10.512  13.904   9.787  0.0387 -0.0033  0.1292
  118loPI   C2B 1886  10.622  13.931   9.291  0.0832  0.3682  0.1890
  118loPI   C3B 1887  10.579  13.899   8.904 -0.1181  0.0128 -0.1288
  118loPI   C4B 1888  10.642  14.004   8.523  0.1746  0.1191  0.3120
  119loPI    C1 1889  11.880  10.206  11.263  0.0878 -0.0356  0.0666
  119loPI    C2 1890  11.608  10.362  11.512  0.2265  0.0119  0.1902
  119loPI    C3 1891  11.885  10.110  11.652  0.2643 -0.0137  0.0703
  119loPI   PO4 1892  11.776  10.322  11.008  0.3804 -0.0834  0.3671
  119loPI   GL1 1893  11.475  10.328  10.633  0.2189  0.1314 -0.3137
  119loPI   GL2 1894  11.728  10.148  10.501  0.0848 -0.1393  0.1928
  119loPI   C1A 1895  11.387  10.426  10.175 -0.3150 -0.4291  0.0568
  119loPI   C2A 1896  11.480  10.462   9.815 -0.3621  0.0424 -0.2365
  119loPI   C3A 1897  11.438  10.432   9.348  0.0447 -0.3008 -0.1900
  119loPI   C4A 1898  11.491  10.486   8.946  0.0679  0.0407  0.1702
  119loPI   C5A 1899  11.438  10.421   8.602  0.1194  0.1074 -0.3736
  119loPI   C6A 1900  11.055  10.553   8.301 -0.1092  0.2379 -0.3500
  119loPI   C1B 1901  11.802  10.004  10.126 -0.2568  0.3987  0.0771
  119loPI   C2B 1902  11.738   9.938   9.652 -0.2115 -0.0471 -0.0140
  119loPI   C3B 1903  11.668   9.952   9.182 -0.1387  0.4315  0.1046
  119loPI   C4B 1904  11.732   9.833   8.761 -0.0053  0.2434 -0.0271
  120loPI    C1 1905   4.911   2.337  10.760 -0.1604 -0.0080  0.0929
  120loPI    C2 1906   5.299   2.435  10.773 -0.0618 -0.3065 -0.3645
  120loPI    C3 1907   5.150   2.175  11.038 -0.0289  0.0499  0.0146
  120loPI   PO4 1908   4.813   2.329  10.467 -0.3740  0.1761  0.2724
  120loPI   GL1 1909   4.842   2.166  10.069 -0.2144 -0.0508 -0.1744
  120loPI   GL2 1910   4.708   1.808  10.109  0.1638  0.1866 -0.2395
  120loPI   C1A 1911   5.064   2.335   9.732 -0.0056 -0.1021  0.1486
  120loPI   C2A 1912   5.079   2.369   9.262 -0.1604  0.0241 -0.3451
  120loPI   C3A 1913   5.074   2.420   8.765  0.1280  0.1082 -0.0013
  120loPI   C4A 1914   4.703   2.593   8.429  0.1007  0.0193 -0.2818
  120loPI   C5A 1915   4.443   2.679   8.082  0.2375 -0.0712  0.0186
  120loPI   C6A 1916   4.015   2.591   7.923  0.5304  0.1282  0.0834
  120loPI   C1B 1917   4.788   1.923   9.677 -0.0120  0.0216  0.0849
  120loPI   C2B 1918   4.844   1.931   9.380 -0.1420 -0.1042 -0.0830
  120loPI   C3B 1919   4.860   1.940   8.890 -0.2234  0.1149 -0.0709
  120loPI   C4B 1920   4.906   2.081   8.435  0.0730 -0.3842 -0.0015
  121loPI    C1 1921   7.278   2.209  11.022  0.1230  0.1390  0.0008
  121loPI    C2 1922   7.677   2.186  11.031  0.0968 -0.4305  0.0613
  121loPI    C3 1923   7.457   1.934  11.250 -0.2998 -0.0670  0.0948
  121loPI   PO4 1924   7.249   2.290  10.773  0.1394  0.2725  0.0108
  121loPI   GL1 1925   7.072   2.198  10.473 -0.3035 -0.1333 -0.0755
  121loPI   GL2 1926   6.981   2.164  10.110 -0.2582 -0.2151 -0.2722
  121loPI   C1A 1927   7.464   2.158  10.150  0.0282 -0.3209 -0.2573
  121loPI   C2A 1928   7.520   2.099   9.720 -0.0005  0.0485  0.0281
  121loPI   C3A 1929   7.438   2.111   9.257 -0.0490  0.0125 -0.1370
  121loPI   C4A 1930   7.483   2.064   8.850 -0.1934  0.1709 -0.1601
  121loPI   C5A 1931   7.527   2.037   8.414  0.2603  0.2273 -0.1773
  121loPI   C6A 1932   7.423   1.733   8.182 -0.2769  0.0231 -0.1011
  121loPI   C1B 1933   6.989   2.088   9.585  0.2338 -0.1119  0.0950
  121loPI   C2B 1934   6.947   2.014   9.183 -0.1218 -0.1477  0.1558
  121loPI   C3B 1935   6.941   1.966   8.788  0.4067 -0.1144  0.3214
  121loPI   C4B 1936   7.046   2.099   8.419  0.1672  0.2334  0.1076
  122loPI    C1 1937  14.754   9.973  11.270 -0.0250  0.0174  0.0007
  122loPI    C2 1938  14.828  10.363  11.316 -0.4933  0.0960  0.1485
  122loPI    C3 1939  14.961  10.101  11.588  0.1159  0.1034 -0.1246
  122loPI   PO4 1940  14.754   9.956  10.989 -0.2434 -0.1581 -0.0964
  122loPI   GL1 1941  14.712   9.947  10.618  0.1943 -0.1545  0.0281
  122loPI   GL2 1942  14.466   9.816  10.395 -0.2519 -0.4289 -0.1663
  122loPI   C1A 1943  14.947  10.106  10.191 -0.0397 -0.0658 -0.3384
  122loPI   C2A 1944  14.974  10.216   9.795  0.1770  0.1971 -0.0643
  122loPI   C3A 1945  14.828  10.297   9.448  0.3363  0.0320  0.2233
  122loPI   C4A 1946  14.800  10.237   9.046 -0.0809  0.0198  0.0530
  122loPI   C5A 1947  14.909  10.243   8.500 -0.3673 -0.0408  0.1421
  122loPI   C6A 1948  15.082  10.105   8.090  0.2917 -0.1358 -0.2535
  122loPI   C1B 1949  14.618   9.766  10.019 -0.1237  0.2206 -0.1551
  122loPI   C2B 1950  14.609   9.791   9.649 -0.1190 -0.5628  0.1085
  122loPI   C3B 1951  14.666   9.710   9.233  0.3647  0.0443 -0.0305
  122loPI   C4B 1952  14.669   9.803   8.740  0.0433  0.1967 -0.4002
  123loPI    C1 1953   3.382   7.352  10.552 -0.1414  0.0158  0.0544
  123loPI    C2 1954   3.270   7.177  10.894 -0.0760  0.0536  0.0955
  123loPI    C3 1955   3.426   7.545  10.900  0.1474 -0.0389  0.0509
  123loPI   PO4 1956   3.239   7.233  10.391 -0.1778  0.1152  0.3442
  123loPI   GL1 1957   3.204   7.041  10.075 -0.2697 -0.2475  0.1328
  123loPI   GL2 1958   3.602   7.113  10.014 -0.1046  0.1875  0.2941
  123loPI   C1A 1959   3.099   7.080   9.696 -0.0437  0.1405  0.0747
  123loPI   C2A 1960   3.213   7.135   9.330 -0.1512  0.0460 -0.1364
  123loPI   C3A 1961   3.206   7.044   8.956  0.1719  0.1760 -0.3185
  123loPI   C4A 1962   3.180   7.079   8.505  0.2364 -0.0766 -0.1190
  123loPI   C5A 1963   3.247   7.218   8.062  0.2859 -0.3667 -0.0961
  123loPI   C6A 1964   3.227   7.176   7.673  0.0049 -0.1054  0.0753
  123loPI   C1B 1965   3.732   7.267   9.541 -0.0806 -0.0430  0.3060
  123loPI   C2B 1966   3.656   7.188   9.142  0.0496  0.2373  0.1452
  123loPI   C3B 1967   3.638   7.092   8.710 -0.1473 -0.1537  0.1628
  123loPI   C4B 1968   3.682   7.060   8.310 -0.0841 -0.1305  0.0992
  124loPI    C1 1969   4.288  11.117  11.052  0.0331  0.0395 -0.2116
  124loPI    C2 1970   4.523  11.213  11.362  0.1465 -0.3219 -0.1808
  124loPI    C3 1971   4.130  11.163  11.417  0.0887  0.0820 -0.1926
  124loPI   PO4 1972   4.469  11.270  10.861  0.0300 -0.0532 -0.0510
  124loPI   GL1 1973   4.618  11.199  10.371 -0.3549 -0.5710 -0.0106
  124loPI   GL2 1974   4.344  11.058  10.325 -0.1014 -0.0587 -0.2300
  124loPI   C1A 1975   4.850  11.131   9.987 -0.0195  0.0562  0.0710
  124loPI   C2A 1976   4.772  10.970   9.571 -0.3967 -0.1863  0.1164
  124loPI   C3A 1977   4.905  10.943   9.092  0.1625  0.2454  0.0071
  124loPI   C4A 1978   4.886  10.865   8.595  0.0358 -0.0276 -0.0778
  124loPI   C5A 1979   4.905  11.039   8.231  0.1265  0.0055 -0.2212
  124loPI   C6A 1980   4.981  10.864   7.858  0.0770  0.0229 -0.1317
  124loPI   C1B 1981   4.355  10.991   9.883 -0.2274 -0.0772  0.1282
  124loPI   C2B 1982   4.342  10.875   9.453 -0.0213  0.0546 -0.3179
  124loPI   C3B 1983   4.340  10.899   9.030  0.2331  0.1390  0.2156
  124loPI   C4B 1984   4.365  10.903   8.586 -0.3772 -0.4655  0.1085
  125loPI    C1 1985  11.001   0.797  11.097  0.1647  0.2679  0.0720
  125loPI    C2 1986  11.190   0.602  11.391 -0.3609  0.0247  0.2621
  125loPI    C3 1987  10.925   0.888  11.479 -0.1379  0.3181  0.0030
  125loPI   PO4 1988  10.901   0.565  10.829 -0.3396  0.1661 -0.1976
  125loPI   GL1 1989  11.104   0.677  10.445 -0.2350  0.0809  0.0821
  125loPI   GL2 1990  11.259   0.813  10.295  0.0817 -0.0750 -0.1565
  125loPI   C1A 1991  11.153   0.353  10.159  0.0262 -0.0660  0.1677
  125loPI   C2A 1992  11.104   0.266   9.682 -0.1159 -0.1050 -0.1020
  125loPI   C3A 1993  11.107   0.254   9.258 -0.0798  0.0947  0.3415
  125loPI   C4A 1994  11.051   0.278   8.840 -0.0471  0.2916  0.3982
  125loPI   C5A 1995  11.010   0.335   8.424  0.2450 -0.0956  0.1257
  125loPI   C6A 1996  11.168   0.641   8.039  0.4446  0.0381 -0.0947
  125loPI   C1B 1997  11.364   0.763   9.830 -0.0788 -0.2257  0.1689
  125loPI   C2B 1998  11.241   0.701   9.412 -0.4914 -0.1511 -0.1789
  125loPI   C3B 1999  11.334   0.652   8.976 -0.1729 -0.1004  0.0605
  125loPI   C4B 2000  11.321   0.722   8.489  0.2538 -0.0386 -0.0611
  126loPI    C1 2001  14.983  14.434  10.746 -0.0518 -0.0140 -0.0572
  126loPI    C2 2002  14.709  14.235  10.533 -0.0691  0.0792 -0.1233
  126loPI    C3 2003  14.951  14.038  10.784 -0.1440 -0.0132 -0.1232
  126loPI   PO4 2004  14.867  14.719  10.675  0.1073  0.1318  0.1484
  126loPI   GL1 2005  14.718  14.911  10.305  0.2709  0.1883  0.1531
  126loPI   GL2 2006  14.451  14.778  10.087 -0.0855 -0.1349 -0.1065
  126loPI   C1A 2007  14.963  14.941   9.970  0.0103 -0.1254  0.0207
  126loPI   C2A 2008  14.911  14.913   9.541 -0.1459 -0.3595  0.1475
  126loPI   C3A 2009  14.904  14.809   9.109  0.3358  0.0125  0.1181
  126loPI   C4A 2010  15.016  14.727   8.701  0.0432  0.0980  0.5250
  126loPI   C5A 2011  15.053  14.899   8.211 -0.0808  0.1413 -0.0163
  126loPI   C6A 2012  15.259  14.729   7.794 -0.0660  0.2810  0.1511
  126loPI   C1B 2013  14.392  14.845   9.716  0.2020 -0.0678  0.0244
  126loPI   C2B 2014  14.398  14.854   9.320  0.0490  0.0651  0.0844
  126loPI   C3B 2015  14.466  14.697   8.879 -0.1436 -0.2395  0.0208
  126loPI   C4B 2016  14.648  14.721   8.417  0.4521 -0.0246  0.0471
  127loPI    C1 2017   4.601   2.789  10.862 -0.0841  0.0674  0.1046
  127loPI    C2 2018   4.908   2.708  11.106  0.0148  0.1174 -0.0022
  127loPI    C3 2019   4.545   2.560  11.185 -0.0325  0.4145  0.3651
  127loPI   PO4 2020   4.673   2.778  10.639 -0.1656  0.0085 -0.0686
  127loPI   GL1 2021   5.111   2.700  10.373 -0.0482 -0.0977 -0.1016
  127loPI   GL2 2022   5.327   3.011  10.350  0.0336  0.2239 -0.0901
  127loPI   C1A 2023   5.274   2.727   9.915 -0.1698  0.0230 -0.0823
  127loPI   C2A 2024   5.297   2.791   9.358  0.2146  0.0016  0.0148
  127loPI   C3A 2025   5.317   2.921   8.955 -0.3537  0.1638  0.0677
  127loPI   C4A 2026   5.215   3.028   8.534 -0.2843 -0.4916 -0.2174
  127loPI   C5A 2027   5.091   3.278   8.210 -0.0790  0.0154 -0.1906
  127loPI   C6A 2028   4.823   3.672   8.175 -0.2087  0.2463 -0.1536
  127loPI   C1B 2029   5.414   3.230   9.940 -0.0913  0.0712 -0.0390
  127loPI   C2B 2030   5.505   3.329   9.625 -0.1425 -0.1736 -0.0324
  127loPI   C3B 2031   5.476   3.355   9.223 -0.0409  0.0123  0.4639
  127loPI   C4B 2032   5.602   3.343   8.796 -0.0674 -0.0690 -0.1402
  128loPI    C1 2033  14.730   2.156  10.491 -0.0935  0.0056 -0.0014
  128loPI    C2 2034  14.935   2.362  10.765  0.2120 -0.3012  0.0072
  128loPI    C3 2035  14.538   2.401  10.742  0.2423  0.1388  0.1309
  128loPI   PO4 2036  14.848   2.269  10.167 -0.0291  0.0606 -0.3407
  128loPI   GL1 2037  15.009   2.386   9.801  0.0713 -0.2449 -0.3631
  128loPI   GL2 2038  14.672   2.202   9.728  0.0903 -0.0587 -0.0931
  128loPI   C1A 2039  15.053   2.564   9.364 -0.1478 -0.1154  0.1950
  128loPI   C2A 2040  14.983   2.639   8.910 -0.3185 -0.1447  0.2274
  128loPI   C3A 2041  14.990   2.609   8.486  0.4915  0.1114  0.0314
  128loPI   C4A 2042  15.002   2.607   7.970  0.5777  0.0196  0.0319
  128loPI   C5A 2043  15.081   2.687   7.594 -0.0976  0.0209 -0.0588
  128loPI   C6A 2044  14.962   3.001   7.185 -0.3815 -0.0226  0.1407
  128loPI   C1B 2045  14.691   2.102   9.341 -0.2561 -0.0583 -0.1195
  128loPI   C2B 2046  14.704   2.098   8.964  0.0201 -0.1214 -0.1665
  128loPI   C3B 2047  14.807   2.087   8.605  0.0036 -0.1325 -0.2456
  128loPI   C4B 2048  14.776   2.151   8.191  0.0299  0.0575  0.0252
  129loPI    C1 2049  16.999  14.678  10.518  0.3053 -0.0616  0.1669
  129loPI    C2 2050  16.982  15.053  10.657  0.0006 -0.0224  0.0325
  129loPI    C3 2051  17.105  14.756  10.895 -0.1310  0.1046  0.2617
  129loPI   PO4 2052  17.018  14.626  10.345  0.1776  0.0480 -0.0381
  129loPI   GL1 2053  17.156  14.646   9.928  0.0214  0.6028 -0.1100
  129loPI   GL2 2054  16.801  14.695   9.877  0.4799 -0.1893 -0.2447
  129loPI   C1A 2055  17.038  14.880   9.504  0.0381 -0.3095 -0.1979
  129loPI   C2A 2056  16.851  15.142   9.172 -0.0781  0.0692 -0.0405
  129loPI   C3A 2057  16.692  15.248   8.820  0.0751  0.0291 -0.1741
  129loPI   C4A 2058  16.455  15.250   8.447  0.1942 -0.4657 -0.0227
  129loPI   C5A 2059  16.280  15.559   8.115  0.0582 -0.1149  0.0515
  129loPI   C6A 2060  15.981  15.870   7.975  0.1295  0.3088 -0.0698
  129loPI   C1B 2061  16.835  14.377   9.581  0.2830 -0.1397 -0.2592
  129loPI   C2B 2062  16.766  14.273   9.178  0.0408 -0.1068 -0.0179
  129loPI   C3B 2063  16.765  14.306   8.806  0.2340 -0.0390  0.0347
  129loPI   C4B 2064  16.810  14.409   8.478  0.0614  0.0653  0.0996
  130loPI    C1 2065   8.417  16.963  10.891 -0.0570  0.2319 -0.1333
  130loPI    C2 2066   8.322  17.246  11.157  0.1233  0.1503  0.0202
  130loPI    C3 2067   8.395  16.872  11.280  0.1351  0.0947 -0.1529
  130loPI   PO4 2068   8.348  17.086  10.640 -0.2415 -0.3461 -0.0215
  130loPI   GL1 2069   8.462  17.418  10.348  0.0714  0.1074  0.0558
  130loPI   GL2 2070   8.603  17.666  10.249 -0.1597  0.1060 -0.2256
  130loPI   C1A 2071   8.489  17.387   9.879  0.1770 -0.1642  0.1028
  130loPI   C2A 2072   8.540  17.399   9.445  0.0607 -0.4266  0.1134
  130loPI   C3A 2073   8.514  17.409   9.008  0.0422  0.1227 -0.0634
  130loPI   C4A 2074   8.718  17.387   8.638 -0.0939  0.0726 -0.0754
  130loPI   C5A 2075   8.903  17.589   8.278  0.4676 -0.0534 -0.0579
  130loPI   C6A 2076   9.175  17.938   8.192 -0.0973 -0.0716 -0.1130
  130loPI   C1B 2077   8.697  17.815   9.907 -0.2093  0.0776  0.1531
  130loPI   C2B 2078   8.686  17.867   9.519  0.3537 -0.1158 -0.2012
  130loPI   C3B 2079   8.688  17.847   9.147  0.0467 -0.1412  0.2454
  130loPI   C4B 2080   8.906  17.838   8.726  0.0332  0.2210  0.3209
  131loPI    C1 2081  14.380   7.816  10.758 -0.0573  0.0207 -0.2533
  131loPI    C2 2082  14.199   7.823  11.114  0.1128 -0.1763 -0.1610
  131loPI    C3 2083  14.579   7.701  11.085  0.2377  0.2375 -0.3514
  131loPI   PO4 2084  14.194   7.734  10.566 -0.0458  0.3942 -0.2947
  131loPI   GL1 2085  14.315   7.498  10.136 -0.0838  0.1095 -0.1361
  131loPI   GL2 2086  14.654   7.580  10.173 -0.0917 -0.1554  0.4710
  131loPI   C1A 2087  14.148   7.520   9.641 -0.0533 -0.1368 -0.3446
  131loPI   C2A 2088  14.162   7.392   9.174 -0.0048  0.0721 -0.0681
  131loPI   C3A 2089  14.073   7.409   8.811 -0.2379 -0.1489  0.0316
  131loPI   C4A 2090  14.226   7.489   8.488  0.0886  0.1284 -0.1013
  131loPI   C5A 2091  14.441   7.562   8.070 -0.0980  0.0394 -0.0686
  131loPI   C6A 2092  14.853   7.481   7.949  0.1652  0.1842 -0.2254
  131loPI   C1B 2093  14.679   7.621   9.704  0.0209  0.1937 -0.1089
  131loPI   C2B 2094  14.688   7.579   9.286  0.0030  0.3141  0.2816
  131loPI   C3B 2095  14.574   7.495   8.939 -0.0243 -0.2578 -0.0946
  131loPI   C4B 2096  14.722   7.542   8.478  0.2065  0.1085  0.0777
  132loPI    C1 2097   0.939  12.105  10.516 -0.0466 -0.0419  0.0229
  132loPI    C2 2098   0.872  12.477  10.648  0.0654  0.0817 -0.2607
  132loPI    C3 2099   0.905  12.176  10.909 -0.0760  0.2607 -0.0313
  132loPI   PO4 2100   0.847  12.183  10.261  0.2378  0.1176 -0.0268
  132loPI   GL1 2101   1.004  11.980   9.874  0.2744 -0.5012 -0.1137
  132loPI   GL2 2102   0.698  11.796   9.693  0.3580 -0.0835 -0.1542
  132loPI   C1A 2103   1.176  11.887   9.479  0.2210  0.2931  0.2966
  132loPI   C2A 2104   1.277  11.852   9.029 -0.1541  0.0011  0.0603
  132loPI   C3A 2105   1.411  12.005   8.609 -0.4353  0.1506  0.2137
  132loPI   C4A 2106   1.476  11.983   8.269  0.2590  0.0247 -0.0645
  132loPI   C5A 2107   1.622  11.892   7.874 -0.1092 -0.3275  0.2113
  132loPI   C6A 2108   2.031  11.866   7.712  0.0777  0.0004  0.1828
  132loPI   C1B 2109   0.637  11.763   9.328 -0.2654 -0.0331  0.4363
  132loPI   C2B 2110   0.644  11.725   8.974  0.0660 -0.0167  0.5326
  132loPI   C3B 2111   0.951  11.764   8.688  0.1086 -0.0047  0.0783
  132loPI   C4B 2112   1.295  11.541   8.295 -0.0491 -0.2292  0.3881
  133loPI    C1 2113  17.394   0.892  10.141  0.0434  0.2588  0.0473
  133loPI    C2 2114  17.573   0.664  10.416  0.2219  0.1201 -0.1797
  133loPI    C3 2115  17.600   1.062  10.439 -0.0600  0.1232  0.1973
  133loPI   PO4 2116  17.436   0.758   9.901 -0.0515 -0.3007  0.1936
  133loPI   GL1 2117  17.401   0.373   9.615  0.1941  0.1098 -0.1974
  133loPI   GL2 2118  17.093   0.733   9.522  0.1059 -0.1558 -0.3093
  133loPI   C1A 2119  17.563   0.693   9.294 -0.2792  0.0834  0.1399
  133loPI   C2A 2120  17.875   0.924   9.250 -0.1156  0.0039 -0.1765
  133loPI   C3A 2121  18.125   0.912   8.811 -0.0148 -0.1957  0.0637
  133loPI   C4A 2122  18.244   0.857   8.373 -0.0224  0.0392 -0.0035
  133loPI   C5A 2123  18.212   0.720   7.981  0.3122  0.1453  0.2137
  133loPI   C6A 2124  18.303   0.542   7.551  0.2266  0.1446  0.1173
  133loPI   C1B 2125  16.941   0.702   9.220  0.0813 -0.0355  0.1540
  133loPI   C2B 2126  16.990   0.739   8.658 -0.3697  0.2585  0.0656
  133loPI   C3B 2127  17.203   0.925   8.310 -0.4202 -0.2371  0.2524
  133loPI   C4B 2128  17.470   1.186   7.976  0.0175 -0.3219 -0.1041
  134loPI    C1 2129   3.573   4.638  10.763  0.2941  0.1336 -0.1596
  134loPI    C2 2130   3.321   4.928  10.873  0.1188 -0.0726 -0.0098
  134loPI    C3 2131   3.282   4.561  11.025  0.5034 -0.1111  0.0057
  134loPI   PO4 2132   3.778   4.623  10.608  0.2265 -0.2022 -0.3949
  134loPI   GL1 2133   3.894   4.817  10.200  0.4431 -0.3308  0.2087
  134loPI   GL2 2134   3.698   4.631  10.087 -0.0729 -0.1928  0.1639
  134loPI   C1A 2135   4.076   5.052   9.837  0.2835  0.0774 -0.0122
  134loPI   C2A 2136   4.299   5.088   9.519  0.3927 -0.0299 -0.1399
  134loPI   C3A 2137   4.207   5.028   9.145 -0.2392 -0.2203  0.3162
  134loPI   C4A 2138   4.219   5.012   8.760 -0.3757  0.0513  0.1012
  134loPI   C5A 2139   4.183   5.034   8.291  0.2318 -0.0027  0.1608
  134loPI   C6A 2140   3.995   5.086   7.818 -0.1160  0.1771 -0.0047
  134loPI   C1B 2141   3.916   4.565   9.781  0.0605  0.0275  0.0688
  134loPI   C2B 2142   4.029   4.545   9.416 -0.1987  0.2583  0.0282
  134loPI   C3B 2143   4.017   4.513   8.920 -0.0314 -0.0290 -0.0507
  134loPI   C4B 2144   4.023   4.561   8.538  0.1908  0.2187 -0.1441
  135loPI    C1 2145   7.018   4.634  10.852 -0.1376 -0.0527 -0.0261
  135loPI    C2 2146   6.957   4.453  11.203  0.2880  0.0500  0.1065
  135loPI    C3 2147   7.125   4.252  10.901  0.0148 -0.0086 -0.0089
  135loPI   PO4 2148   6.850   4.907  10.937  0.2705  0.0309 -0.0935
  135loPI   GL1 2149   6.847   5.249  10.687 -0.0576 -0.1719  0.1466
  135loPI   GL2 2150   7.144   5.477  10.603 -0.1165  0.0126 -0.1115
  135loPI   C1A 2151   6.813   5.305  10.218 -0.4083  0.2311 -0.0927
  135loPI   C2A 2152   6.802   5.308   9.816  0.1135  0.3005 -0.0545
  135loPI   C3A 2153   6.733   5.396   9.386 -0.1574  0.0149  0.3060
  135loPI   C4A 2154   6.796   5.247   8.954  0.0325  0.0634  0.1289
  135loPI   C5A 2155   6.792   5.201   8.463 -0.2329 -0.1642 -0.1353
  135loPI   C6A 2156   6.588   4.876   8.245 -0.0469  0.0556  0.0858
  135loPI   C1B 2157   7.305   5.403  10.229 -0.2195  0.1101  0.1129
  135loPI   C2B 2158   7.300   5.308   9.730 -0.1672  0.1316 -0.1742
  135loPI   C3B 2159   7.322   5.315   9.281 -0.0768  0.1379  0.2474
  135loPI   C4B 2160   7.341   5.225   8.852 -0.0679  0.1398  0.1334
  136loPI    C1 2161  12.607  14.163  11.084 -0.0084  0.0151  0.1744
  136loPI    C2 2162  12.915  13.980  11.261  0.2725  0.2599 -0.0502
  136loPI    C3 2163  12.830  14.360  11.351 -0.1886  0.0908  0.2714
  136loPI   PO4 2164  12.641  14.156  10.791 -0.3666 -0.2129  0.1809
  136loPI   GL1 2165  12.667  14.225  10.363  0.0872 -0.0146  0.0589
  136loPI   GL2 2166  12.349  14.419  10.388 -0.0553 -0.2158 -0.0411
  136loPI   C1A 2167  12.663  14.173   9.903 -0.0010  0.1135  0.0569
  136loPI   C2A 2168  12.698  14.185   9.511  0.0920 -0.1273  0.2851
  136loPI   C3A 2169  12.611  14.088   9.070  0.2702  0.0044 -0.1773
  136loPI   C4A 2170  12.494  13.936   8.619  0.0231 -0.2971 -0.0341
  136loPI   C5A 2171  12.470  13.637   8.488  0.1139 -0.2253  0.2208
  136loPI   C6A 2172  12.376  13.276   8.222  0.1239  0.0049 -0.0343
  136loPI   C1B 2173  12.354  14.529   9.983  0.1765 -0.0177  0.0557
  136loPI   C2B 2174  12.374  14.559   9.539 -0.1779  0.1522  0.3765
  136loPI   C3B 2175  12.386  14.499   9.119 -0.1213  0.1188 -0.1412
  136loPI   C4B 2176  12.546  14.457   8.663 -0.0410 -0.3328  0.0836
  137loPI    C1 2177   3.818  16.523  10.439  0.0985  0.0198 -0.2855
  137loPI    C2 2178   4.152  16.347  10.307  0.2841 -0.0618  0.2683
  137loPI    C3 2179   3.893  16.141  10.532 -0.0221  0.0730  0.0451
  137loPI   PO4 2180   3.644  16.545  10.256  0.0821 -0.2750  0.0686
  137loPI   GL1 2181   3.577  16.864  10.019 -0.3168 -0.0341 -0.0822
  137loPI   GL2 2182   3.364  17.119   9.926  0.0323  0.0056 -0.1263
  137loPI   C1A 2183   3.455  16.740   9.637 -0.4761 -0.0990  0.0817
  137loPI   C2A 2184   3.491  16.806   9.193  0.1560 -0.0341  0.0443
  137loPI   C3A 2185   3.577  16.897   8.731 -0.0665  0.0603  0.3207
  137loPI   C4A 2186   3.410  16.806   8.409  0.1649 -0.4357  0.1049
  137loPI   C5A 2187   3.522  16.805   8.047 -0.2100  0.2958  0.1265
  137loPI   C6A 2188   3.651  17.024   7.677 -0.1670  0.2083 -0.1121
  137loPI   C1B 2189   3.649  17.241   9.556  0.2743  0.1708 -0.1357
  137loPI   C2B 2190   3.621  17.265   9.137 -0.0808  0.1299 -0.1332
  137loPI   C3B 2191   3.612  17.395   8.671  0.0413  0.2202  0.0230
  137loPI   C4B 2192   3.688  17.348   8.258 -0.1383 -0.0011 -0.1181
  138loPI    C1 2193  15.181  13.274  10.826  0.1687 -0.0493  0.1114
  138loPI    C2 2194  15.213  13.627  10.641 -0.0716 -0.0514  0.0624
  138loPI    C3 2195  15.475  13.526  10.926  0.0848  0.1043 -0.0244
  138loPI   PO4 2196  14.882  13.135  10.720  0.0896 -0.0476 -0.0685
  138loPI   GL1 2197  14.720  13.266  10.323 -0.3254  0.0640 -0.1193
  138loPI   GL2 2198  14.760  12.973  10.232  0.0278  0.3374  0.1549
  138loPI   C1A 2199  14.471  13.366   9.930 -0.2300 -0.2984 -0.0950
  138loPI   C2A 2200  14.282  13.418   9.704 -0.2096 -0.1317 -0.3037
  138loPI   C3A 2201  14.273  13.340   9.272 -0.1423 -0.2358  0.1820
  138loPI   C4A 2202  14.362  13.309   8.840  0.0289  0.0979  0.1431
  138loPI   C5A 2203  14.136  13.220   8.488 -0.3056 -0.1249  0.0549
  138loPI   C6A 2204  14.046  13.480   8.127 -0.0380 -0.1374 -0.1017
  138loPI   C1B 2205  14.649  12.906   9.812  0.2623 -0.0478 -0.2469
  138loPI   C2B 2206  14.627  12.965   9.384 -0.2621 -0.0629 -0.2586
  138loPI   C3B 2207  14.571  12.826   9.019  0.2086 -0.2326 -0.1496
  138loPI   C4B 2208  14.624  12.973   8.520 -0.2263  0.0643  0.2829
  139loPI    C1 2209   2.150   0.099  10.767  0.1185  0.0308  0.1340
  139loPI    C2 2210   2.130  -0.290  10.858 -0.0646 -0.0056 -0.0546
  139loPI    C3 2211   2.055  -0.014  11.138 -0.0056 -0.1066  0.0612
  139loPI   PO4 2212   2.330   0.093  10.562  0.4121 -0.0436  0.0372
  139loPI   GL1 2213   2.513   0.097  10.084 -0.3925 -0.1975 -0.2445
  139loPI   GL2 2214   2.885  -0.093  10.011 -0.1894  0.0345 -0.3480
  139loPI   C1A 2215   2.440  -0.222   9.807 -0.1222  0.1050 -0.2207
  139loPI   C2A 2216   2.354  -0.265   9.347  0.0660 -0.1077  0.1526
  139loPI   C3A 2217   2.444  -0.132   8.981 -0.2132  0.0116  0.1158
  139loPI   C4A 2218   2.442  -0.186   8.542 -0.0296 -0.0177  0.0267
  139loPI   C5A 2219   2.530  -0.168   8.050 -0.0366 -0.0978 -0.2306
  139loPI   C6A 2220   2.461  -0.052   7.588 -0.2053  0.0933 -0.1405
  139loPI   C1B 2221   2.962  -0.083   9.624  0.2463  0.1826 -0.3322
  139loPI   C2B 2222   2.978  -0.143   9.099  0.1396 -0.2759  0.0416
  139loPI   C3B 2223   2.918  -0.099   8.697  0.0556 -0.1391  0.1086
  139loPI   C4B 2224   3.012  -0.139   8.345  0.1132 -0.1090  0.2949
  140loPI    C1 2225   2.873   4.088  10.959 -0.0032 -0.0445 -0.2263
  140loPI    C2 2226   2.485   4.164  11.017 -0.0122 -0.3116  0.0949
  140loPI    C3 2227   2.761   4.428  11.137 -0.0920 -0.1042 -0.1674
  140loPI   PO4 2228   2.925   4.058  10.655 -0.4241  0.2181  0.1235
  140loPI   GL1 2229   3.091   3.829  10.348  0.0449  0.1615  0.2414
  140loPI   GL2 2230   3.368   3.617  10.273  0.1310 -0.3392 -0.1925
  140loPI   C1A 2231   3.107   3.873   9.941 -0.3662 -0.2155 -0.0163
  140loPI   C2A 2232   3.258   3.907   9.494  0.1409  0.0450 -0.3610
  140loPI   C3A 2233   3.261   4.030   8.988 -0.0038 -0.2324 -0.0080
  140loPI   C4A 2234   3.284   4.058   8.515  0.0025  0.2063 -0.2111
  140loPI   C5A 2235   3.286   3.911   8.126  0.0728  0.2394  0.0919
  140loPI   C6A 2236   3.217   3.819   7.772 -0.0392 -0.0618 -0.0723
  140loPI   C1B 2237   3.422   3.504   9.843 -0.2055  0.0653  0.1661
  140loPI   C2B 2238   3.620   3.476   9.394  0.0550 -0.1436 -0.1431
  140loPI   C3B 2239   3.641   3.696   9.069  0.0883  0.3306 -0.1241
  140loPI   C4B 2240   3.606   3.643   8.593 -0.0397  0.0019 -0.3420
  141loPI    C1 2241  10.842   2.147  10.827 -0.1158  0.1624 -0.1199
  141loPI    C2 2242  11.113   2.135  10.533  0.0193  0.3271 -0.0042
  141loPI    C3 2243  11.172   2.373  10.849 -0.2032  0.2731  0.0794
  141loPI   PO4 2244  10.631   2.103  10.659  0.1869  0.1267  0.1669
  141loPI   GL1 2245  10.609   2.221  10.228 -0.1019 -0.4897  0.0352
  141loPI   GL2 2246  10.814   1.971  10.185  0.3228 -0.0844  0.0663
  141loPI   C1A 2247  10.388   2.006   9.931 -0.2424  0.1906 -0.1167
  141loPI   C2A 2248  10.364   1.935   9.395  0.1247 -0.1210 -0.1023
  141loPI   C3A 2249  10.383   2.029   8.941  0.3058  0.0955  0.1149
  141loPI   C4A 2250  10.344   1.894   8.561 -0.2811  0.0999 -0.1109
  141loPI   C5A 2251  10.492   2.110   8.258  0.0037  0.0162  0.2018
  141loPI   C6A 2252  10.635   1.928   7.875 -0.0725  0.1091  0.0663
  141loPI   C1B 2253  10.833   2.123   9.786 -0.1554  0.0032  0.3654
  141loPI   C2B 2254  10.828   1.961   9.479  0.0284  0.2650  0.0099
  141loPI   C3B 2255  10.866   1.892   9.088 -0.1298  0.3833 -0.1529
  141loPI   C4B 2256  10.801   2.055   8.700  0.0113 -0.2127  0.4139
  142loPI    C1 2257  10.081   5.880  10.817 -0.0345 -0.2491  0.0184
  142loPI    C2 2258   9.758   5.959  11.039 -0.0618 -0.0407 -0.0934
  142loPI    C3 2259   9.991   5.647  11.130 -0.2093 -0.1024  0.0787
  142loPI   PO4 2260  10.051   5.841  10.642  0.0235  0.0550 -0.3988
  142loPI   GL1 2261   9.875   5.787  10.297 -0.0024 -0.3454  0.2478
  142loPI   GL2 2262   9.663   5.883  10.200 -0.0055  0.0904 -0.0351
  142loPI   C1A 2263   9.866   5.705   9.783  0.1986  0.0390 -0.1254
  142loPI   C2A 2264   9.922   5.619   9.345  0.3906  0.0113 -0.0060
  142loPI   C3A 2265   9.850   5.525   9.045 -0.2160 -0.0413 -0.1850
  142loPI   C4A 2266   9.858   5.528   8.674 -0.1351  0.1052  0.0438
  142loPI   C5A 2267   9.951   5.560   8.226  0.0769  0.1620 -0.3753
  142loPI   C6A 2268  10.402   5.609   8.045  0.2286 -0.1948  0.1965
  142loPI   C1B 2269   9.585   6.098   9.872 -0.2519  0.1702  0.0668
  142loPI   C2B 2270   9.629   6.045   9.429  0.0976 -0.1093 -0.3224
  142loPI   C3B 2271   9.586   5.934   9.028  0.1521  0.0200  0.0447
  142loPI   C4B 2272   9.625   5.932   8.536  0.1096  0.1385 -0.2782
  143loPI    C1 2273  17.117  15.520  10.586 -0.2048 -0.4360  0.1924
  143loPI    C2 2274  16.858  15.822  10.624  0.1769 -0.0617 -0.0861
  143loPI    C3 2275  17.165  15.788  10.879  0.1578 -0.1931 -0.0801
  143loPI   PO4 2276  17.147  15.543  10.302  0.1545 -0.1051  0.1043
  143loPI   GL1 2277  17.135  15.505   9.833 -0.0937  0.0229 -0.0658
  143loPI   GL2 2278  17.378  15.661   9.764  0.0294  0.1258  0.0920
  143loPI   C1A 2279  17.185  15.682   9.318 -0.2909 -0.0552  0.4593
  143loPI   C2A 2280  17.066  15.722   8.871  0.0212 -0.2279 -0.3630
  143loPI   C3A 2281  16.775  15.729   8.461 -0.0443  0.1442 -0.1908
  143loPI   C4A 2282  16.658  15.820   7.995 -0.0202 -0.0243  0.1812
  143loPI   C5A 2283  16.418  15.996   7.831 -0.2736 -0.1824 -0.1958
  143loPI   C6A 2284  16.452  16.206   7.450 -0.0033  0.1335 -0.1995
  143loPI   C1B 2285  17.499  16.026   9.409  0.0469 -0.1587 -0.1518
  143loPI   C2B 2286  17.546  16.200   9.034 -0.1408 -0.2699 -0.0860
  143loPI   C3B 2287  17.674  16.336   8.753  0.2538 -0.1005 -0.2322
  143loPI   C4B 2288  17.774  16.442   8.371  0.2408  0.0495  0.1400
  144loPI    C1 2289  12.430  18.192  11.010 -0.1338 -0.0391 -0.0788
  144loPI    C2 2290  12.041  18.151  10.925 -0.1802  0.0600  0.0824
  144loPI    C3 2291  12.251  17.838  11.060 -0.2212  0.0246  0.0638
  144loPI   PO4 2292  12.535  18.255  10.811 -0.3457 -0.0022  0.0111
  144loPI   GL1 2293  12.597  18.040  10.451 -0.2009  0.1522 -0.0043
  144loPI   GL2 2294  12.559  18.225  10.282  0.1413 -0.1157  0.0793
  144loPI   C1A 2295  12.788  17.826  10.150 -0.0526  0.0520  0.1466
  144loPI   C2A 2296  12.752  17.797   9.687 -0.0007 -0.0640 -0.2259
  144loPI   C3A 2297  12.712  17.766   9.226 -0.3291  0.5486  0.0566
  144loPI   C4A 2298  12.752  17.665   8.814  0.2428 -0.1911 -0.0447
  144loPI   C5A 2299  12.747  17.664   8.404  0.1815 -0.1809 -0.0083
  144loPI   C6A 2300  12.615  17.508   8.034 -0.0592 -0.1192 -0.0684
  144loPI   C1B 2301  12.454  18.213   9.855 -0.0707 -0.0348  0.2312
  144loPI   C2B 2302  12.371  18.154   9.441 -0.0717 -0.1063  0.0935
  144loPI   C3B 2303  12.449  18.117   8.953  0.2307  0.0462 -0.0024
  144loPI   C4B 2304  12.452  18.128   8.502  0.1586  0.0066  0.1120
  145loPI    C1 2305  10.671  11.693  11.138 -0.2368 -0.0346 -0.1014
  145loPI    C2 2306  10.637  11.463  11.464  0.2947 -0.1244 -0.1006
  145loPI    C3 2307  10.813  11.821  11.490 -0.0066  0.0353 -0.2177
  145loPI   PO4 2308  10.865  11.582  10.981  0.0664  0.0803 -0.2293
  145loPI   GL1 2309  11.290  11.546  10.864 -0.0536 -0.1929 -0.0213
  145loPI   GL2 2310  11.542  11.611  10.623 -0.1519  0.2615 -0.0218
  145loPI   C1A 2311  11.046  11.683  10.374 -0.2526 -0.6177  0.0773
  145loPI   C2A 2312  11.096  11.650   9.875 -0.2017 -0.0373  0.2107
  145loPI   C3A 2313  10.986  11.659   9.525  0.0666  0.3606  0.0713
  145loPI   C4A 2314  10.992  11.756   9.061  0.3776 -0.1250  0.2217
  145loPI   C5A 2315  11.165  12.014   8.653 -0.3844 -0.4202  0.2160
  145loPI   C6A 2316  11.457  12.326   8.598  0.3431  0.1345 -0.0814
  145loPI   C1B 2317  11.513  11.777  10.256 -0.1847  0.0485 -0.0491
  145loPI   C2B 2318  11.542  11.812   9.792 -0.0597  0.3146  0.0101
  145loPI   C3B 2319  11.616  11.766   9.396 -0.5560  0.3696  0.1901
  145loPI   C4B 2320  11.579  11.815   9.008  0.1063 -0.2989 -0.1439
  146loPI    C1 2321   1.468  13.697  10.510  0.0775 -0.2583  0.1800
  146loPI    C2 2322   1.294  13.642  10.867  0.3661  0.1178  0.3857
  146loPI    C3 2323   1.692  13.623  10.833  0.3230 -0.2783  0.0076
  146loPI   PO4 2324   1.362  13.611  10.323 -0.1394 -0.0345  0.2227
  146loPI   GL1 2325   1.332  13.551   9.885 -0.0379  0.2017  0.0280
  146loPI   GL2 2326   1.326  13.799   9.684  0.1027 -0.1690 -0.2113
  146loPI   C1A 2327   1.262  13.353   9.517 -0.2189 -0.0944  0.2375
  146loPI   C2A 2328   1.193  13.275   9.177 -0.1826  0.0609 -0.1232
  146loPI   C3A 2329   1.262  13.285   8.710 -0.3094  0.1775 -0.0903
  146loPI   C4A 2330   1.506  12.966   8.376  0.1057 -0.0498  0.1837
  146loPI   C5A 2331   1.624  12.842   8.001  0.0600 -0.0164 -0.1157
  146loPI   C6A 2332   1.477  12.825   7.589  0.0032 -0.0333 -0.0784
  146loPI   C1B 2333   1.522  13.762   9.243  0.2235 -0.0681 -0.4443
  146loPI   C2B 2334   1.463  13.729   8.761  0.1713  0.0665 -0.1889
  146loPI   C3B 2335   1.442  13.543   8.326  0.2292  0.2089  0.0666
  146loPI   C4B 2336   1.632  13.348   7.948  0.0690 -0.1845 -0.0513
  147loPI    C1 2337  13.895  16.453  10.683  0.2587  0.1039 -0.1394
  147loPI    C2 2338  13.997  16.364  11.059 -0.0551  0.1590 -0.0383
  147loPI    C3 2339  14.109  16.713  10.898  0.3355  0.0093 -0.1010
  147loPI   PO4 2340  13.670  16.293  10.657 -0.3688  0.0448 -0.3247
  147loPI   GL1 2341  13.577  15.863  10.478  0.0713 -0.0376  0.0280
  147loPI   GL2 2342  13.420  15.528  10.433 -0.0005  0.0173  0.0054
  147loPI   C1A 2343  13.536  16.087  10.101  0.0394  0.0168 -0.1710
  147loPI   C2A 2344  13.537  16.100   9.725  0.0243  0.3427 -0.1533
  147loPI   C3A 2345  13.485  16.046   9.246 -0.1250 -0.4011  0.0342
  147loPI   C4A 2346  13.565  15.977   8.901  0.1311  0.0094  0.1719
  147loPI   C5A 2347  13.763  15.840   8.486  0.1623 -0.0830 -0.1340
  147loPI   C6A 2348  13.671  15.488   8.181  0.0892 -0.2790 -0.1993
  147loPI   C1B 2349  13.282  15.478   9.981  0.0896  0.0421 -0.3564
  147loPI   C2B 2350  13.303  15.633   9.507 -0.1094 -0.1328  0.0609
  147loPI   C3B 2351  13.300  15.531   9.190 -0.0780  0.3008 -0.2444
  147loPI   C4B 2352  13.484  15.498   8.679  0.2550 -0.0693 -0.2389
  148loPI    C1 2353  10.899  16.361  10.945 -0.1625  0.0198  0.0703
  148loPI    C2 2354  10.839  15.968  10.983  0.2720 -0.0580 -0.0046
  148loPI    C3 2355  10.963  16.183  11.297  0.1278  0.0029  0.0112
  148loPI   PO4 2356  10.907  16.471  10.655 -0.1909  0.1623  0.1502
  148loPI   GL1 2357  10.771  16.876  10.394  0.0083  0.0947 -0.2661
  148loPI   GL2 2358  10.923  17.120  10.330 -0.2713  0.0552  0.1584
  148loPI   C1A 2359  10.812  16.711  10.057  0.1061  0.1419 -0.1119
  148loPI   C2A 2360  10.718  16.626   9.742  0.1719  0.2009  0.3443
  148loPI   C3A 2361  10.646  16.621   9.359 -0.1640 -0.2283 -0.0170
  148loPI   C4A 2362  10.833  16.722   8.919 -0.1233  0.2017  0.1214
  148loPI   C5A 2363  10.762  16.463   8.492  0.0112  0.0151  0.1279
  148loPI   C6A 2364  10.919  16.208   8.202 -0.2023 -0.0317  0.2792
  148loPI   C1B 2365  10.963  17.120   9.856 -0.1100 -0.1614 -0.0136
  148loPI   C2B 2366  11.031  17.138   9.405  0.2328 -0.1977 -0.3263
  148loPI   C3B 2367  10.994  17.145   9.066  0.1514 -0.0659 -0.1072
  148loPI   C4B 2368  10.985  17.170   8.660 -0.0034  0.1126  0.0267
  149loPI    C1 2369  12.510  16.419  11.110  0.0055  0.2876 -0.0020
  149loPI    C2 2370  12.409  16.801  11.172  0.1694  0.3000  0.2011
  149loPI    C3 2371  12.570  16.587  11.468  0.1372  0.0912  0.0697
  149loPI   PO4 2372  12.277  16.384  10.904 -0.0504 -0.0073  0.1868
  149loPI   GL1 2373  12.108  16.327  10.487 -0.0279  0.2648  0.2020
  149loPI   GL2 2374  11.727  16.277  10.469 -0.1335 -0.0213 -0.0160
  149loPI   C1A 2375  12.138  16.445  10.017 -0.0566 -0.1728  0.0907
  149loPI   C2A 2376  12.163  16.246   9.612  0.0756  0.2201  0.4369
  149loPI   C3A 2377  12.182  16.275   9.229 -0.0080  0.0273 -0.0719
  149loPI   C4A 2378  12.223  16.287   8.873  0.0449 -0.0683 -0.1439
  149loPI   C5A 2379  12.210  16.271   8.423  0.1797 -0.0128 -0.1246
  149loPI   C6A 2380  12.306  15.957   8.044  0.2294  0.3564  0.0111
  149loPI   C1B 2381  11.668  16.248  10.016 -0.0294  0.0572  0.0092
  149loPI   C2B 2382  11.656  16.224   9.617 -0.1276  0.1951 -0.3720
  149loPI   C3B 2383  11.726  16.176   9.172  0.1296  0.2748 -0.0228
  149loPI   C4B 2384  11.727  16.213   8.776  0.0222 -0.1217  0.4172
  150loPI    C1 2385   1.806   0.383  10.455 -0.0224  0.2544 -0.0871
  150loPI    C2 2386   1.718   0.684  10.704 -0.0355  0.0951  0.1040
  150loPI    C3 2387   1.704   0.307  10.835  0.0923  0.0170 -0.1026
  150loPI   PO4 2388   2.097   0.519  10.288  0.2578  0.0119  0.0193
  150loPI   GL1 2389   2.233   0.438   9.881  0.2244  0.3616  0.1897
  150loPI   GL2 2390   2.256   0.720   9.873  0.1355 -0.2123 -0.4922
  150loPI   C1A 2391   2.131   0.170   9.481  0.1070  0.1295  0.2912
  150loPI   C2A 2392   2.079   0.151   9.133  0.2220  0.1274  0.0722
  150loPI   C3A 2393   2.117   0.234   8.713  0.2358  0.2240 -0.0556
  150loPI   C4A 2394   2.239   0.298   8.347 -0.3076  0.0981 -0.0368
  150loPI   C5A 2395   2.212   0.233   7.966 -0.1701 -0.2845  0.3286
  150loPI   C6A 2396   1.927   0.176   7.710  0.4684  0.1749 -0.2176
  150loPI   C1B 2397   2.241   0.648   9.444  0.0482  0.0672 -0.1219
  150loPI   C2B 2398   2.289   0.742   9.043 -0.1509  0.4359  0.2118
  150loPI   C3B 2399   2.373   0.726   8.665 -0.0750  0.0276 -0.1237
  150loPI   C4B 2400   2.427   0.742   8.303 -0.0142  0.2051  0.1488
  151loPI    C1 2401   6.975   9.220  10.991 -0.0604  0.1291  0.1295
  151loPI    C2 2402   7.219   8.972  11.188  0.1077  0.2418  0.0658
  151loPI    C3 2403   6.837   9.008  11.300  0.0740 -0.0668  0.0571
  151loPI   PO4 2404   7.035   9.130  10.755  0.1094 -0.1854 -0.2430
  151loPI   GL1 2405   6.938   9.096  10.382  0.0036 -0.1314  0.1120
  151loPI   GL2 2406   6.972   8.743  10.436  0.2792 -0.3160  0.3383
  151loPI   C1A 2407   6.854   8.968   9.960 -0.2276  0.0884 -0.1328
  151loPI   C2A 2408   6.869   8.922   9.442  0.2108  0.3968  0.2004
  151loPI   C3A 2409   6.946   8.939   8.977 -0.0312  0.0591 -0.1420
  151loPI   C4A 2410   6.996   8.973   8.538 -0.3501 -0.0480 -0.0840
  151loPI   C5A 2411   7.109   9.376   8.358 -0.0429  0.0841  0.1483
  151loPI   C6A 2412   7.191   9.704   8.367  0.2193  0.1374 -0.1663
  151loPI   C1B 2413   7.176   8.600  10.179 -0.1251  0.2335  0.0315
  151loPI   C2B 2414   7.143   8.527   9.816 -0.0643  0.0780  0.0386
  151loPI   C3B 2415   7.160   8.425   9.378 -0.0317  0.2756 -0.0929
  151loPI   C4B 2416   7.324   8.539   8.994  0.2385 -0.2006 -0.1593
  152loPI    C1 2417  15.672  13.997  10.747  0.0820  0.0641 -0.2716
  152loPI    C2 2418  16.052  14.099  10.820  0.0515 -0.0545  0.0756
  152loPI    C3 2419  15.820  13.967  11.118 -0.3150  0.1811 -0.0979
  152loPI   PO4 2420  15.685  13.885  10.550  0.1074  0.1610 -0.0494
  152loPI   GL1 2421  15.508  13.758  10.193  0.3081 -0.1101 -0.0161
  152loPI   GL2 2422  15.672  13.994   9.996 -0.0974  0.2892 -0.0988
  152loPI   C1A 2423  15.365  13.511   9.863  0.1497  0.1405  0.1500
  152loPI   C2A 2424  15.259  13.469   9.433 -0.2633  0.1860 -0.0433
  152loPI   C3A 2425  15.296  13.483   8.961  0.0217 -0.0464 -0.2056
  152loPI   C4A 2426  15.381  13.351   8.523 -0.3007  0.0550 -0.1212
  152loPI   C5A 2427  15.610  13.280   8.199  0.3196  0.0530  0.1763
  152loPI   C6A 2428  15.796  13.507   7.871 -0.1125 -0.0482  0.2211
  152loPI   C1B 2429  15.586  13.986   9.588  0.1528  0.1196  0.0839
  152loPI   C2B 2430  15.510  13.904   9.140  0.0500 -0.0480 -0.2201
  152loPI   C3B 2431  15.362  13.873   8.618 -0.1135 -0.0534 -0.1755
  152loPI   C4B 2432  15.354  13.784   8.165  0.0764  0.1229 -0.0173
  153loPI    C1 2433  12.334  11.761  11.096 -0.1226  0.1004  0.3892
  153loPI    C2 2434  12.695  11.932  11.081 -0.0515 -0.0711  0.0266
  153loPI    C3 2435  12.578  11.741  11.412  0.1432  0.0822  0.1865
  153loPI   PO4 2436  12.314  11.617  10.907  0.0177  0.4094  0.0744
  153loPI   GL1 2437  12.419  11.413  10.490  0.1441 -0.2523  0.4151
  153loPI   GL2 2438  12.694  11.168  10.479 -0.1181  0.0400  0.1819
  153loPI   C1A 2439  12.426  11.408  10.066  0.1726  0.1596 -0.1522
  153loPI   C2A 2440  12.354  11.373   9.620 -0.2048 -0.2081  0.0747
  153loPI   C3A 2441  12.356  11.285   9.251  0.1591  0.1075 -0.1503
  153loPI   C4A 2442  12.255  11.405   8.789  0.0086 -0.0236  0.0415
  153loPI   C5A 2443  12.081  11.315   8.444  0.1885 -0.0305  0.3499
  153loPI   C6A 2444  11.661  11.197   8.432  0.3556  0.3010 -0.0959
  153loPI   C1B 2445  12.793  11.037   9.982 -0.0979 -0.1969 -0.1616
  153loPI   C2B 2446  12.710  10.946   9.587  0.1711  0.0763 -0.0093
  153loPI   C3B 2447  12.760  10.928   9.117 -0.2371 -0.0003  0.2613
  153loPI   C4B 2448  12.718  10.984   8.744 -0.3849 -0.1244 -0.2000
  154loPI    C1 2449   9.530   0.344  10.889 -0.0533  0.0792 -0.0102
  154loPI    C2 2450   9.394   0.057  11.132  0.0280  0.1203  0.0848
  154loPI    C3 2451   9.275   0.436  11.183 -0.2339  0.0749 -0.1641
  154loPI   PO4 2452   9.476   0.351  10.631  0.1476  0.0353  0.0386
  154loPI   GL1 2453   9.372   0.036  10.296  0.3319  0.2367  0.0396
  154loPI   GL2 2454   9.659   0.141  10.235 -0.1062 -0.2887 -0.0959
  154loPI   C1A 2455   9.011  -0.060  10.040  0.2734 -0.0384 -0.1340
  154loPI   C2A 2456   8.965   0.047   9.589 -0.2271  0.1952 -0.1961
  154loPI   C3A 2457   8.965   0.068   9.203  0.1992  0.1009  0.0691
  154loPI   C4A 2458   8.965   0.107   8.808  0.5673 -0.0559  0.0426
  154loPI   C5A 2459   8.947   0.152   8.436  0.1831 -0.2444  0.2345
  154loPI   C6A 2460   9.178   0.291   8.084  0.0587  0.2393 -0.0462
  154loPI   C1B 2461   9.468   0.108   9.776 -0.3034 -0.0328  0.3789
  154loPI   C2B 2462   9.509   0.098   9.324  0.5158  0.1367  0.1763
  154loPI   C3B 2463   9.537   0.086   8.952  0.2860 -0.2846 -0.0420
  154loPI   C4B 2464   9.461   0.087   8.501  0.5680  0.1272 -0.0240
  155loPI    C1 2465  16.937   0.683  10.360 -0.1201  0.1046  0.1697
  155loPI    C2 2466  17.100   0.420  10.613 -0.1497 -0.0127  0.0683
  155loPI    C3 2467  17.163   0.812  10.663 -0.0598 -0.0417  0.1879
  155loPI   PO4 2468  16.689   0.596  10.248 -0.0155  0.1466 -0.0427
  155loPI   GL1 2469  16.489   0.504   9.837 -0.1233 -0.0804 -0.0497
  155loPI   GL2 2470  16.685   0.935   9.908  0.0131  0.0261  0.0142
  155loPI   C1A 2471  16.447   0.480   9.389  0.2223  0.1745  0.0019
  155loPI   C2A 2472  16.506   0.596   8.816  0.0844 -0.2483 -0.2804
  155loPI   C3A 2473  16.416   0.563   8.324 -0.0857 -0.1922 -0.2132
  155loPI   C4A 2474  16.159   0.529   7.938  0.0689  0.1032  0.0246
  155loPI   C5A 2475  15.714   0.820   7.788 -0.1400 -0.0013 -0.0962
  155loPI   C6A 2476  15.782   1.128   7.506  0.1310 -0.0950 -0.0839
  155loPI   C1B 2477  16.659   1.018   9.448 -0.0644  0.3266  0.1065
  155loPI   C2B 2478  16.677   1.089   8.930  0.0562 -0.0159 -0.0860
  155loPI   C3B 2479  16.810   1.193   8.554 -0.1204  0.1995  0.0709
  155loPI   C4B 2480  16.672   0.948   8.124 -0.1621  0.0022  0.2123
  156loPI    C1 2481   1.017  16.369  10.476  0.0392  0.4855  0.0389
  156loPI    C2 2482   1.313  16.313  10.738 -0.1098 -0.1202  0.0925
  156loPI    C3 2483   1.004  16.548  10.833  0.1751  0.2300  0.1742
  156loPI   PO4 2484   1.181  16.439  10.247  0.0657  0.6208 -0.1464
  156loPI   GL1 2485   1.434  16.591   9.918  0.1991  0.0636 -0.3818
  156loPI   GL2 2486   1.107  16.870   9.861 -0.1208 -0.0782  0.0431
  156loPI   C1A 2487   1.255  16.450   9.568  0.1692 -0.5136 -0.0412
  156loPI   C2A 2488   1.166  16.498   9.136  0.0928  0.0333 -0.0254
  156loPI   C3A 2489   1.289  16.477   8.728 -0.0903  0.2805  0.3630
  156loPI   C4A 2490   1.360  16.577   8.338 -0.1154 -0.3406  0.0165
  156loPI   C5A 2491   1.436  16.507   7.955  0.0010 -0.0145 -0.3098
  156loPI   C6A 2492   1.580  16.480   7.605  0.2843 -0.3541  0.0741
  156loPI   C1B 2493   1.077  16.987   9.403  0.2070 -0.1757 -0.1536
  156loPI   C2B 2494   1.117  17.298   9.097  0.3236 -0.5786 -0.3295
  156loPI   C3B 2495   1.225  17.430   8.667 -0.1478  0.0881  0.4384
  156loPI   C4B 2496   1.317  17.451   8.237 -0.3481 -0.2139  0.0943
  157loPI    C1 2497  10.109  11.456  11.526 -0.0953 -0.0665  0.0155
  157loPI    C2 2498  10.289  11.675  11.809  0.1407 -0.0624 -0.1354
  157loPI    C3 2499  10.196  11.293  11.881  0.0743 -0.0222 -0.0051
  157loPI   PO4 2500  10.124  11.595  11.255 -0.1233  0.1331 -0.0711
  157loPI   GL1 2501  10.033  11.754  10.771 -0.0185 -0.0186  0.0632
  157loPI   GL2 2502  10.447  11.693  10.663  0.0063  0.0849 -0.0852
  157loPI   C1A 2503   9.950  11.595  10.407 -0.1456 -0.0332 -0.0027
  157loPI   C2A 2504  10.062  11.495  10.018 -0.1667  0.1054 -0.3059
  157loPI   C3A 2505   9.982  11.572   9.659  0.0758 -0.1439  0.1403
  157loPI   C4A 2506  10.036  11.607   9.158 -0.0713 -0.1123 -0.2856
  157loPI   C5A 2507  10.073  11.568   8.647 -0.2942  0.0197  0.2035
  157loPI   C6A 2508  10.211  11.770   8.143  0.1084  0.0549 -0.3015
  157loPI   C1B 2509  10.504  11.629  10.325 -0.2571 -0.2277  0.1154
  157loPI   C2B 2510  10.530  11.647   9.778 -0.0573  0.3050  0.0930
  157loPI   C3B 2511  10.539  11.614   9.296 -0.0756  0.3507 -0.0611
  157loPI   C4B 2512  10.480  11.652   8.882 -0.1236 -0.2813 -0.1221
  158loPI    C1 2513   6.621  12.679  11.085 -0.0179  0.0911 -0.0435
  158loPI    C2 2514   6.674  13.070  11.150 -0.1767  0.1037  0.0143
  158loPI    C3 2515   6.589  12.826  11.456 -0.1034  0.0278 -0.0254
  158loPI   PO4 2516   6.835  12.538  10.873  0.3209  0.3422 -0.2920
  158loPI   GL1 2517   6.982  12.523  10.516 -0.2691  0.0196 -0.1365
  158loPI   GL2 2518   6.867  12.162  10.558 -0.2081 -0.0767  0.3574
  158loPI   C1A 2519   6.942  12.531  10.016  0.1676 -0.3361  0.1550
  158loPI   C2A 2520   7.042  12.591   9.564  0.1828  0.0107 -0.2383
  158loPI   C3A 2521   7.081  12.509   9.122  0.0810 -0.0510 -0.1848
  158loPI   C4A 2522   7.010  12.523   8.691 -0.2152  0.0980 -0.0090
  158loPI   C5A 2523   6.658  12.681   8.411  0.0202 -0.1807 -0.0077
  158loPI   C6A 2524   6.380  12.527   8.075 -0.1270 -0.3396 -0.0029
  158loPI   C1B 2525   6.838  12.084  10.173 -0.2341  0.2221  0.2828
  158loPI   C2B 2526   6.900  12.002   9.701  0.0244  0.2863  0.0395
  158loPI   C3B 2527   6.885  12.077   9.264 -0.0597 -0.1382 -0.2760
  158loPI   C4B 2528   6.887  12.061   8.848 -0.4232  0.0879  0.1155
  159loPI    C1 2529   3.467  17.433  10.573  0.3916  0.0620 -0.3110
  159loPI    C2 2530   3.634  17.172  10.825 -0.0372  0.1539  0.0836
  159loPI    C3 2531   3.419  17.040  10.515  0.0999  0.0410  0.0349
  159loPI   PO4 2532   3.733  17.534  10.496 -0.1712  0.3412  0.1036
  159loPI   GL1 2533   4.054  17.492  10.204  0.1836  0.1572  0.0940
  159loPI   GL2 2534   3.938  17.740  10.107  0.0563 -0.1412 -0.0404
  159loPI   C1A 2535   4.143  17.265   9.854 -0.4082 -0.0325 -0.0047
  159loPI   C2A 2536   4.143  17.303   9.431 -0.0626  0.1297 -0.1577
  159loPI   C3A 2537   4.175  17.331   8.992  0.0322  0.4610  0.0263
  159loPI   C4A 2538   4.071  17.392   8.605 -0.1578  0.0888 -0.0518
  159loPI   C5A 2539   4.168  17.408   8.164 -0.1359 -0.1795 -0.0323
  159loPI   C6A 2540   4.119  17.090   7.787 -0.1157 -0.1370  0.1344
  159loPI   C1B 2541   3.694  17.749   9.816  0.4801  0.1201  0.0285
  159loPI   C2B 2542   3.845  17.756   9.388  0.0314  0.1462  0.2572
  159loPI   C3B 2543   3.789  17.758   8.974  0.0057 -0.0033 -0.3609
  159loPI   C4B 2544   3.839  17.808   8.536 -0.1166 -0.1196  0.1003
  160loPI    C1 2545  14.186  12.699  10.763 -0.1574  0.0127 -0.2928
  160loPI    C2 2546  14.429  12.839  11.049 -0.4512 -0.1233  0.0317
  160loPI    C3 2547  14.582  12.702  10.705 -0.0713 -0.2040  0.2272
  160loPI   PO4 2548  13.956  12.821  10.715 -0.1664 -0.0524  0.0606
  160loPI   GL1 2549  13.907  13.090  10.463 -0.2455  0.1547  0.0530
  160loPI   GL2 2550  13.686  13.320  10.368  0.0802  0.0925  0.0103
  160loPI   C1A 2551  14.161  13.020  10.052 -0.0820 -0.2136  0.1004
  160loPI   C2A 2552  14.073  12.910   9.523  0.3877  0.3566  0.1600
  160loPI   C3A 2553  14.060  12.857   9.147  0.1756  0.2846 -0.0410
  160loPI   C4A 2554  14.126  12.807   8.731 -0.2071  0.0593  0.2190
  160loPI   C5A 2555  14.139  12.759   8.282  0.0648  0.1507  0.2245
  160loPI   C6A 2556  13.921  12.659   7.848 -0.1692 -0.0619 -0.1661
  160loPI   C1B 2557  13.699  13.412   9.987 -0.1788 -0.1897 -0.1994
  160loPI   C2B 2558  13.775  13.403   9.495 -0.2455 -0.3423  0.1431
  160loPI   C3B 2559  13.795  13.290   9.110 -0.6680 -0.0452  0.1710
  160loPI   C4B 2560  13.813  13.474   8.723 -0.1546 -0.0210 -0.3971
  161loPI    C1 2561   8.564  11.635  11.158  0.0357  0.1563 -0.0765
  161loPI    C2 2562   8.588  11.741  11.543  0.2034 -0.2877  0.0415
  161loPI    C3 2563   8.237  11.624  11.389  0.0821  0.1320 -0.0118
  161loPI   PO4 2564   8.635  11.869  11.047  0.2066  0.3008 -0.1442
  161loPI   GL1 2565   8.583  11.817  10.612 -0.1796  0.4338 -0.2130
  161loPI   GL2 2566   8.342  11.747  10.580  0.0254  0.4248  0.0416
  161loPI   C1A 2567   8.585  11.830  10.126  0.0174  0.0406 -0.2828
  161loPI   C2A 2568   8.618  11.694   9.700 -0.0226 -0.1756 -0.1406
  161loPI   C3A 2569   8.666  11.823   9.345 -0.3666 -0.2241 -0.2445
  161loPI   C4A 2570   8.665  11.818   8.847 -0.2747  0.0368 -0.0555
  161loPI   C5A 2571   8.978  11.843   8.610  0.0569 -0.1872 -0.0719
  161loPI   C6A 2572   9.240  11.505   8.347  0.1521 -0.0675  0.1478
  161loPI   C1B 2573   8.115  11.718  10.204  0.0786  0.2815 -0.1563
  161loPI   C2B 2574   8.074  11.823   9.746  0.2884 -0.0073  0.2110
  161loPI   C3B 2575   8.172  11.754   9.285 -0.0645 -0.0725  0.2113
  161loPI   C4B 2576   8.071  11.734   8.925 -0.0169 -0.1732 -0.0119
  162loPI    C1 2577  11.664  17.680  10.795 -0.0631  0.1824  0.0210
  162loPI    C2 2578  11.498  17.510  11.118  0.1762 -0.0481  0.0252
  162loPI    C3 2579  11.638  17.884  11.138 -0.1904  0.0901  0.0671
  162loPI   PO4 2580  11.559  17.624  10.574 -0.2225  0.0271  0.0318
  162loPI   GL1 2581  11.814  17.743  10.188 -0.0331 -0.2817  0.1580
  162loPI   GL2 2582  11.870  17.401  10.230  0.1278 -0.4419  0.5244
  162loPI   C1A 2583  11.660  17.701   9.821 -0.0439  0.0268 -0.1103
  162loPI   C2A 2584  11.718  17.679   9.360 -0.4011 -0.0015  0.1535
  162loPI   C3A 2585  11.639  17.549   8.991  0.2328 -0.2009  0.1062
  162loPI   C4A 2586  11.740  17.609   8.616  0.0782 -0.1585  0.0989
  162loPI   C5A 2587  11.680  17.802   8.229 -0.0725  0.2632 -0.4921
  162loPI   C6A 2588  11.696  18.200   8.023  0.0603 -0.0205  0.3259
  162loPI   C1B 2589  11.946  17.238   9.828  0.2017  0.2780 -0.3424
  162loPI   C2B 2590  12.007  17.252   9.438  0.0813 -0.2274 -0.0660
  162loPI   C3B 2591  11.976  17.159   8.975  0.1543  0.2856 -0.1478
  162loPI   C4B 2592  12.078  17.204   8.591 -0.0478 -0.1421 -0.1893
  163loPI    C1 2593  10.425   4.888  10.847 -0.0420  0.1096  0.0362
  163loPI    C2 2594  10.404   4.795  11.236 -0.1001  0.1238  0.0365
  163loPI    C3 2595  10.071   4.887  11.034 -0.0894 -0.0305 -0.0531
  163loPI   PO4 2596  10.581   5.104  10.809  0.2187  0.1553  0.0807
  163loPI   GL1 2597  10.703   5.400  10.487  0.1904  0.0625  0.0748
  163loPI   GL2 2598  10.413   5.608  10.398  0.1145  0.0101 -0.2887
  163loPI   C1A 2599  10.713   5.343  10.115 -0.0713  0.0343 -0.0130
  163loPI   C2A 2600  10.763   5.338   9.648  0.0980 -0.0466 -0.2545
  163loPI   C3A 2601  10.771   5.234   9.273 -0.3693  0.2996 -0.2856
  163loPI   C4A 2602  10.728   5.240   8.857  0.2489 -0.1725  0.1438
  163loPI   C5A 2603  10.920   5.229   8.412  0.1367  0.2120 -0.0898
  163loPI   C6A 2604  11.103   5.208   8.099  0.2968  0.0517 -0.0788
  163loPI   C1B 2605  10.356   5.655   9.949 -0.2801 -0.1093 -0.0478
  163loPI   C2B 2606  10.409   5.794   9.486  0.0300  0.1356 -0.3132
  163loPI   C3B 2607  10.455   5.668   9.083  0.3146  0.0210 -0.0319
  163loPI   C4B 2608  10.568   5.653   8.548 -0.1240 -0.2638  0.1179
  164loPI    C1 2609   9.221  15.630  11.003 -0.0655  0.2522  0.1244
  164loPI    C2 2610   8.825  15.575  10.987 -0.0588  0.2230  0.0523
  164loPI    C3 2611   9.008  15.608  11.341 -0.1097  0.1203  0.0886
  164loPI   PO4 2612   9.310  15.420  10.820  0.1736  0.1153 -0.1035
  164loPI   GL1 2613   9.488  15.477  10.315  0.0818  0.1392  0.1967
  164loPI   GL2 2614   9.676  15.221  10.289 -0.3037  0.0861 -0.1718
  164loPI   C1A 2615   9.232  15.611  10.023  0.0706  0.3203 -0.0824
  164loPI   C2A 2616   9.203  15.669   9.615 -0.3328 -0.1995  0.1175
  164loPI   C3A 2617   9.230  15.601   9.260  0.1123  0.1354  0.1877
  164loPI   C4A 2618   9.403  15.502   8.891 -0.1710  0.1225  0.0626
  164loPI   C5A 2619   9.271  15.575   8.517 -0.0265  0.0448  0.1034
  164loPI   C6A 2620   9.563  15.495   8.277  0.1036  0.1270 -0.4082
  164loPI   C1B 2621   9.562  15.228   9.847  0.0752  0.1840 -0.3240
  164loPI   C2B 2622   9.465  15.184   9.430 -0.0039 -0.4156 -0.0531
  164loPI   C3B 2623   9.651  15.091   9.049 -0.0416  0.1933 -0.0787
  164loPI   C4B 2624   9.595  15.128   8.648  0.0272 -0.1612  0.1700
  165loPI    C1 2625   3.895   2.175  10.921 -0.0488 -0.0175  0.1437
  165loPI    C2 2626   3.533   2.016  10.862  0.0353 -0.1246 -0.1009
  165loPI    C3 2627   3.614   2.210  11.203 -0.2320 -0.1512 -0.0198
  165loPI   PO4 2628   3.906   2.284  10.678 -0.0453 -0.0696 -0.3293
  165loPI   GL1 2629   3.695   2.330  10.427 -0.2861  0.0370  0.5134
  165loPI   GL2 2630   3.815   2.146  10.154 -0.2068 -0.0841  0.0384
  165loPI   C1A 2631   3.920   2.642  10.125  0.0562 -0.0962  0.0566
  165loPI   C2A 2632   4.136   2.730   9.865  0.0676 -0.0460 -0.2054
  165loPI   C3A 2633   4.258   2.853   9.586  0.0984  0.0048  0.0150
  165loPI   C4A 2634   4.265   2.815   9.111 -0.0246  0.2260 -0.2068
  165loPI   C5A 2635   4.337   2.687   8.766 -0.0783 -0.0518  0.1296
  165loPI   C6A 2636   4.131   2.883   8.373  0.2361  0.2172  0.2233
  165loPI   C1B 2637   3.864   2.270   9.811 -0.4371  0.0662  0.2223
  165loPI   C2B 2638   4.049   2.324   9.404  0.0781  0.1608  0.1024
  165loPI   C3B 2639   4.032   2.355   8.888 -0.1450 -0.1715 -0.0624
  165loPI   C4B 2640   4.018   2.403   8.367 -0.1214  0.0922 -0.2562
  166loPI    C1 2641   9.251  14.569  11.048  0.3417 -0.1338 -0.0075
  166loPI    C2 2642   9.096  14.276  11.272  0.1858  0.0387  0.1140
  166loPI    C3 2643   9.024  14.658  11.365  0.0035  0.1135 -0.3106
  166loPI   PO4 2644   9.354  14.407  10.884 -0.0112  0.0470 -0.0022
  166loPI   GL1 2645   9.475  14.376  10.535 -0.0679  0.1457 -0.0608
  166loPI   GL2 2646   9.330  14.223  10.432 -0.3895 -0.3249 -0.1173
  166loPI   C1A 2647   9.370  14.750  10.265 -0.1346 -0.0924 -0.0689
  166loPI   C2A 2648   9.389  14.700   9.887 -0.1802 -0.2096  0.1965
  166loPI   C3A 2649   9.305  14.597   9.475  0.1680 -0.2927  0.0793
  166loPI   C4A 2650   9.326  14.676   9.045  0.1390 -0.1080  0.1713
  166loPI   C5A 2651   9.462  14.672   8.625  0.1829  0.1480  0.0279
  166loPI   C6A 2652   9.614  14.900   8.211  0.3214  0.1029 -0.2400
  166loPI   C1B 2653   9.145  14.287  10.029 -0.0420 -0.0852  0.0011
  166loPI   C2B 2654   9.089  14.177   9.546 -0.0289 -0.1417  0.0623
  166loPI   C3B 2655   9.036  14.210   9.197  0.0620 -0.1060 -0.1359
  166loPI   C4B 2656   9.190  14.198   8.836 -0.2281 -0.0849  0.2028
  167loPI    C1 2657   7.729  12.252  11.016 -0.0032  0.0741 -0.0345
  167loPI    C2 2658   7.690  12.616  11.175 -0.2797  0.1729 -0.3188
  167loPI    C3 2659   7.559  12.296  11.375  0.0288  0.2174 -0.0362
  167loPI   PO4 2660   7.795  12.331  10.798  0.0772 -0.0075 -0.0660
  167loPI   GL1 2661   8.016  12.092  10.450 -0.2829  0.0038  0.0021
  167loPI   GL2 2662   8.284  12.325  10.299  0.4245  0.1355 -0.0751
  167loPI   C1A 2663   7.886  12.244   9.971  0.0799  0.0413 -0.2908
  167loPI   C2A 2664   7.827  12.246   9.591 -0.0648  0.1764 -0.0343
  167loPI   C3A 2665   7.862  12.107   9.095  0.0449 -0.2049  0.5334
  167loPI   C4A 2666   7.877  12.227   8.689 -0.4981 -0.1760  0.0410
  167loPI   C5A 2667   8.078  12.613   8.271 -0.1386 -0.2089  0.0975
  167loPI   C6A 2668   8.077  12.955   8.089 -0.0877 -0.0418  0.0827
  167loPI   C1B 2669   8.376  12.227   9.909  0.0582 -0.0252 -0.1480
  167loPI   C2B 2670   8.333  12.203   9.507  0.1669 -0.1005  0.3094
  167loPI   C3B 2671   8.441  12.235   9.080  0.1535 -0.2875  0.1484
  167loPI   C4B 2672   8.392  12.147   8.577 -0.1054 -0.0677 -0.0954
  168loPI    C1 2673  10.940   5.340  11.063  0.2685  0.3214 -0.0212
  168loPI    C2 2674  11.107   5.306  11.425 -0.0467 -0.2126  0.0849
  168loPI    C3 2675  10.788   5.541  11.374 -0.1512 -0.3253  0.2119
  168loPI   PO4 2676  11.214   5.368  10.935 -0.2014 -0.0311 -0.1329
  168loPI   GL1 2677  11.248   5.164  10.517  0.4431 -0.1901  0.0788
  168loPI   GL2 2678  11.305   5.442  10.334 -0.0602  0.1370 -0.0263
  168loPI   C1A 2679  11.476   5.032  10.173  0.1237 -0.2698 -0.0127
  168loPI   C2A 2680  11.579   4.941   9.777 -0.3277  0.0309  0.2316
  168loPI   C3A 2681  11.660   4.921   9.442 -0.1520  0.1541  0.1777
  168loPI   C4A 2682  11.552   4.911   9.041  0.0997 -0.2162 -0.1375
  168loPI   C5A 2683  11.521   4.848   8.624 -0.0969 -0.0460  0.0761
  168loPI   C6A 2684  11.637   4.980   8.197 -0.2136  0.1377  0.1738
  168loPI   C1B 2685  11.248   5.350   9.920  0.1734  0.2642  0.0884
  168loPI   C2B 2686  11.249   5.327   9.422  0.2152  0.0564  0.0500
  168loPI   C3B 2687  11.219   5.277   8.970 -0.0154  0.0175 -0.0022
  168loPI   C4B 2688  11.352   5.344   8.572 -0.0853  0.2057 -0.1008
  169loPI    C1 2689   1.680  11.432  10.826 -0.1548 -0.1629  0.1233
  169loPI    C2 2690   1.625  11.613  11.178 -0.0430 -0.1100  0.1142
  169loPI    C3 2691   1.723  11.225  11.165 -0.3297 -0.1854  0.1326
  169loPI   PO4 2692   1.837  11.708  10.627  0.2410 -0.0781  0.1557
  169loPI   GL1 2693   1.843  11.710  10.227 -0.0718  0.2004 -0.1516
  169loPI   GL2 2694   1.567  11.587  10.052 -0.2625 -0.4239  0.1287
  169loPI   C1A 2695   1.964  11.796   9.787  0.1022 -0.1081  0.2480
  169loPI   C2A 2696   2.162  11.620   9.301  0.0750  0.2341  0.3879
  169loPI   C3A 2697   2.223  11.568   8.957  0.0525  0.0680  0.0610
  169loPI   C4A 2698   2.209  11.436   8.484 -0.0360  0.0254  0.1674
  169loPI   C5A 2699   2.132  11.107   8.181  0.0626 -0.1998  0.2604
  169loPI   C6A 2700   1.866  10.777   8.003 -0.2787 -0.2449  0.2883
  169loPI   C1B 2701   1.506  11.539   9.642  0.2604 -0.4871 -0.0740
  169loPI   C2B 2702   1.478  11.466   9.248  0.3505  0.1655 -0.0060
  169loPI   C3B 2703   1.526  11.389   8.740 -0.0643 -0.3201 -0.0944
  169loPI   C4B 2704   1.681  11.200   8.355  0.1445 -0.2498 -0.3868
  170loPI    C1 2705   6.561  14.061  10.769 -0.1074  0.3091 -0.0451
  170loPI    C2 2706   6.520  13.746  11.012 -0.2696  0.2697 -0.1222
  170loPI    C3 2707   6.796  14.025  11.091 -0.1543  0.1311 -0.0296
  170loPI   PO4 2708   6.573  13.934  10.447 -0.1380 -0.2735  0.1515
  170loPI   GL1 2709   6.581  14.216  10.067 -0.2274 -0.1591  0.2265
  170loPI   GL2 2710   6.861  14.509  10.097 -0.0042  0.1725 -0.2784
  170loPI   C1A 2711   6.303  14.301   9.747  0.1634 -0.4508 -0.0513
  170loPI   C2A 2712   6.299  14.290   9.270 -0.2286 -0.2989 -0.1652
  170loPI   C3A 2713   6.257  14.293   8.853  0.0296  0.0082 -0.1390
  170loPI   C4A 2714   6.296  14.211   8.368  0.3935 -0.1525  0.1300
  170loPI   C5A 2715   6.316  13.994   7.963 -0.2975 -0.2066 -0.3996
  170loPI   C6A 2716   6.315  13.847   7.571  0.2439 -0.4265  0.2673
  170loPI   C1B 2717   6.853  14.600   9.642 -0.4083 -0.1036  0.1604
  170loPI   C2B 2718   6.803  14.541   9.303 -0.0186 -0.1456  0.3882
  170loPI   C3B 2719   6.881  14.378   8.949 -0.3259 -0.4136 -0.0128
  170loPI   C4B 2720   6.897  14.295   8.575  0.5111  0.3450  0.1842
  171loPI    C1 2721  18.105   9.028  10.770 -0.1381 -0.1279 -0.2236
  171loPI    C2 2722  17.941   9.348  10.944  0.2025 -0.1341  0.1218
  171loPI    C3 2723  17.785   8.985  11.006  0.1771 -0.1067  0.2205
  171loPI   PO4 2724  18.257   9.176  10.544  0.3625  0.4449 -0.4350
  171loPI   GL1 2725  18.347   9.310  10.086  0.1808 -0.1405 -0.1110
  171loPI   GL2 2726  18.319   8.984  10.038  0.2456  0.3408 -0.3298
  171loPI   C1A 2727  18.438   9.398   9.705 -0.1503 -0.1154 -0.1032
  171loPI   C2A 2728  18.481   9.336   9.258 -0.1422  0.2029 -0.1280
  171loPI   C3A 2729  18.426   9.361   8.894 -0.1570  0.2594  0.1221
  171loPI   C4A 2730  18.320   9.432   8.500  0.0793  0.0219 -0.0940
  171loPI   C5A 2731  18.222   9.246   8.060 -0.3450  0.1366 -0.2043
  171loPI   C6A 2732  18.133   9.408   7.740  0.0305  0.0444  0.0055
  171loPI   C1B 2733  18.242   8.968   9.576 -0.4063 -0.0205  0.4454
  171loPI   C2B 2734  18.225   8.954   9.089  0.1308 -0.0286  0.2502
  171loPI   C3B 2735  18.177   8.912   8.681 -0.1629 -0.0991  0.2129
  171loPI   C4B 2736  18.058   8.823   8.266  0.0386 -0.0197  0.0109
  172loPI    C1 2737  12.205  10.547  11.126  0.1608 -0.2447  0.1607
  172loPI    C2 2738  12.359  10.760  11.428  0.0678  0.3255 -0.1797
  172loPI    C3 2739  11.966  10.687  11.414  0.1033  0.1032 -0.0496
  172loPI   PO4 2740  12.219  10.619  10.929 -0.0175  0.1247 -0.0784
  172loPI   GL1 2741  12.207  10.289  10.627 -0.0299  0.1040  0.3042
  172loPI   GL2 2742  12.295  10.098  10.433  0.0025 -0.1354  0.2526
  172loPI   C1A 2743  12.032  10.428  10.207 -0.0634 -0.0350  0.1632
  172loPI   C2A 2744  11.976  10.541   9.748  0.1210  0.1210 -0.0073
  172loPI   C3A 2745  11.979  10.458   9.275  0.1450  0.1685  0.1085
  172loPI   C4A 2746  11.913  10.269   8.862  0.2029 -0.0339 -0.0725
  172loPI   C5A 2747  11.962  10.451   8.436  0.1439 -0.1580  0.1673
  172loPI   C6A 2748  12.120  10.609   7.996  0.1870  0.2906  0.3111
  172loPI   C1B 2749  12.287  10.103   9.950 -0.1372 -0.2686 -0.4622
  172loPI   C2B 2750  12.238  10.089   9.511  0.0983  0.1222 -0.1656
  172loPI   C3B 2751  12.240   9.965   9.106 -0.2015 -0.2430 -0.1457
  172loPI   C4B 2752  12.251  10.015   8.661 -0.2005 -0.0756 -0.0186
  173loPI    C1 2753   8.970   2.750  10.850  0.0301 -0.1601  0.0706
  173loPI    C2 2754   9.222   2.903  11.120 -0.0717 -0.1215  0.1444
  173loPI    C3 2755   9.341   2.603  10.883  0.0341 -0.1225  0.1980
  173loPI   PO4 2756   8.737   2.987  10.854  0.3257 -0.2216 -0.1305
  173loPI   GL1 2757   8.705   3.247  10.514  0.1114 -0.3785  0.2397
  173loPI   GL2 2758   8.444   3.397  10.410 -0.0880 -0.1080  0.2268
  173loPI   C1A 2759   8.737   3.103  10.166 -0.2427  0.2800  0.0555
  173loPI   C2A 2760   8.743   3.148   9.859 -0.0935 -0.3350  0.1580
  173loPI   C3A 2761   8.811   3.092   9.387  0.1343 -0.0357 -0.0258
  173loPI   C4A 2762   8.935   3.216   9.069 -0.2795 -0.1559  0.0614
  173loPI   C5A 2763   8.764   3.103   8.735 -0.0742 -0.0786  0.0749
  173loPI   C6A 2764   8.518   3.129   8.287 -0.2898  0.1426 -0.0177
  173loPI   C1B 2765   8.265   3.212   9.990  0.3406 -0.0461 -0.0635
  173loPI   C2B 2766   8.329   3.058   9.535  0.2100 -0.1037 -0.0353
  173loPI   C3B 2767   8.368   3.168   9.110  0.0589  0.0212 -0.0681
  173loPI   C4B 2768   8.269   2.994   8.764  0.0755 -0.0528 -0.1521
  174loPI    C1 2769  15.739   2.743  10.525 -0.3652  0.3404 -0.0294
  174loPI    C2 2770  16.078   2.952  10.484  0.0348 -0.2775 -0.0099
  174loPI    C3 2771  15.934   2.874  10.849 -0.1016 -0.0653 -0.0164
  174loPI   PO4 2772  15.822   2.522  10.232  0.3198 -0.0127 -0.0645
  174loPI   GL1 2773  15.753   2.281   9.894  0.0984  0.1850  0.1675
  174loPI   GL2 2774  15.465   2.141   9.998  0.0988 -0.0079  0.1789
  174loPI   C1A 2775  15.848   2.284   9.492  0.1326 -0.0997 -0.0915
  174loPI   C2A 2776  15.918   2.335   9.002 -0.2522 -0.2299  0.2274
  174loPI   C3A 2777  15.807   2.390   8.558  0.2093  0.1174 -0.1628
  174loPI   C4A 2778  15.964   2.503   8.067 -0.0724 -0.0176 -0.2750
  174loPI   C5A 2779  16.018   2.724   7.715  0.2121  0.0532  0.0359
  174loPI   C6A 2780  16.096   3.049   7.260  0.0398 -0.1085 -0.2161
  174loPI   C1B 2781  15.376   2.188   9.495 -0.2103  0.1506  0.1272
  174loPI   C2B 2782  15.433   2.335   9.037  0.1562 -0.1543 -0.0657
  174loPI   C3B 2783  15.263   2.270   8.730 -0.1977 -0.1069 -0.1665
  174loPI   C4B 2784  15.290   2.162   8.285  0.0374  0.0628  0.0064
  175loPI    C1 2785   2.433   6.262  10.629 -0.1176  0.0617 -0.0186
  175loPI    C2 2786   2.790   6.229  10.806  0.0007 -0.1204 -0.2835
  175loPI    C3 2787   2.656   6.588  10.692  0.0128 -0.0276 -0.0131
  175loPI   PO4 2788   2.415   6.209  10.384 -0.2849  0.0548  0.0998
  175loPI   GL1 2789   2.350   6.358   9.927 -0.0645  0.1118  0.0199
  175loPI   GL2 2790   2.313   6.489   9.956  0.0176 -0.0298 -0.0518
  175loPI   C1A 2791   2.682   6.199   9.764  0.3273 -0.0089 -0.2303
  175loPI   C2A 2792   2.800   6.148   9.268 -0.3224  0.0993 -0.1612
  175loPI   C3A 2793   2.820   6.154   8.809 -0.0763  0.1866  0.0621
  175loPI   C4A 2794   2.728   6.155   8.371  0.1328 -0.0185  0.3298
  175loPI   C5A 2795   2.716   6.249   7.957  0.0751 -0.0260 -0.1416
  175loPI   C6A 2796   2.506   6.442   7.762  0.0725 -0.1813  0.0456
  175loPI   C1B 2797   2.368   6.561   9.486  0.0492  0.0192 -0.0175
  175loPI   C2B 2798   2.470   6.534   9.096  0.2941  0.0487 -0.0884
  175loPI   C3B 2799   2.386   6.541   8.697 -0.0496  0.1018  0.1020
  175loPI   C4B 2800   2.384   6.539   8.223  0.0287 -0.0025 -0.0360
  176loPI    C1 2801  12.270   8.261  10.976 -0.0901  0.1651 -0.1586
  176loPI    C2 2802  12.557   8.465  11.165 -0.0252  0.0444 -0.1259
  176loPI    C3 2803  12.178   8.494  11.288 -0.0597  0.3632 -0.2957
  176loPI   PO4 2804  12.513   8.121  10.757 -0.1118  0.1297  0.3192
  176loPI   GL1 2805  12.445   7.707  10.579  0.1578 -0.1794 -0.1503
  176loPI   GL2 2806  12.723   7.754  10.381 -0.2104 -0.0441 -0.2640
  176loPI   C1A 2807  12.299   7.834  10.136 -0.1476  0.2888 -0.1608
  176loPI   C2A 2808  12.317   7.775   9.769  0.0450  0.0167 -0.0843
  176loPI   C3A 2809  12.224   7.808   9.290  0.0104 -0.0726 -0.1797
  176loPI   C4A 2810  12.311   7.786   8.888 -0.0956  0.1739  0.1345
  176loPI   C5A 2811  12.297   7.893   8.434  0.0937  0.1478 -0.2323
  176loPI   C6A 2812  12.311   7.863   7.996 -0.0235 -0.1861  0.1571
  176loPI   C1B 2813  12.816   7.803   9.949  0.0261 -0.1328  0.0252
  176loPI   C2B 2814  12.761   7.841   9.528  0.0807 -0.5015 -0.0677
  176loPI   C3B 2815  12.846   7.807   9.054  0.1025  0.0841  0.1035
  176loPI   C4B 2816  12.808   7.729   8.715 -0.0780  0.2391 -0.2878
  177loPI    C1 2817   5.361  10.073  11.007  0.2120  0.1387  0.0068
  177loPI    C2 2818   5.124  10.306  11.229 -0.0139 -0.1799  0.1086
  177loPI    C3 2819   5.457  10.151  11.387  0.1080  0.0254  0.0571
  177loPI   PO4 2820   5.277  10.240  10.772  0.0100  0.2338 -0.1178
  177loPI   GL1 2821   5.181  10.011  10.437 -0.1565 -0.1973  0.0468
  177loPI   GL2 2822   5.207   9.723  10.235 -0.2398 -0.0266  0.1646
  177loPI   C1A 2823   5.413  10.214  10.085 -0.0046  0.0326 -0.0700
  177loPI   C2A 2824   5.438  10.149   9.626 -0.4600 -0.0565  0.1614
  177loPI   C3A 2825   5.470  10.147   9.172  0.0124 -0.1317 -0.1543
  177loPI   C4A 2826   5.457  10.063   8.813  0.3048 -0.1163  0.1607
  177loPI   C5A 2827   5.379  10.012   8.301 -0.0819 -0.2602  0.1275
  177loPI   C6A 2828   5.197   9.619   8.013 -0.2889 -0.1651  0.1208
  177loPI   C1B 2829   5.303   9.654   9.813  0.0815  0.1233  0.1442
  177loPI   C2B 2830   5.260   9.748   9.386 -0.2366  0.1915  0.0745
  177loPI   C3B 2831   5.261   9.598   8.924  0.1117  0.1872  0.2573
  177loPI   C4B 2832   5.202   9.568   8.497  0.1049 -0.3204  0.0514
  178loPI    C1 2833   5.543   7.189  11.168 -0.1925  0.0173 -0.1565
  178loPI    C2 2834   5.370   6.836  11.238  0.0635 -0.1107 -0.1572
  178loPI    C3 2835   5.398   7.106  11.531 -0.1345 -0.0884 -0.1572
  178loPI   PO4 2836   5.675   7.091  10.967 -0.1762 -0.2321  0.1246
  178loPI   GL1 2837   5.625   7.078  10.565 -0.1040  0.0030 -0.2749
  178loPI   GL2 2838   5.976   6.997  10.432 -0.0681 -0.2758  0.0933
  178loPI   C1A 2839   5.553   6.996  10.213 -0.3504  0.1651  0.0508
  178loPI   C2A 2840   5.496   7.029   9.834  0.0697  0.0277  0.0478
  178loPI   C3A 2841   5.596   6.976   9.343 -0.0945  0.0363 -0.2345
  178loPI   C4A 2842   5.603   6.890   8.970  0.1563 -0.2357 -0.1197
  178loPI   C5A 2843   5.648   6.741   8.617 -0.2193  0.2962 -0.0373
  178loPI   C6A 2844   5.834   6.419   8.312 -0.1555  0.2236  0.1575
  178loPI   C1B 2845   6.041   7.088   9.990  0.3930 -0.1510  0.1547
  178loPI   C2B 2846   6.041   7.088   9.601 -0.0270 -0.0759 -0.1962
  178loPI   C3B 2847   6.077   6.999   9.110  0.1045  0.0699 -0.3659
  178loPI   C4B 2848   6.111   6.968   8.702  0.1689  0.2336  0.0824
  179loPI    C1 2849   9.974   4.338  11.122 -0.0033  0.1360 -0.0478
  179loPI    C2 2850  10.137   4.030  11.317 -0.1749  0.0081 -0.1047
  179loPI    C3 2851  10.151   4.396  11.476 -0.0606 -0.0459  0.0117
  179loPI   PO4 2852   9.947   4.252  10.871  0.2486  0.0322  0.2702
  179loPI   GL1 2853  10.071   4.417  10.575  0.1750  0.0888  0.1827
  179loPI   GL2 2854  10.273   4.563  10.437 -0.0389 -0.2297 -0.0648
  179loPI   C1A 2855   9.899   4.323  10.114  0.0373  0.2017  0.0529
  179loPI   C2A 2856   9.886   4.356   9.661  0.0706 -0.1340  0.1334
  179loPI   C3A 2857   9.816   4.207   9.246  0.0771  0.0367 -0.0687
  179loPI   C4A 2858   9.864   4.227   8.815  0.3808  0.0928  0.1972
  179loPI   C5A 2859   9.981   4.211   8.388 -0.2876  0.0414 -0.2945
  179loPI   C6A 2860   9.941   4.134   7.920 -0.1234  0.0199  0.1789
  179loPI   C1B 2861  10.394   4.484  10.063 -0.2807  0.1627 -0.1155
  179loPI   C2B 2862  10.396   4.372   9.644 -0.0949 -0.4391 -0.0091
  179loPI   C3B 2863  10.380   4.290   9.345  0.4135  0.0929  0.2375
  179loPI   C4B 2864  10.369   4.357   8.947  0.4146  0.0185  0.0630
  180loPI    C1 2865   1.175   4.839  10.432  0.0123 -0.1523 -0.1362
  180loPI    C2 2866   0.969   4.496  10.428 -0.1349 -0.0657 -0.0815
  180loPI    C3 2867   1.248   4.560  10.708 -0.0140 -0.1941 -0.1713
  180loPI   PO4 2868   1.264   4.898  10.108  0.1429  0.1178  0.5205
  180loPI   GL1 2869   1.129   4.898   9.776 -0.2118  0.1631 -0.3907
  180loPI   GL2 2870   1.394   4.777   9.547  0.0608  0.4076  0.1838
  180loPI   C1A 2871   0.848   4.792   9.430  0.0443  0.1978  0.2753
  180loPI   C2A 2872   0.988   4.721   8.968  0.0185 -0.0976 -0.2396
  180loPI   C3A 2873   1.114   4.533   8.571  0.0889  0.2254 -0.2895
  180loPI   C4A 2874   1.211   4.238   8.261  0.3398  0.3293  0.1172
  180loPI   C5A 2875   1.385   4.034   7.970  0.2146  0.4923  0.0952
  180loPI   C6A 2876   1.500   3.657   7.800 -0.0071  0.0570 -0.0487
  180loPI   C1B 2877   1.468   4.665   9.170  0.2844  0.0754  0.0139
  180loPI   C2B 2878   1.409   4.917   8.806 -0.3126 -0.2603 -0.2254
  180loPI   C3B 2879   1.758   5.029   8.523  0.2416  0.2219 -0.2543
  180loPI   C4B 2880   1.787   5.049   8.064 -0.0011  0.0562 -0.3816
  181loPI    C1 2881  12.025  11.156  11.303 -0.1666  0.2475 -0.3207
  181loPI    C2 2882  12.415  11.238  11.336 -0.1298 -0.0985  0.2323
  181loPI    C3 2883  12.144  11.509  11.448 -0.0478  0.0581  0.0570
  181loPI   PO4 2884  12.009  11.077  11.105  0.1074 -0.0990 -0.2862
  181loPI   GL1 2885  12.035  11.262  10.692  0.0301  0.0662 -0.2307
  181loPI   GL2 2886  12.193  10.868  10.452  0.3056  0.2952  0.2206
  181loPI   C1A 2887  11.885  11.391  10.297 -0.0964  0.1991 -0.2332
  181loPI   C2A 2888  11.842  11.385   9.766 -0.1173  0.1599 -0.2429
  181loPI   C3A 2889  11.889  11.303   9.352  0.1614 -0.1633 -0.5407
  181loPI   C4A 2890  11.766  11.333   8.881  0.3807 -0.0044  0.1521
  181loPI   C5A 2891  11.599  11.670   8.517  0.0885  0.2075 -0.1057
  181loPI   C6A 2892  11.563  12.024   8.184  0.1568  0.0384  0.1335
  181loPI   C1B 2893  12.207  10.992   9.921 -0.3528 -0.1898  0.1195
  181loPI   C2B 2894  12.181  10.907   9.503  0.1293  0.0389  0.2512
  181loPI   C3B 2895  12.215  10.888   9.023  0.1007  0.0790  0.2742
  181loPI   C4B 2896  11.889  10.869   8.726 -0.0297 -0.1866  0.0670
  182loPI    C1 2897   9.786   3.587  10.850  0.0060 -0.0822 -0.0933
  182loPI    C2 2898   9.698   3.853  11.135  0.3334  0.1125 -0.1678
  182loPI    C3 2899   9.947   3.550  11.215  0.0494 -0.1114 -0.1153
  182loPI   PO4 2900   9.827   3.774  10.635 -0.1977  0.1397 -0.1719
  182loPI   GL1 2901   9.560   3.782  10.315 -0.0135 -0.0932  0.1089
  182loPI   GL2 2902   9.253   3.893  10.203  0.2284  0.0258 -0.1813
  182loPI   C1A 2903   9.745   3.898   9.891  0.1703  0.1979  0.5888
  182loPI   C2A 2904   9.670   3.723   9.456  0.0159 -0.1597 -0.0101
  182loPI   C3A 2905   9.713   3.766   9.039  0.3183 -0.1677  0.1045
  182loPI   C4A 2906   9.693   3.762   8.622  0.2822 -0.0265 -0.2011
  182loPI   C5A 2907   9.552   4.021   8.282 -0.3514  0.1024  0.0315
  182loPI   C6A 2908   9.507   3.788   7.805  0.1963 -0.0518 -0.2317
  182loPI   C1B 2909   9.243   3.757   9.809  0.1444  0.1129  0.2725
  182loPI   C2B 2910   9.129   3.759   9.389 -0.2209 -0.1158  0.1957
  182loPI   C3B 2911   9.059   3.674   9.008  0.0201 -0.2526 -0.0682
  182loPI   C4B 2912   9.200   3.696   8.611  0.2855 -0.1454 -0.0667
  183loPI    C1 2913   4.142  14.729  10.725 -0.0691  0.1329  0.1149
  183loPI    C2 2914   3.828  14.682  10.969  0.0270 -0.1383  0.1894
  183loPI    C3 2915   4.181  14.799  11.117 -0.0586  0.2598  0.0919
  183loPI   PO4 2916   4.143  14.536  10.629 -0.0310 -0.1029  0.1529
  183loPI   GL1 2917   4.041  14.465  10.170  0.3006  0.0012 -0.0282
  183loPI   GL2 2918   4.031  14.216   9.962 -0.1297 -0.4369 -0.2874
  183loPI   C1A 2919   4.309  14.570   9.766 -0.1361 -0.0401 -0.2511
  183loPI   C2A 2920   4.292  14.587   9.369  0.1982  0.1559  0.0911
  183loPI   C3A 2921   4.405  14.646   8.960  0.0599 -0.1188  0.0133
  183loPI   C4A 2922   4.469  14.609   8.493  0.2203  0.4463 -0.2519
  183loPI   C5A 2923   4.131  14.745   8.174 -0.0929 -0.1587 -0.1150
  183loPI   C6A 2924   4.062  14.769   7.763  0.2804 -0.0550 -0.0846
  183loPI   C1B 2925   4.136  14.149   9.541  0.1718 -0.0373 -0.0867
  183loPI   C2B 2926   4.151  14.158   9.054  0.0956 -0.1436  0.1241
  183loPI   C3B 2927   4.250  14.140   8.538  0.0514 -0.2241 -0.3343
  183loPI   C4B 2928   4.306  13.972   8.054  0.0634 -0.0114  0.2722
  184loPI    C1 2929   0.325   3.149   9.818 -0.1828 -0.0350 -0.3866
  184loPI    C2 2930   0.454   3.174  10.196 -0.3850  0.2352 -0.3321
  184loPI    C3 2931   0.264   2.845  10.071 -0.2879  0.1312 -0.2089
  184loPI   PO4 2932   0.183   3.348   9.786 -0.1032 -0.1163 -0.2727
  184loPI   GL1 2933   0.369   3.610   9.441 -0.1006  0.1180  0.1021
  184loPI   GL2 2934   0.157   3.488   9.192 -0.1045  0.0553  0.0473
  184loPI   C1A 2935   0.622   3.864   9.152  0.2259  0.1084  0.2225
  184loPI   C2A 2936   0.773   3.803   8.800  0.2539  0.1897  0.0157
  184loPI   C3A 2937   0.730   3.826   8.365 -0.2550  0.0326 -0.2570
  184loPI   C4A 2938   0.754   4.158   8.120 -0.3513 -0.0204  0.0451
  184loPI   C5A 2939   0.892   4.587   8.075 -0.0396  0.1544  0.2357
  184loPI   C6A 2940   1.164   4.912   8.273 -0.0707 -0.2583 -0.2456
  184loPI   C1B 2941   0.087   3.397   8.748 -0.0444 -0.0416  0.1131
  184loPI   C2B 2942   0.115   3.537   8.321  0.5096  0.1592 -0.3443
  184loPI   C3B 2943  -0.188   3.808   8.159 -0.2256  0.0010 -0.3551
  184loPI   C4B 2944  -0.112   4.191   8.012 -0.0536 -0.1605 -0.0217
  185loPI    C1 2945  12.548   7.218  11.284  0.1400 -0.2649  0.3454
  185loPI    C2 2946  12.283   7.474  11.439  0.2171  0.0706 -0.0579
  185loPI    C3 2947  12.669   7.500  11.540  0.1753 -0.1065  0.1566
  185loPI   PO4 2948  12.459   7.203  11.052 -0.0954 -0.2729  0.2512
  185loPI   GL1 2949  12.585   7.228  10.634  0.0358 -0.2589 -0.3010
  185loPI   GL2 2950  12.800   6.988  10.432  0.1017  0.0482 -0.4229
  185loPI   C1A 2951  12.606   7.358  10.126  0.1611  0.3974 -0.1009
  185loPI   C2A 2952  12.616   7.319   9.631  0.0084 -0.0809  0.2195
  185loPI   C3A 2953  12.592   7.381   9.167 -0.2356 -0.2488 -0.3742
  185loPI   C4A 2954  12.614   7.309   8.626 -0.1248  0.2445 -0.0164
  185loPI   C5A 2955  12.424   7.312   8.177 -0.0649  0.1391 -0.1418
  185loPI   C6A 2956  12.267   7.013   7.831 -0.0602  0.1297 -0.1532
  185loPI   C1B 2957  12.872   6.900   9.934  0.3385 -0.0675 -0.2135
  185loPI   C2B 2958  12.889   6.964   9.443  0.0237  0.4393 -0.1175
  185loPI   C3B 2959  12.877   6.908   8.991  0.0151  0.0701  0.1183
  185loPI   C4B 2960  12.876   6.906   8.584 -0.1456  0.2465 -0.1755
  186loPI    C1 2961  17.724   9.849  10.684 -0.2259 -0.2585 -0.1757
  186loPI    C2 2962  17.943   9.586  10.477  0.1450 -0.0756 -0.0248
  186loPI    C3 2963  18.109   9.795  10.776 -0.1125  0.4065 -0.2071
  186loPI   PO4 2964  17.489   9.813  10.547  0.1208 -0.1259  0.0994
  186loPI   GL1 2965  17.478   9.570  10.193  0.5352 -0.1799  0.1379
  186loPI   GL2 2966  17.369   9.248  10.135 -0.0833 -0.1500  0.0521
  186loPI   C1A 2967  17.148   9.589   9.871  0.4377  0.0112  0.0053
  186loPI   C2A 2968  17.101   9.599   9.432  0.0666 -0.0556 -0.2836
  186loPI   C3A 2969  17.025   9.606   8.955 -0.0384  0.3255  0.0783
  186loPI   C4A 2970  16.996   9.614   8.518 -0.0781 -0.1535 -0.3587
  186loPI   C5A 2971  16.920   9.494   8.108 -0.1668 -0.3995 -0.0911
  186loPI   C6A 2972  16.482   9.543   7.901 -0.2933 -0.1188  0.0862
  186loPI   C1B 2973  17.447   9.180   9.635 -0.0196  0.0900  0.1299
  186loPI   C2B 2974  17.403   9.185   9.090 -0.1224 -0.2386 -0.2665
  186loPI   C3B 2975  17.350   9.283   8.739  0.3461  0.1848 -0.0768
  186loPI   C4B 2976  17.244   9.168   8.346  0.1948 -0.0003 -0.1675
  187loPI    C1 2977   7.877  16.940  11.134  0.0234 -0.1268  0.1701
  187loPI    C2 2978   7.780  17.282  11.318 -0.2012 -0.1290  0.0599
  187loPI    C3 2979   7.664  16.932  11.473  0.1101 -0.1632  0.2239
  187loPI   PO4 2980   7.879  17.000  10.886  0.0095  0.1827 -0.3063
  187loPI   GL1 2981   7.837  17.171  10.524  0.0084 -0.1333  0.1860
  187loPI   GL2 2982   7.557  17.334  10.459 -0.0394 -0.0054  0.1001
  187loPI   C1A 2983   7.977  17.366  10.048 -0.2224  0.3863 -0.1983
  187loPI   C2A 2984   8.040  17.383   9.647  0.2309 -0.1716 -0.3987
  187loPI   C3A 2985   8.065  17.453   9.256 -0.1098 -0.0491  0.0425
  187loPI   C4A 2986   7.987  17.297   8.740  0.0375 -0.0033 -0.1918
  187loPI   C5A 2987   8.198  17.342   8.329 -0.0430  0.1385 -0.1847
  187loPI   C6A 2988   8.361  17.703   8.159  0.1116 -0.0164  0.1617
  187loPI   C1B 2989   7.449  17.251  10.040  0.0460  0.0821  0.2437
  187loPI   C2B 2990   7.429  17.276   9.646  0.0056  0.0307  0.2487
  187loPI   C3B 2991   7.666  17.225   9.193 -0.5545 -0.1042  0.0560
  187loPI   C4B 2992   7.487  17.097   8.740 -0.1444  0.0765  0.0814
  188loPI    C1 2993   8.687   5.369  11.089  0.0302 -0.1775  0.1279
  188loPI    C2 2994   8.319   5.313  11.237 -0.1006  0.0696 -0.0953
  188loPI    C3 2995   8.640   5.225  11.459 -0.2930 -0.1726  0.0918
  188loPI   PO4 2996   8.651   5.362  10.850  0.1415  0.0634 -0.2322
  188loPI   GL1 2997   8.721   5.534  10.435  0.0194 -0.0584  0.1149
  188loPI   GL2 2998   8.741   5.126  10.358  0.0574  0.3715 -0.2920
  188loPI   C1A 2999   8.796   5.613  10.019  0.0942 -0.0213 -0.1558
  188loPI   C2A 3000   8.889   5.533   9.551 -0.0414  0.0050 -0.0585
  188loPI   C3A 3001   8.945   5.407   9.144  0.1896  0.0136 -0.2641
  188loPI   C4A 3002   8.967   5.449   8.647 -0.1504 -0.1730  0.0571
  188loPI   C5A 3003   9.080   5.826   8.324 -0.2335 -0.3438  0.0837
  188loPI   C6A 3004   9.104   5.876   7.850  0.0019  0.2704 -0.0607
  188loPI   C1B 3005   8.729   5.036   9.996 -0.0682 -0.2366  0.1217
  188loPI   C2B 3006   8.697   5.064   9.574  0.1371 -0.2066 -0.2235
  188loPI   C3B 3007   8.801   4.964   9.199 -0.1333  0.1224 -0.2271
  188loPI   C4B 3008   8.760   4.996   8.804  0.1546 -0.2305 -0.1428
  189loPI    C1 3009   2.655   8.867  10.649  0.0716 -0.4897 -0.0316
  189loPI    C2 3010   2.460   8.757  10.980 -0.0608 -0.0394  0.0473
  189loPI    C3 3011   2.822   8.924  11.008 -0.1434  0.1540 -0.0204
  189loPI   PO4 3012   2.505   9.102  10.546 -0.0912  0.1178  0.0431
  189loPI   GL1 3013   2.395   9.029  10.066 -0.2235 -0.3218 -0.3475
  189loPI   GL2 3014   2.662   8.813  10.115 -0.0009 -0.0225  0.1687
  189loPI   C1A 3015   2.530   8.898   9.580  0.0285  0.0048  0.2874
  189loPI   C2A 3016   2.542   8.914   9.189 -0.0159  0.0831  0.1699
  189loPI   C3A 3017   2.388   8.850   8.840 -0.1838  0.3295  0.1112
  189loPI   C4A 3018   2.339   8.829   8.397  0.1512  0.0981 -0.2551
  189loPI   C5A 3019   2.197   8.961   7.981  0.1467 -0.1251 -0.2058
  189loPI   C6A 3020   1.761   9.008   7.848 -0.4404 -0.1185 -0.2094
  189loPI   C1B 3021   2.945   9.051   9.819 -0.2157  0.3036 -0.2710
  189loPI   C2B 3022   3.043   8.998   9.405  0.2539  0.2780  0.0351
  189loPI   C3B 3023   2.975   8.910   8.840  0.0216  0.0411  0.0576
  189loPI   C4B 3024   2.885   8.800   8.403 -0.1563 -0.0223 -0.0694
  190loPI    C1 3025   8.951   2.385  11.217 -0.1088  0.3040  0.1780
  190loPI    C2 3026   9.213   2.221  11.471 -0.1145 -0.0888 -0.0620
  190loPI    C3 3027   8.823   2.226  11.561 -0.0908 -0.0199  0.0382
  190loPI   PO4 3028   8.912   2.271  10.950 -0.1294 -0.0923  0.4697
  190loPI   GL1 3029   9.023   2.208  10.544 -0.0261  0.1448 -0.0523
  190loPI   GL2 3030   9.325   2.249  10.425 -0.0487  0.0637 -0.1520
  190loPI   C1A 3031   8.864   2.238  10.215  0.1068 -0.0098 -0.3046
  190loPI   C2A 3032   8.960   2.300   9.831  0.0067 -0.0054 -0.0423
  190loPI   C3A 3033   8.877   2.301   9.392 -0.0157  0.1429  0.2631
  190loPI   C4A 3034   8.998   2.376   9.088 -0.2067 -0.1838  0.0080
  190loPI   C5A 3035   9.015   2.283   8.657 -0.3775 -0.1886  0.1321
  190loPI   C6A 3036   8.995   2.209   8.228 -0.1617  0.1330  0.0380
  190loPI   C1B 3037   9.402   2.300  10.012 -0.0140 -0.1815 -0.2122
  190loPI   C2B 3038   9.364   2.388   9.503 -0.2991  0.2997  0.0022
  190loPI   C3B 3039   9.557   2.421   9.097 -0.1109  0.3261 -0.0558
  190loPI   C4B 3040   9.546   2.429   8.731 -0.3085  0.1513 -0.0094
  191loPI    C1 3041   9.377   8.049  11.088 -0.0249 -0.0808 -0.0586
  191loPI    C2 3042   9.145   7.964  11.402 -0.1894  0.1041 -0.1277
  191loPI    C3 3043   9.337   8.314  11.385 -0.0174  0.0102 -0.1382
  191loPI   PO4 3044   9.220   7.970  10.871  0.1214 -0.1317  0.0134
  191loPI   GL1 3045   9.407   7.954  10.442 -0.0648  0.2495 -0.1420
  191loPI   GL2 3046   9.382   8.276  10.455 -0.1299 -0.0773  0.0163
  191loPI   C1A 3047   9.305   7.783   9.986  0.1078  0.1111 -0.2264
  191loPI   C2A 3048   9.392   7.808   9.447 -0.1916 -0.1711 -0.1547
  191loPI   C3A 3049   9.320   7.881   9.016  0.1576 -0.1232 -0.0179
  191loPI   C4A 3050   9.511   7.769   8.617  0.2136  0.0980 -0.1626
  191loPI   C5A 3051   9.720   7.618   8.274 -0.0950  0.0598  0.1345
  191loPI   C6A 3052   9.505   7.347   7.888  0.0812  0.1861  0.0619
  191loPI   C1B 3053   9.672   8.203  10.103 -0.1877  0.1855  0.1378
  191loPI   C2B 3054   9.543   8.239   9.686 -0.0018  0.0405  0.2523
  191loPI   C3B 3055   9.528   8.274   9.228  0.1591  0.0114 -0.1415
  191loPI   C4B 3056   9.596   8.306   8.807 -0.1138  0.1586 -0.2748
  192loPI    C1 3057   6.073   0.244  10.957  0.1254  0.0819  0.0651
  192loPI    C2 3058   5.710   0.124  11.073  0.0857 -0.0299 -0.1680
  192loPI    C3 3059   5.987   0.217  11.346 -0.0324 -0.2026  0.0133
  192loPI   PO4 3060   6.124   0.027  10.768  0.1389  0.0177 -0.1903
  192loPI   GL1 3061   6.131  -0.097  10.379  0.1933  0.1356  0.1864
  192loPI   GL2 3062   6.326   0.314  10.386  0.2740  0.1440 -0.0525
  192loPI   C1A 3063   6.243  -0.198   9.918  0.1261  0.1141  0.2161
  192loPI   C2A 3064   6.313  -0.269   9.372 -0.2013 -0.2542 -0.1445
  192loPI   C3A 3065   6.325  -0.270   8.873 -0.0791 -0.1801 -0.1691
  192loPI   C4A 3066   6.422  -0.298   8.504  0.2594 -0.0482 -0.3711
  192loPI   C5A 3067   6.677  -0.520   8.044 -0.4341  0.1624 -0.3251
  192loPI   C6A 3068   6.800  -0.893   8.101 -0.1101 -0.2210 -0.0774
  192loPI   C1B 3069   6.461   0.246  10.020  0.2619 -0.1049  0.0668
  192loPI   C2B 3070   6.536   0.207   9.559  0.0805 -0.3457 -0.0338
  192loPI   C3B 3071   6.593   0.404   9.136  0.0328 -0.2051 -0.1345
  192loPI   C4B 3072   6.538   0.186   8.671 -0.3814 -0.2099  0.0952
  193loPI    C1 3073  10.682   9.418  11.111  0.2642 -0.0724  0.0335
  193loPI    C2 3074  10.457   9.723  10.984 -0.3010 -0.5103 -0.0587
  193loPI    C3 3075  10.509   9.663  11.376 -0.1250 -0.2575 -0.0411
  193loPI   PO4 3076  10.721   9.255  10.918  0.1100  0.0161  0.0981
  193loPI   GL1 3077  10.707   9.248  10.406 -0.0575 -0.2031  0.1425
  193loPI   GL2 3078  10.580   9.600  10.464  0.0945 -0.2273  0.1275
  193loPI   C1A 3079  10.549   9.328   9.979 -0.0538  0.2925  0.1845
  193loPI   C2A 3080  10.356   9.298   9.616  0.0459  0.1715 -0.0759
  193loPI   C3A 3081  10.489   9.295   9.273 -0.0664 -0.0309  0.1498
  193loPI   C4A 3082  10.523   9.355   8.834  0.0221 -0.0823 -0.1607
  193loPI   C5A 3083  10.503   9.424   8.431  0.1931  0.4325 -0.0443
  193loPI   C6A 3084  10.202   9.690   8.168 -0.1291  0.3388  0.2074
  193loPI   C1B 3085  10.723   9.806  10.090 -0.0599 -0.0576  0.0214
  193loPI   C2B 3086  10.640   9.848   9.640 -0.0353  0.3606 -0.3350
  193loPI   C3B 3087  10.606   9.867   9.291 -0.1325 -0.0201  0.0565
  193loPI   C4B 3088  10.670   9.903   8.918  0.0720 -0.1142  0.1401
  194loPI    C1 3089  16.454   9.147  11.129 -0.0195  0.0841  0.0047
  194loPI    C2 3090  16.791   8.949  11.214 -0.1097 -0.0875 -0.0320
  194loPI    C3 3091  16.653   9.226  11.467  0.0254 -0.0605  0.0131
  194loPI   PO4 3092  16.338   8.964  10.947  0.2823  0.2869 -0.1420
  194loPI   GL1 3093  16.234   8.815  10.498 -0.2060  0.0616  0.0115
  194loPI   GL2 3094  16.482   8.960  10.276 -0.0676  0.3801 -0.0959
  194loPI   C1A 3095  16.211   8.605  10.084 -0.0766  0.0423  0.1089
  194loPI   C2A 3096  16.176   8.627   9.627 -0.2841  0.2433  0.4284
  194loPI   C3A 3097  16.181   8.594   9.158  0.1111  0.1135 -0.0379
  194loPI   C4A 3098  16.033   8.554   8.731  0.1131  0.0685 -0.2998
  194loPI   C5A 3099  15.959   8.708   8.356  0.1629  0.0362  0.0210
  194loPI   C6A 3100  15.767   9.010   8.012  0.1795  0.0804  0.0466
  194loPI   C1B 3101  16.480   9.078   9.812  0.1064  0.0893 -0.1454
  194loPI   C2B 3102  16.339   9.051   9.377  0.2079  0.3099  0.0204
  194loPI   C3B 3103  16.353   9.092   9.063  0.0131 -0.0549  0.3462
  194loPI   C4B 3104  16.362   9.027   8.640  0.3960 -0.1366  0.2052
  195loPI    C1 3105  10.468  15.140  11.056 -0.0865  0.2361 -0.1251
  195loPI    C2 3106  10.330  14.941  11.374 -0.0340 -0.1810 -0.3553
  195loPI    C3 3107  10.720  14.932  11.287  0.0449  0.4102 -0.1100
  195loPI   PO4 3108  10.214  15.129  10.921  0.4699 -0.1189 -0.1444
  195loPI   GL1 3109  10.056  15.091  10.540 -0.2554 -0.1034 -0.1492
  195loPI   GL2 3110  10.256  15.322  10.479  0.1846 -0.0984 -0.0734
  195loPI   C1A 3111  10.346  14.886  10.112 -0.4738 -0.2416  0.1108
  195loPI   C2A 3112  10.359  14.886   9.693 -0.1578  0.0506  0.0823
  195loPI   C3A 3113  10.515  14.763   9.382 -0.1736 -0.0229 -0.2023
  195loPI   C4A 3114  10.440  14.759   8.941 -0.2213 -0.0999 -0.1351
  195loPI   C5A 3115  10.427  14.715   8.386  0.3959 -0.1478  0.0391
  195loPI   C6A 3116  10.183  14.831   8.038  0.0493 -0.0201 -0.0537
  195loPI   C1B 3117  10.039  15.257   9.955 -0.0460 -0.4465  0.0221
  195loPI   C2B 3118  10.035  15.230   9.453  0.2184 -0.0786  0.0914
  195loPI   C3B 3119  10.224  15.168   9.076  0.0076  0.1082 -0.1583
  195loPI   C4B 3120  10.160  15.085   8.612  0.1609 -0.0633  0.2346
  196loPI    C1 3121   3.764  10.139  10.911  0.3201 -0.0620 -0.1049
  196loPI    C2 3122   3.796   9.740  10.905 -0.0487 -0.0950 -0.1398
  196loPI    C3 3123   3.700   9.928  11.245 -0.0353 -0.0494 -0.1611
  196loPI   PO4 3124   3.915  10.267  10.635 -0.0656 -0.2072  0.0023
  196loPI   GL1 3125   3.736  10.450  10.256  0.0567  0.1694  0.2128
  196loPI   GL2 3126   4.097  10.606  10.288 -0.2129  0.1783 -0.0011
  196loPI   C1A 3127   3.585  10.375   9.818  0.1014 -0.1354 -0.1351
  196loPI   C2A 3128   3.527  10.302   9.465  0.0544 -0.1662 -0.0547
  196loPI   C3A 3129   3.620  10.324   9.013 -0.0305  0.1653  0.1624
  196loPI   C4A 3130   3.694  10.334   8.553 -0.2933 -0.2314 -0.0231
  196loPI   C5A 3131   4.042  10.624   8.272 -0.2488  0.2007 -0.1911
  196loPI   C6A 3132   4.476  10.755   8.088 -0.0679 -0.1020 -0.0997
  196loPI   C1B 3133   4.114  10.462   9.845 -0.1636 -0.0096 -0.1503
  196loPI   C2B 3134   4.035  10.432   9.510 -0.0780 -0.2554 -0.0064
  196loPI   C3B 3135   4.093  10.372   9.086 -0.1495 -0.0871  0.2601
  196loPI   C4B 3136   4.166  10.379   8.655  0.1536 -0.2603 -0.0720
  197loPI    C1 3137  12.355  15.879  10.798  0.3170  0.0187  0.2369
  197loPI    C2 3138  12.635  15.640  10.640  0.0791  0.0097 -0.1858
  197loPI    C3 3139  12.702  16.033  10.670  0.1331  0.0093 -0.2972
  197loPI   PO4 3140  12.233  15.640  10.910  0.2216 -0.1380  0.0622
  197loPI   GL1 3141  12.263  15.368  10.570  0.1391  0.0271  0.4466
  197loPI   GL2 3142  12.202  15.021  10.608 -0.3273  0.0665  0.0835
  197loPI   C1A 3143  12.277  15.598  10.252 -0.1357 -0.2442  0.1042
  197loPI   C2A 3144  12.316  15.426   9.796  0.1890 -0.0676 -0.0813
  197loPI   C3A 3145  12.262  15.374   9.384  0.0987 -0.0165  0.3418
  197loPI   C4A 3146  12.261  15.346   8.962  0.0200  0.1344  0.0679
  197loPI   C5A 3147  12.161  15.476   8.527  0.2647  0.0271 -0.1460
  197loPI   C6A 3148  11.918  15.797   8.382  0.6210  0.0471  0.0732
  197loPI   C1B 3149  12.060  15.055  10.209  0.1384 -0.4616  0.3686
  197loPI   C2B 3150  12.109  14.950   9.747 -0.1392 -0.0181  0.0106
  197loPI   C3B 3151  12.131  14.921   9.235 -0.1119 -0.0761  0.0139
  197loPI   C4B 3152  12.011  14.925   8.749  0.1131 -0.1352 -0.2290
  198loPI    C1 3153   4.907   9.922  10.885 -0.0593  0.0495  0.0722
  198loPI    C2 3154   4.788  10.304  10.871 -0.2722 -0.0120  0.1660
  198loPI    C3 3155   4.703  10.079  11.191  0.1272 -0.0501  0.2503
  198loPI   PO4 3156   4.774   9.766  10.610 -0.4125 -0.1563  0.0702
  198loPI   GL1 3157   4.694   9.981  10.257  0.2226 -0.1803 -0.3370
  198loPI   GL2 3158   4.705   9.731  10.089  0.1338  0.0211 -0.3180
  198loPI   C1A 3159   4.973  10.161   9.829 -0.2910  0.2331 -0.1431
  198loPI   C2A 3160   4.892  10.161   9.419 -0.0076  0.0187 -0.1276
  198loPI   C3A 3161   4.925  10.041   8.980  0.0568  0.0213  0.3421
  198loPI   C4A 3162   4.987  10.095   8.581 -0.0164  0.2779  0.2089
  198loPI   C5A 3163   4.867   9.999   8.125 -0.2103  0.1221  0.1665
  198loPI   C6A 3164   4.859   9.906   7.663  0.0023 -0.1878  0.0283
  198loPI   C1B 3165   4.732   9.711   9.593  0.0552  0.0926 -0.1738
  198loPI   C2B 3166   4.731   9.607   9.212 -0.0299  0.1538 -0.3268
  198loPI   C3B 3167   4.694   9.537   8.815  0.0657  0.0470 -0.1083
  198loPI   C4B 3168   4.684   9.545   8.392 -0.0719  0.1857  0.1311
  199loPI    C1 3169  14.059  14.490  11.204  0.1358  0.2173 -0.1184
  199loPI    C2 3170  13.710  14.603  11.364  0.1196 -0.2838  0.2242
  199loPI    C3 3171  14.041  14.815  11.435 -0.0968  0.1631 -0.0572
  199loPI   PO4 3172  14.061  14.487  10.934 -0.1664 -0.2237  0.1347
  199loPI   GL1 3173  13.793  14.375  10.538  0.0510 -0.1482  0.2047
  199loPI   GL2 3174  13.815  14.571  10.433 -0.0676  0.2797  0.1064
  199loPI   C1A 3175  13.418  14.602  10.172  0.0530 -0.1592 -0.1068
  199loPI   C2A 3176  13.419  14.666   9.773  0.0645 -0.1885  0.2179
  199loPI   C3A 3177  13.435  14.640   9.391  0.2704 -0.0270 -0.0546
  199loPI   C4A 3178  13.396  14.642   8.958 -0.2783 -0.0922  0.1485
  199loPI   C5A 3179  13.194  14.572   8.577 -0.0329 -0.1790 -0.0033
  199loPI   C6A 3180  12.942  14.537   8.199  0.1952  0.0789 -0.0431
  199loPI   C1B 3181  13.997  14.658   9.997  0.3941  0.0521 -0.1909
  199loPI   C2B 3182  13.924  14.761   9.525 -0.1204 -0.1701  0.0705
  199loPI   C3B 3183  13.916  14.686   9.022  0.0175  0.0330 -0.0543
  199loPI   C4B 3184  14.007  14.672   8.630 -0.2134  0.2401 -0.0013
  200loPI    C1 3185   0.114   0.557  10.119  0.0790 -0.2576  0.0350
  200loPI    C2 3186   0.319   0.666  10.444 -0.0716 -0.1364  0.0903
  200loPI    C3 3187   0.305   0.908  10.126  0.1411 -0.2894 -0.0383
  200loPI   PO4 3188   0.182   0.367  10.100  0.1616 -0.0876 -0.0268
  200loPI   GL1 3189   0.286   0.100   9.765 -0.4285  0.0097 -0.2359
  200loPI   GL2 3190   0.555  -0.024   9.566 -0.1448 -0.0788 -0.0074
  200loPI   C1A 3191   0.130   0.061   9.390 -0.1413  0.1997  0.2654
  200loPI   C2A 3192   0.094   0.120   8.979  0.1776  0.1329 -0.1649
  200loPI   C3A 3193   0.079   0.106   8.535  0.0841 -0.0465  0.0047
  200loPI   C4A 3194   0.037  -0.058   8.231  0.0659  0.1175 -0.2702
  200loPI   C5A 3195   0.136  -0.022   7.769  0.2065 -0.2401  0.0671
  200loPI   C6A 3196   0.402   0.149   7.492 -0.0051 -0.0737 -0.1763
  200loPI   C1B 3197   0.645  -0.044   9.158 -0.3949 -0.0908  0.3367
  200loPI   C2B 3198   0.586   0.117   8.688  0.1648  0.3896 -0.0664
  200loPI   C3B 3199   0.559   0.021   8.245 -0.2346  0.0580 -0.2248
  200loPI   C4B 3200   0.692  -0.145   7.872  0.1684  0.0895 -0.1388
  201loPI    C1 3201  14.619   3.637  10.896 -0.1762  0.2156 -0.2435
  201loPI    C2 3202  14.269   3.571  11.078  0.0308 -0.0602  0.0658
  201loPI    C3 3203  14.473   3.265  10.919  0.1117  0.1050 -0.1526
  201loPI   PO4 3204  14.470   3.853  10.726  0.0022  0.0476 -0.1979
  201loPI   GL1 3205  14.553   4.073  10.230 -0.3619 -0.4488  0.1008
  201loPI   GL2 3206  14.441   3.700  10.227  0.1630  0.1366 -0.1389
  201loPI   C1A 3207  14.499   4.009   9.787  0.1007 -0.1513 -0.1798
  201loPI   C2A 3208  14.445   3.897   9.335  0.0101  0.0394  0.2994
  201loPI   C3A 3209  14.317   3.916   8.893  0.2811  0.2979 -0.1874
  201loPI   C4A 3210  14.202   3.832   8.412 -0.0585 -0.0442 -0.0439
  201loPI   C5A 3211  14.102   3.444   8.295 -0.2050  0.0002  0.1717
  201loPI   C6A 3212  13.944   3.115   8.002 -0.1620 -0.4099  0.1584
  201loPI   C1B 3213  14.362   3.480   9.860  0.3115  0.0558 -0.0383
  201loPI   C2B 3214  14.305   3.440   9.508  0.0273  0.2195  0.1677
  201loPI   C3B 3215  14.295   3.413   9.121 -0.3468  0.1506  0.0613
  201loPI   C4B 3216  14.143   3.432   8.805  0.1453  0.2058  0.3504
  202loPI    C1 3217   5.690   8.060  10.837 -0.1564 -0.0098  0.0790
  202loPI    C2 3218   5.732   7.837  11.167 -0.0391 -0.0166  0.0601
  202loPI    C3 3219   5.872   8.212  11.159 -0.1025  0.0069  0.0408
  202loPI   PO4 3220   5.561   7.973  10.719  0.1267  0.0996  0.3350
  202loPI   GL1 3221   5.530   7.740  10.290  0.0245  0.3651 -0.3035
  202loPI   GL2 3222   5.694   7.482  10.163 -0.0228 -0.0571 -0.1212
  202loPI   C1A 3223   5.437   7.879   9.843  0.0102 -0.2597  0.0327
  202loPI   C2A 3224   5.504   7.823   9.358  0.1512 -0.1104  0.0376
  202loPI   C3A 3225   5.453   7.847   8.927  0.2456  0.0118 -0.0601
  202loPI   C4A 3226   5.556   7.758   8.502 -0.0566  0.0415 -0.2100
  202loPI   C5A 3227   5.287   7.630   8.078 -0.1016 -0.1954  0.0198
  202loPI   C6A 3228   5.085   7.310   7.799  0.1839 -0.1242 -0.0099
  202loPI   C1B 3229   5.773   7.465   9.717 -0.1188 -0.0475  0.0734
  202loPI   C2B 3230   5.773   7.467   9.198  0.2104  0.0706  0.3279
  202loPI   C3B 3231   5.829   7.499   8.793  0.3189  0.0039  0.2650
  202loPI   C4B 3232   5.864   7.373   8.428  0.4537  0.1496  0.4033
  203loPI    C1 3233  17.223  10.738  10.808 -0.1682  0.0110 -0.0165
  203loPI    C2 3234  16.944  10.471  10.912 -0.0615 -0.0823  0.0331
  203loPI    C3 3235  17.328  10.401  10.997 -0.0118  0.0009 -0.1191
  203loPI   PO4 3236  17.285  10.763  10.598 -0.1056 -0.1069  0.1498
  203loPI   GL1 3237  17.364  10.637  10.242 -0.0754 -0.0428 -0.0059
  203loPI   GL2 3238  17.265  10.991  10.174 -0.3723  0.0350  0.1708
  203loPI   C1A 3239  17.378  10.252   9.965  0.1500 -0.0808  0.1336
  203loPI   C2A 3240  17.262  10.059   9.522 -0.3143  0.1468  0.4247
  203loPI   C3A 3241  17.057  10.098   9.222 -0.0479  0.1659 -0.1811
  203loPI   C4A 3242  17.249  10.089   8.887 -0.2857 -0.1410  0.0643
  203loPI   C5A 3243  17.266  10.090   8.526 -0.1008  0.1810  0.0038
  203loPI   C6A 3244  17.519  10.122   8.114  0.2105  0.4144 -0.1059
  203loPI   C1B 3245  17.135  10.955   9.789 -0.2409 -0.1621 -0.0590
  203loPI   C2B 3246  17.111  11.003   9.337  0.2900 -0.0500 -0.0719
  203loPI   C3B 3247  17.133  11.038   8.921  0.0802  0.1217  0.2019
  203loPI   C4B 3248  17.258  11.050   8.526  0.3267  0.2937 -0.0427
  204loPI    C1 3249   2.241  10.692  10.984  0.2035  0.0324  0.1974
  204loPI    C2 3250   2.634  10.757  10.943  0.1819  0.3363  0.4359
  204loPI    C3 3251   2.481  10.673  11.303 -0.0177  0.5691  0.4090
  204loPI   PO4 3252   2.175  10.898  10.849  0.1290  0.0442 -0.0265
  204loPI   GL1 3253   2.262  10.862  10.366  0.2874  0.0936 -0.2527
  204loPI   GL2 3254   2.473  11.078  10.165  0.2032 -0.2295  0.1072
  204loPI   C1A 3255   2.147  10.713   9.955 -0.1201  0.0369 -0.1260
  204loPI   C2A 3256   2.124  10.661   9.537  0.0379  0.3942 -0.1728
  204loPI   C3A 3257   2.150  10.648   9.151  0.1816  0.1084 -0.4105
  204loPI   C4A 3258   2.258  10.538   8.797  0.0614  0.0900 -0.2298
  204loPI   C5A 3259   2.236  10.501   8.410  0.2694  0.1001 -0.2119
  204loPI   C6A 3260   2.373  10.669   8.088 -0.2252  0.0983  0.1041
  204loPI   C1B 3261   2.381  11.035   9.728 -0.1584  0.1459  0.1126
  204loPI   C2B 3262   2.382  11.134   9.284 -0.0701 -0.2445  0.0012
  204loPI   C3B 3263   2.354  11.040   8.968  0.0819 -0.1239 -0.0753
  204loPI   C4B 3264   2.539  11.002   8.527 -0.0009 -0.1675 -0.1275
  205loPI    C1 3265   9.840   2.735  11.143 -0.0062  0.1268  0.0867
  205loPI    C2 3266   9.908   2.665  11.531  0.0515  0.1628  0.0831
  205loPI    C3 3267   9.549   2.587  11.374  0.0435  0.1000  0.1324
  205loPI   PO4 3268   9.874   3.055  11.031 -0.0207  0.2717  0.0418
  205loPI   GL1 3269  10.012   3.128  10.581 -0.0853 -0.0102 -0.1167
  205loPI   GL2 3270   9.821   3.316  10.349  0.1373  0.0829  0.1314
  205loPI   C1A 3271  10.100   2.950  10.178  0.1532  0.0257  0.1264
  205loPI   C2A 3272  10.171   2.854   9.738  0.2085 -0.1672 -0.0545
  205loPI   C3A 3273  10.236   2.854   9.337 -0.2198 -0.1341 -0.0620
  205loPI   C4A 3274  10.194   2.879   8.901  0.2640  0.1549  0.1062
  205loPI   C5A 3275  10.354   2.873   8.415 -0.2766  0.1480 -0.2342
  205loPI   C6A 3276  10.285   2.870   7.959  0.2757 -0.0179 -0.0617
  205loPI   C1B 3277   9.802   3.409   9.891 -0.2473 -0.1048 -0.2895
  205loPI   C2B 3278   9.913   3.305   9.589  0.1531 -0.2447 -0.0491
  205loPI   C3B 3279  10.006   3.368   9.208 -0.0661  0.0222  0.0580
  205loPI   C4B 3280   9.910   3.353   8.838  0.0143 -0.0552 -0.2595
  206loPI    C1 3281   2.524  10.254  10.769 -0.0246 -0.1275 -0.1831
  206loPI    C2 3282   2.262   9.952  10.771 -0.0587 -0.0976  0.0522
  206loPI    C3 3283   2.264  10.218  11.070  0.1417 -0.0120 -0.0234
  206loPI   PO4 3284   2.465  10.444  10.603  0.1709  0.1540  0.0516
  206loPI   GL1 3285   2.563  10.416  10.182 -0.4416 -0.1218  0.0511
  206loPI   GL2 3286   2.687  10.638   9.928 -0.1206 -0.1241 -0.3297
  206loPI   C1A 3287   2.458  10.232   9.756  0.1706  0.0301  0.0485
  206loPI   C2A 3288   2.493  10.182   9.325  0.0159  0.3223 -0.3041
  206loPI   C3A 3289   2.553  10.072   8.842 -0.0272 -0.0886 -0.1308
  206loPI   C4A 3290   2.724  10.085   8.517  0.3256 -0.1427  0.1296
  206loPI   C5A 3291   2.768  10.058   8.078  0.2888 -0.0922  0.1329
  206loPI   C6A 3292   2.690  10.390   7.693  0.1640  0.0342 -0.0487
  206loPI   C1B 3293   2.728  10.698   9.518  0.2215  0.0352  0.2131
  206loPI   C2B 3294   2.692  10.558   9.038 -0.0941  0.1502 -0.4171
  206loPI   C3B 3295   2.764  10.558   8.640  0.0797  0.2010  0.0224
  206loPI   C4B 3296   2.899  10.651   8.177 -0.1403 -0.1601  0.0104
  207loPI    C1 3297   8.685  16.099  10.880  0.1577 -0.2968 -0.1294
  207loPI    C2 3298   8.832  16.077  11.251  0.1680 -0.0807 -0.1195
  207loPI    C3 3299   8.680  16.422  11.117 -0.0342 -0.2156 -0.2417
  207loPI   PO4 3300   8.500  15.878  10.825  0.4005  0.0642  0.4527
  207loPI   GL1 3301   8.465  15.802  10.395 -0.0065  0.1301  0.2888
  207loPI   GL2 3302   8.610  16.103  10.394  0.2238 -0.1704 -0.1669
  207loPI   C1A 3303   8.664  15.660  10.100  0.2519 -0.0357 -0.0217
  207loPI   C2A 3304   8.635  15.623   9.646 -0.2385 -0.0915 -0.0685
  207loPI   C3A 3305   8.752  15.503   9.265  0.0746  0.1372  0.2258
  207loPI   C4A 3306   8.853  15.501   8.907 -0.2047  0.0879 -0.0293
  207loPI   C5A 3307   8.749  15.633   8.494  0.0983 -0.0738 -0.2310
  207loPI   C6A 3308   8.984  15.603   8.086  0.3778 -0.2413  0.0026
  207loPI   C1B 3309   8.491  16.168  10.004 -0.0207 -0.1268  0.0407
  207loPI   C2B 3310   8.505  16.069   9.700  0.1399 -0.1606 -0.1356
  207loPI   C3B 3311   8.399  15.923   9.271 -0.2308 -0.2370 -0.0553
  207loPI   C4B 3312   8.476  15.905   8.817  0.1599  0.2256  0.1826
  208loPI    C1 3313   3.220   3.014  11.106  0.1709  0.1215  0.1086
  208loPI    C2 3314   3.598   3.120  11.030  0.2448 -0.1940  0.0221
  208loPI    C3 3315   3.520   2.769  11.205 -0.0046 -0.0872  0.1300
  208loPI   PO4 3316   3.084   3.102  10.972  0.2940  0.3893  0.1616
  208loPI   GL1 3317   3.258   3.189  10.625 -0.0713 -0.0800 -0.2176
  208loPI   GL2 3318   3.625   3.239  10.465  0.1752 -0.0854  0.4018
  208loPI   C1A 3319   3.157   3.122  10.208  0.0513  0.2646 -0.1105
  208loPI   C2A 3320   3.263   3.031   9.748 -0.0012  0.0684  0.1536
  208loPI   C3A 3321   3.312   3.097   9.237 -0.1003 -0.2854 -0.3970
  208loPI   C4A 3322   3.358   3.199   8.757  0.0766  0.0236  0.1061
  208loPI   C5A 3323   3.629   3.201   8.334 -0.0632  0.1277 -0.0261
  208loPI   C6A 3324   3.924   3.184   8.027 -0.0482  0.1724  0.4348
  208loPI   C1B 3325   3.639   3.075  10.102 -0.0139  0.0632 -0.0076
  208loPI   C2B 3326   3.833   3.118   9.739 -0.1394  0.2654  0.0459
  208loPI   C3B 3327   4.037   3.205   9.298  0.2152  0.2887 -0.3971
  208loPI   C4B 3328   3.823   3.218   8.906  0.0048 -0.2653  0.1533
  209loPI    C1 3329  16.503   7.044  10.440 -0.0923  0.1148 -0.1309
  209loPI    C2 3330  16.489   6.710  10.661  0.0322  0.0399 -0.2354
  209loPI    C3 3331  16.722   7.015  10.773 -0.1055  0.1050 -0.1229
  209loPI   PO4 3332  16.291   6.989  10.282  0.0703  0.1744 -0.1131
  209loPI   GL1 3333  15.981   7.232   9.989  0.1555 -0.1009 -0.1787
  209loPI   GL2 3334  15.906   6.975   9.996  0.1650 -0.0084 -0.0311
  209loPI   C1A 3335  16.062   7.310   9.653 -0.1356  0.2778  0.0328
  209loPI   C2A 3336  15.965   7.353   9.160 -0.1847  0.1374  0.0368
  209loPI   C3A 3337  15.914   7.268   8.698 -0.1571  0.1042 -0.0866
  209loPI   C4A 3338  16.012   7.235   8.298 -0.2266  0.0082  0.3152
  209loPI   C5A 3339  16.029   7.045   7.931  0.0693  0.2451  0.2263
  209loPI   C6A 3340  15.881   6.669   7.755 -0.3165  0.2262 -0.1573
  209loPI   C1B 3341  15.732   6.804   9.639  0.1102 -0.0414 -0.2675
  209loPI   C2B 3342  15.719   6.729   9.243 -0.0572  0.0783  0.0800
  209loPI   C3B 3343  15.725   6.678   8.787 -0.0209 -0.0618  0.0286
  209loPI   C4B 3344  15.816   6.747   8.366  0.3294 -0.2408 -0.1628
  210loPI    C1 3345  10.330   6.757  11.118  0.0449 -0.0003  0.0147
  210loPI    C2 3346  10.678   6.853  11.290 -0.0407 -0.0053  0.1928
  210loPI    C3 3347  10.386   6.688  11.508 -0.0980 -0.1479  0.0103
  210loPI   PO4 3348  10.383   6.833  10.857 -0.1439  0.2407  0.0320
  210loPI   GL1 3349  10.256   6.692  10.510 -0.2256 -0.0412  0.0462
  210loPI   GL2 3350  10.224   7.019  10.426 -0.1171  0.2057  0.1229
  210loPI   C1A 3351  10.308   6.554  10.197  0.2933 -0.0883  0.1100
  210loPI   C2A 3352  10.360   6.589   9.774  0.0894 -0.1452  0.2261
  210loPI   C3A 3353  10.274   6.584   9.284  0.1136 -0.0205 -0.1099
  210loPI   C4A 3354  10.301   6.447   8.898 -0.0007  0.0319 -0.1266
  210loPI   C5A 3355  10.471   6.427   8.511  0.1064  0.1509 -0.2084
  210loPI   C6A 3356  10.556   6.661   8.174  0.2820  0.1875  0.3408
  210loPI   C1B 3357  10.040   6.980  10.057 -0.0240  0.0736  0.1658
  210loPI   C2B 3358  10.002   6.895   9.628 -0.1766 -0.0958 -0.1754
  210loPI   C3B 3359   9.978   7.116   9.264 -0.3310  0.3289 -0.1756
  210loPI   C4B 3360  10.060   6.959   8.890  0.3149 -0.1055 -0.0273
  211loPI    C1 3361  16.010  15.911  10.503 -0.0937 -0.1672  0.2657
  211loPI    C2 3362  15.764  16.226  10.508 -0.2812 -0.3110  0.2261
  211loPI    C3 3363  15.766  15.969  10.814 -0.0138 -0.1860  0.3323
  211loPI   PO4 3364  15.994  15.860  10.152 -0.2753 -0.3645 -0.1815
  211loPI   GL1 3365  15.754  15.902   9.902 -0.0783  0.0255  0.3090
  211loPI   GL2 3366  15.681  15.796   9.728  0.1150 -0.0965  0.1309
  211loPI   C1A 3367  15.711  16.251   9.522  0.1660  0.2243  0.2386
  211loPI   C2A 3368  15.545  16.299   9.189 -0.0619 -0.2482  0.2129
  211loPI   C3A 3369  15.474  16.357   8.669  0.0004  0.0017 -0.0168
  211loPI   C4A 3370  15.371  16.488   8.210  0.2173 -0.1996  0.0589
  211loPI   C5A 3371  15.351  16.743   7.927  0.1820  0.3020 -0.0995
  211loPI   C6A 3372  15.175  17.094   7.656 -0.1730 -0.0844  0.0232
  211loPI   C1B 3373  15.474  15.776   9.341 -0.0224 -0.2117 -0.0621
  211loPI   C2B 3374  15.433  15.892   8.969  0.1864 -0.1328  0.0841
  211loPI   C3B 3375  15.217  15.728   8.618  0.1280  0.0643  0.0340
  211loPI   C4B 3376  15.161  15.553   8.208 -0.3361  0.0160  0.1349
  212loPI    C1 3377   3.003  17.643  10.685  0.2328 -0.0791  0.0220
  212loPI    C2 3378   3.168  17.467  11.004 -0.1495 -0.2498  0.1314
  212loPI    C3 3379   3.008  17.244  10.713 -0.1282 -0.0886 -0.0053
  212loPI   PO4 3380   3.174  17.849  10.556  0.1846 -0.2153 -0.0032
  212loPI   GL1 3381   3.244  17.825  10.163 -0.0766 -0.2338  0.0494
  212loPI   GL2 3382   3.361  18.139   9.987 -0.0841  0.4426  0.2693
  212loPI   C1A 3383   3.211  17.674   9.686 -0.2148  0.0920 -0.0259
  212loPI   C2A 3384   3.295  17.684   9.205  0.0442  0.3154 -0.2768
  212loPI   C3A 3385   3.162  17.692   8.825 -0.0928 -0.2770 -0.2279
  212loPI   C4A 3386   3.306  17.672   8.412  0.0693  0.3326 -0.4762
  212loPI   C5A 3387   3.319  17.665   8.028 -0.1925  0.2551  0.3428
  212loPI   C6A 3388   3.454  17.894   7.649 -0.0562  0.0179 -0.0795
  212loPI   C1B 3389   3.414  18.133   9.523  0.0009 -0.0589 -0.1411
  212loPI   C2B 3390   3.469  18.153   9.086 -0.0050 -0.1204  0.2037
  212loPI   C3B 3391   3.472  18.125   8.626 -0.3554  0.0111 -0.0956
  212loPI   C4B 3392   3.616  18.056   8.158  0.1848  0.2588  0.0653
  213loPI    C1 3393   6.693   8.131  11.128  0.1070 -0.0083  0.0038
  213loPI    C2 3394   6.361   8.345  11.191  0.1280  0.0657 -0.1322
  213loPI    C3 3395   6.707   8.462  11.353  0.1328  0.1159 -0.1784
  213loPI   PO4 3396   6.679   8.180  10.801 -0.1349 -0.0278  0.1429
  213loPI   GL1 3397   6.472   8.198  10.400  0.0711 -0.2617 -0.3895
  213loPI   GL2 3398   6.588   8.451  10.389 -0.1138  0.0530 -0.2961
  213loPI   C1A 3399   6.397   8.012  10.082  0.0652  0.5606  0.2533
  213loPI   C2A 3400   6.479   8.005   9.698 -0.3798 -0.3726 -0.0151
  213loPI   C3A 3401   6.459   7.978   9.217  0.2298 -0.0477 -0.0457
  213loPI   C4A 3402   6.590   7.906   8.769  0.1283  0.2469 -0.2088
  213loPI   C5A 3403   6.589   7.847   8.322 -0.2041 -0.1255 -0.1384
  213loPI   C6A 3404   6.278   7.699   8.034 -0.0607 -0.0039 -0.3128
  213loPI   C1B 3405   6.632   8.484   9.989 -0.2026 -0.0771 -0.2296
  213loPI   C2B 3406   6.612   8.446   9.502  0.2635  0.0749 -0.1393
  213loPI   C3B 3407   6.676   8.425   9.108 -0.1624 -0.2466  0.1466
  213loPI   C4B 3408   6.849   8.503   8.705 -0.1818 -0.2791 -0.0192
  214loPI    C1 3409   0.495   0.154  10.500 -0.0065 -0.0943 -0.1926
  214loPI    C2 3410   0.369  -0.209  10.614 -0.0071  0.0389  0.2488
  214loPI    C3 3411   0.105   0.088  10.563 -0.0227 -0.0526 -0.2485
  214loPI   PO4 3412   0.611   0.179  10.274  0.0980 -0.2756 -0.0356
  214loPI   GL1 3413   0.946   0.141   9.953 -0.1643 -0.0840 -0.2730
  214loPI   GL2 3414   1.133   0.386  10.004  0.2254 -0.0050  0.2749
  214loPI   C1A 3415   1.040   0.081   9.468 -0.0967  0.1341  0.0616
  214loPI   C2A 3416   1.103   0.028   9.022  0.0123  0.1306  0.1002
  214loPI   C3A 3417   1.108   0.191   8.622  0.0674 -0.3131  0.0233
  214loPI   C4A 3418   1.110   0.340   8.138 -0.0501  0.2289 -0.1285
  214loPI   C5A 3419   1.344   0.547   7.754 -0.1257  0.0648  0.2322
  214loPI   C6A 3420   1.439   0.952   7.657 -0.1703 -0.0611 -0.0875
  214loPI   C1B 3421   1.265   0.486   9.546 -0.0648  0.3844  0.0030
  214loPI   C2B 3422   1.263   0.550   9.125  0.0688 -0.2595  0.0448
  214loPI   C3B 3423   1.354   0.577   8.751  0.1004 -0.1375 -0.0437
  214loPI   C4B 3424   1.392   0.670   8.364 -0.1101 -0.1509  0.0383
  215loPI    C1 3425  11.514  11.041  11.346  0.1306  0.1180 -0.1079
  215loPI    C2 3426  11.659  11.352  11.551  0.1113  0.0227  0.0522
  215loPI    C3 3427  11.608  10.999  11.733 -0.2074  0.0222 -0.0327
  215loPI   PO4 3428  11.467  11.179  11.152 -0.2793 -0.3212 -0.0104
  215loPI   GL1 3429  11.610  11.083  10.760  0.0525  0.1890 -0.0243
  215loPI   GL2 3430  11.793  10.781  10.787 -0.0706 -0.2450  0.0561
  215loPI   C1A 3431  11.430  11.208  10.334 -0.0147  0.2405  0.1139
  215loPI   C2A 3432  11.440  11.345   9.980  0.1637  0.0308  0.1541
  215loPI   C3A 3433  11.385  11.270   9.598 -0.2469  0.2195 -0.1102
  215loPI   C4A 3434  11.351  11.410   9.225 -0.2530 -0.4211 -0.3470
  215loPI   C5A 3435  11.242  11.413   8.816 -0.2127 -0.1970  0.0351
  215loPI   C6A 3436  10.856  11.635   8.535  0.0132 -0.1745 -0.0758
  215loPI   C1B 3437  11.643  10.775  10.365 -0.2187 -0.1966 -0.2729
  215loPI   C2B 3438  11.628  10.901   9.929 -0.1431 -0.1195  0.2487
  215loPI   C3B 3439  11.626  10.830   9.540 -0.0308  0.0378  0.3227
  215loPI   C4B 3440  11.695  10.893   9.148  0.3945  0.0034 -0.2279
  216loPI    C1 3441  12.470   1.646  11.000  0.0900 -0.0322 -0.0584
  216loPI    C2 3442  12.302   1.390  11.257  0.0878 -0.0195 -0.0470
  216loPI    C3 3443  12.696   1.455  11.269  0.0831  0.0052 -0.0260
  216loPI   PO4 3444  12.403   1.548  10.682  0.0681  0.0779 -0.2064
  216loPI   GL1 3445  12.385   1.268  10.336 -0.0834 -0.2499 -0.1200
  216loPI   GL2 3446  12.337   1.002  10.207  0.2259 -0.1398 -0.0856
  216loPI   C1A 3447  12.544   1.432   9.905  0.0635  0.2024 -0.1200
  216loPI   C2A 3448  12.570   1.316   9.405 -0.2940  0.1022 -0.1021
  216loPI   C3A 3449  12.560   1.230   8.939 -0.2323  0.2488  0.1173
  216loPI   C4A 3450  12.615   1.287   8.479 -0.0145  0.2832  0.1644
  216loPI   C5A 3451  12.419   1.298   8.102  0.0413 -0.0659  0.0392
  216loPI   C6A 3452  12.286   1.332   7.593 -0.0230  0.1280  0.0076
  216loPI   C1B 3453  12.271   0.901   9.753  0.1513 -0.0054  0.0319
  216loPI   C2B 3454  12.421   0.787   9.347  0.0952  0.1015  0.1808
  216loPI   C3B 3455  12.362   0.738   8.840  0.2365 -0.0918  0.0065
  216loPI   C4B 3456  12.415   0.822   8.427  0.0588  0.0446  0.0781
  217loPI    C1 3457   4.629  16.415  10.479 -0.0829  0.0631  0.1164
  217loPI    C2 3458   4.693  16.499  10.865 -0.2191 -0.1469  0.1860
  217loPI    C3 3459   4.390  16.260  10.759 -0.2792  0.0362 -0.0638
  217loPI   PO4 3460   4.998  16.434  10.356  0.0251  0.1507 -0.1912
  217loPI   GL1 3461   5.155  16.397   9.899 -0.2014 -0.3370  0.0858
  217loPI   GL2 3462   5.511  16.251   9.908 -0.2113 -0.0799 -0.1555
  217loPI   C1A 3463   5.233  16.491   9.363 -0.0522  0.0178 -0.2616
  217loPI   C2A 3464   5.270  16.487   8.848 -0.3088  0.2882 -0.2151
  217loPI   C3A 3465   5.266  16.331   8.458  0.3801 -0.0707  0.2211
  217loPI   C4A 3466   5.379  16.329   8.115 -0.0414  0.0270  0.1150
  217loPI   C5A 3467   5.664  16.523   7.839  0.1271 -0.2898  0.1075
  217loPI   C6A 3468   5.908  16.573   7.513 -0.0214  0.0440  0.1382
  217loPI   C1B 3469   5.534  16.116   9.422 -0.2558  0.0764 -0.0444
  217loPI   C2B 3470   5.589  16.106   8.962  0.1302  0.4007 -0.0747
  217loPI   C3B 3471   5.607  15.969   8.533 -0.0255  0.3892  0.5973
  217loPI   C4B 3472   5.793  15.920   8.124  0.0438  0.0090 -0.1895
  218loPI    C1 3473  11.194   4.304  10.990 -0.0877  0.0907  0.1172
  218loPI    C2 3474  11.243   4.491  11.340  0.0047  0.1358  0.0804
  218loPI    C3 3475  11.115   4.112  11.333  0.1093  0.0982  0.1680
  218loPI   PO4 3476  11.413   4.373  10.797  0.0803 -0.2431 -0.3195
  218loPI   GL1 3477  11.278   4.538  10.425  0.1412 -0.1296  0.1289
  218loPI   GL2 3478  10.954   4.422  10.220  0.0258  0.1885 -0.0221
  218loPI   C1A 3479  11.456   4.507  10.072 -0.0163  0.0098  0.1229
  218loPI   C2A 3480  11.416   4.485   9.593  0.2364  0.2687  0.0196
  218loPI   C3A 3481  11.366   4.449   9.140 -0.2538 -0.2461  0.0038
  218loPI   C4A 3482  11.359   4.382   8.739  0.2846  0.0690  0.0903
  218loPI   C5A 3483  11.186   4.029   8.523  0.1472  0.0883 -0.0824
  218loPI   C6A 3484  11.370   3.881   8.077  0.2651 -0.1960  0.1117
  218loPI   C1B 3485  10.887   4.442   9.860 -0.0700  0.0102  0.0446
  218loPI   C2B 3486  10.901   4.335   9.421  0.1097 -0.0561 -0.2700
  218loPI   C3B 3487  10.869   4.247   8.955  0.0571 -0.1145 -0.0177
  218loPI   C4B 3488  10.754   4.356   8.594  0.0649 -0.1615 -0.0206
  219loPI    C1 3489  14.144   2.096  10.614  0.1451 -0.0030  0.0288
  219loPI    C2 3490  14.189   2.117  11.011 -0.1567 -0.1844  0.0758
  219loPI    C3 3491  14.330   1.801  10.810  0.3294  0.0807 -0.0173
  219loPI   PO4 3492  13.825   2.139  10.609 -0.2244 -0.1106 -0.0163
  219loPI   GL1 3493  13.576   2.021  10.224 -0.0466 -0.2680  0.1436
  219loPI   GL2 3494  13.855   2.022  10.141  0.0553  0.1514 -0.0897
  219loPI   C1A 3495  13.401   2.281  10.005 -0.0987 -0.3800 -0.1492
  219loPI   C2A 3496  13.437   2.360   9.567  0.1668 -0.1022  0.2689
  219loPI   C3A 3497  13.430   2.281   9.162  0.2670 -0.0975  0.1800
  219loPI   C4A 3498  13.469   2.205   8.663 -0.0491 -0.0315  0.1899
  219loPI   C5A 3499  13.319   2.232   8.204  0.0357 -0.2726  0.0966
  219loPI   C6A 3500  13.284   2.678   8.054  0.2452 -0.0510  0.2379
  219loPI   C1B 3501  13.757   1.958   9.737 -0.0523 -0.0574 -0.1003
  219loPI   C2B 3502  13.728   1.902   9.342 -0.4603 -0.1058  0.0071
  219loPI   C3B 3503  13.776   1.968   8.918  0.0823 -0.2422  0.2893
  219loPI   C4B 3504  13.792   1.876   8.506  0.0289  0.2191  0.1011
  220loPI    C1 3505  11.348  13.388  11.184  0.0830  0.0339 -0.0828
  220loPI    C2 3506  10.990  13.472  11.341  0.0668 -0.0226 -0.0890
  220loPI    C3 3507  11.248  13.243  11.543  0.1062  0.0324 -0.0769
  220loPI   PO4 3508  11.362  13.381  10.950 -0.0113 -0.0434  0.2883
  220loPI   GL1 3509  11.469  13.269  10.483  0.1696 -0.1978 -0.0419
  220loPI   GL2 3510  11.117  13.364  10.384 -0.0660 -0.0901 -0.0563
  220loPI   C1A 3511  11.637  13.276  10.079  0.3054  0.0652  0.3900
  220loPI   C2A 3512  11.632  13.143   9.620 -0.3743 -0.0609  0.0148
  220loPI   C3A 3513  11.660  13.083   9.223  0.0878  0.3054  0.1065
  220loPI   C4A 3514  11.642  13.134   8.777  0.1165 -0.0770 -0.4146
  220loPI   C5A 3515  11.407  13.122   8.410 -0.0623  0.1589 -0.1332
  220loPI   C6A 3516  11.343  12.718   8.239 -0.1044 -0.0643 -0.0788
  220loPI   C1B 3517  11.112  13.000  10.090  0.5134  0.0821  0.1468
  220loPI   C2B 3518  11.192  12.943   9.734 -0.0241 -0.0568  0.0828
  220loPI   C3B 3519  11.124  13.014   9.271 -0.0026 -0.0877 -0.0881
  220loPI   C4B 3520  11.128  13.065   8.829  0.2019  0.1374 -0.0510
  221loPI    C1 3521  13.538   4.007  10.769  0.2450 -0.0697 -0.0371
  221loPI    C2 3522  13.199   4.069  10.974  0.0785  0.2964 -0.4084
  221loPI    C3 3523  13.513   4.310  11.029  0.3303 -0.1125  0.0214
  221loPI   PO4 3524  13.459   3.852  10.550  0.1650 -0.0629 -0.2458
  221loPI   GL1 3525  13.719   3.715  10.300 -0.0083  0.1139  0.2408
  221loPI   GL2 3526  13.742   3.473  10.373 -0.1862 -0.0333  0.1271
  221loPI   C1A 3527  13.532   3.811   9.900 -0.0094 -0.3326 -0.2411
  221loPI   C2A 3528  13.438   3.822   9.356  0.1617 -0.1306  0.2318
  221loPI   C3A 3529  13.430   3.680   8.963  0.0074 -0.2316 -0.3744
  221loPI   C4A 3530  13.388   3.643   8.560 -0.0301  0.0500 -0.3346
  221loPI   C5A 3531  13.192   3.503   8.131  0.0073 -0.0961  0.0542
  221loPI   C6A 3532  12.803   3.431   8.093 -0.1353 -0.1605 -0.5314
  221loPI   C1B 3533  13.820   3.396   9.912  0.3818  0.1840 -0.0205
  221loPI   C2B 3534  13.826   3.476   9.472 -0.3147  0.2517 -0.0315
  221loPI   C3B 3535  13.722   3.335   9.102  0.0372 -0.1507 -0.0096
  221loPI   C4B 3536  13.745   3.166   8.542  0.0440 -0.0700 -0.1731
  222loPI    C1 3537  15.506   3.853  10.585  0.0238  0.0120  0.0591
  222loPI    C2 3538  15.452   4.102  10.893  0.1513  0.1854 -0.0568
  222loPI    C3 3539  15.688   3.781  10.934 -0.0824  0.0326  0.1191
  222loPI   PO4 3540  15.285   3.897  10.420  0.2072  0.1034 -0.2579
  222loPI   GL1 3541  15.409   3.815  10.059  0.1105  0.0569 -0.0669
  222loPI   GL2 3542  15.448   4.255   9.992 -0.4777  0.3496 -0.3900
  222loPI   C1A 3543  15.022   3.918   9.801 -0.1664  0.1228 -0.1718
  222loPI   C2A 3544  14.903   3.990   9.291  0.4000 -0.2198 -0.0393
  222loPI   C3A 3545  15.055   3.934   9.002  0.0069 -0.0188  0.1518
  222loPI   C4A 3546  14.790   3.956   8.674  0.0172 -0.1119 -0.1361
  222loPI   C5A 3547  14.856   4.040   8.253 -0.1255  0.1445  0.0242
  222loPI   C6A 3548  15.067   4.152   7.912  0.1847  0.1567 -0.3318
  222loPI   C1B 3549  15.202   4.451   9.636  0.0019  0.2157  0.2752
  222loPI   C2B 3550  15.080   4.424   9.192 -0.1042  0.2352  0.0804
  222loPI   C3B 3551  15.093   4.370   8.736 -0.3030 -0.1877 -0.3955
  222loPI   C4B 3552  15.201   4.427   8.240  0.0961 -0.0937  0.1221
  223loPI    C1 3553  18.081  11.292  10.721 -0.3036  0.0478 -0.1491
  223loPI    C2 3554  17.991  11.491  11.056  0.1408  0.0102 -0.0004
  223loPI    C3 3555  18.068  11.099  11.071  0.3399  0.0435 -0.1139
  223loPI   PO4 3556  17.809  11.349  10.481  0.0485 -0.0136 -0.2515
  223loPI   GL1 3557  17.785  11.436  10.100  0.0155  0.0986  0.1294
  223loPI   GL2 3558  17.601  11.253   9.953 -0.1982 -0.1529 -0.0801
  223loPI   C1A 3559  17.822  11.601   9.670  0.0004  0.0501 -0.0591
  223loPI   C2A 3560  17.927  11.646   9.268  0.1817  0.2072 -0.3375
  223loPI   C3A 3561  17.912  11.520   8.805  0.2416 -0.5541 -0.0500
  223loPI   C4A 3562  17.915  11.589   8.401 -0.2392 -0.0117  0.3039
  223loPI   C5A 3563  17.507  11.459   8.111 -0.4883 -0.1506 -0.1757
  223loPI   C6A 3564  17.254  11.307   7.714 -0.0017 -0.0932 -0.2726
  223loPI   C1B 3565  17.704  11.140   9.538  0.3887 -0.2070  0.0940
  223loPI   C2B 3566  17.794  11.145   9.194  0.2512 -0.0416 -0.3384
  223loPI   C3B 3567  17.631  11.122   8.831  0.0081 -0.1822  0.1953
  223loPI   C4B 3568  17.708  11.110   8.456  0.1141 -0.0927  0.1909
  224loPI    C1 3569   4.417   5.824  10.648 -0.1126 -0.3109 -0.0174
  224loPI    C2 3570   4.580   5.753  11.007  0.0299 -0.0497 -0.0277
  224loPI    C3 3571   4.319   6.053  10.961  0.0058 -0.0873 -0.1414
  224loPI   PO4 3572   4.600   5.874  10.498  0.0206 -0.1346  0.0766
  224loPI   GL1 3573   4.579   5.822  10.101  0.1336  0.1663 -0.0873
  224loPI   GL2 3574   4.867   5.474  10.159  0.2493  0.0848 -0.0085
  224loPI   C1A 3575   4.686   6.030   9.679 -0.0084  0.0955  0.2944
  224loPI   C2A 3576   4.609   5.996   9.239  0.1333 -0.3715 -0.0002
  224loPI   C3A 3577   4.604   5.983   8.820 -0.0779  0.1396  0.3900
  224loPI   C4A 3578   4.636   6.022   8.347  0.3945  0.2538  0.0009
  224loPI   C5A 3579   4.888   5.815   8.029 -0.2024  0.1602 -0.1794
  224loPI   C6A 3580   5.107   5.422   7.971  0.2046  0.2751  0.3596
  224loPI   C1B 3581   5.000   5.567   9.732  0.2857 -0.0864  0.2472
  224loPI   C2B 3582   4.989   5.605   9.237 -0.1869 -0.0464  0.1936
  224loPI   C3B 3583   5.019   5.431   8.886  0.0925 -0.3230 -0.1724
  224loPI   C4B 3584   5.039   5.435   8.488  0.3153  0.0488  0.1633
  225loPI    C1 3585  12.701  10.640  11.104 -0.1642  0.0779  0.1186
  225loPI    C2 3586  12.854  10.706  11.468  0.2706 -0.1505 -0.0157
  225loPI    C3 3587  12.667  10.361  11.389 -0.0249 -0.0084  0.0523
  225loPI   PO4 3588  12.814  10.637  10.914  0.1239 -0.1816  0.2086
  225loPI   GL1 3589  12.629  10.616  10.580 -0.0237 -0.3848  0.0494
  225loPI   GL2 3590  12.753  10.324  10.462  0.0969 -0.2202  0.3084
  225loPI   C1A 3591  12.522  10.593  10.093  0.2767  0.1381  0.0504
  225loPI   C2A 3592  12.472  10.540   9.673  0.0217 -0.1862 -0.2080
  225loPI   C3A 3593  12.498  10.512   9.246  0.0074  0.2403 -0.0751
  225loPI   C4A 3594  12.412  10.439   8.826 -0.0227 -0.0442 -0.0166
  225loPI   C5A 3595  12.458  10.408   8.401 -0.1368  0.2718 -0.0893
  225loPI   C6A 3596  12.655  10.566   7.951 -0.2075  0.0568 -0.1675
  225loPI   C1B 3597  12.850  10.154  10.021  0.0963  0.1165 -0.0667
  225loPI   C2B 3598  12.748  10.159   9.602  0.1537 -0.0677  0.0478
  225loPI   C3B 3599  12.876  10.111   9.193 -0.0518  0.2699 -0.1164
  225loPI   C4B 3600  12.728  10.096   8.741 -0.3639  0.0839 -0.1136
  226loPI    C1 3601  17.701   2.485  10.376 -0.1791 -0.2879 -0.1590
  226loPI    C2 3602  17.304   2.505  10.327 -0.1738  0.0669 -0.0854
  226loPI    C3 3603  17.532   2.823  10.243  0.0827 -0.0925 -0.0041
  226loPI   PO4 3604  17.833   2.297  10.244  0.0236 -0.1621  0.1930
  226loPI   GL1 3605  17.969   2.109   9.857  0.1308  0.0735 -0.1229
  226loPI   GL2 3606  18.147   1.850   9.820  0.0725 -0.0567 -0.0287
  226loPI   C1A 3607  18.078   2.154   9.473  0.3179  0.0561 -0.0183
  226loPI   C2A 3608  18.190   2.217   8.944  0.2064  0.0342 -0.1174
  226loPI   C3A 3609  18.335   2.375   8.553  0.2284  0.0948 -0.0509
  226loPI   C4A 3610  18.385   2.378   8.071  0.1989 -0.0015 -0.2306
  226loPI   C5A 3611  18.356   2.460   7.592  0.0162  0.1002 -0.3519
  226loPI   C6A 3612  18.770   2.477   7.320 -0.2374  0.2790 -0.1276
  226loPI   C1B 3613  18.354   1.781   9.425  0.0845  0.1293  0.1015
  226loPI   C2B 3614  18.534   1.837   8.998  0.1116  0.0217 -0.0464
  226loPI   C3B 3615  18.674   1.837   8.552  0.1785 -0.3783  0.0080
  226loPI   C4B 3616  18.659   1.947   8.151  0.0286 -0.0080 -0.3191
  227loPI    C1 3617  14.746   9.189  11.164 -0.0663  0.0454  0.0337
  227loPI    C2 3618  14.958   9.525  11.115  0.1731 -0.1072  0.0122
  227loPI    C3 3619  14.684   9.502  11.405  0.0817  0.1421 -0.0522
  227loPI   PO4 3620  14.813   9.086  10.921  0.2244  0.2632  0.0319
  227loPI   GL1 3621  14.960   9.016  10.518 -0.2072  0.2278 -0.2487
  227loPI   GL2 3622  14.725   8.935  10.397  0.1528  0.4199 -0.0941
  227loPI   C1A 3623  14.974   9.384  10.121 -0.1827  0.3550 -0.2088
  227loPI   C2A 3624  14.962   9.371   9.601  0.1249  0.3723 -0.2652
  227loPI   C3A 3625  14.963   9.336   9.256  0.0419  0.2223  0.0422
  227loPI   C4A 3626  14.920   9.330   8.885 -0.0655 -0.0064 -0.3005
  227loPI   C5A 3627  14.994   9.355   8.472 -0.0565 -0.0822  0.3100
  227loPI   C6A 3628  14.821   9.622   8.308  0.4576 -0.2095 -0.1892
  227loPI   C1B 3629  14.764   8.941   9.977 -0.4158 -0.0534 -0.2037
  227loPI   C2B 3630  14.804   8.914   9.515 -0.2343 -0.1393  0.1603
  227loPI   C3B 3631  14.740   8.851   9.124 -0.0447  0.0250  0.2020
  227loPI   C4B 3632  14.728   8.914   8.669  0.1295  0.1134  0.1037
  228loPI    C1 3633   5.592  13.575  10.650  0.0492 -0.2967  0.1654
  228loPI    C2 3634   5.572  13.813  10.971  0.0357 -0.1912  0.0868
  228loPI    C3 3635   5.742  13.452  11.000  0.2777 -0.0746  0.1487
  228loPI   PO4 3636   5.519  13.789  10.446  0.1921  0.1407 -0.1761
  228loPI   GL1 3637   5.487  14.146  10.243  0.1038 -0.2527 -0.1655
  228loPI   GL2 3638   5.526  14.418  10.016 -0.0041 -0.2913 -0.0481
  228loPI   C1A 3639   5.430  13.990   9.720  0.0070 -0.4225  0.0611
  228loPI   C2A 3640   5.486  13.947   9.278  0.2704 -0.2225  0.0384
  228loPI   C3A 3641   5.578  13.766   8.927 -0.0198 -0.1225  0.0261
  228loPI   C4A 3642   5.538  13.791   8.572  0.1622 -0.3962  0.1364
  228loPI   C5A 3643   5.857  13.616   8.306 -0.0063  0.3252  0.0501
  228loPI   C6A 3644   6.053  13.530   7.950  0.1473 -0.0870 -0.0998
  228loPI   C1B 3645   5.802  14.374   9.627 -0.2005 -0.2065 -0.0381
  228loPI   C2B 3646   5.776  14.348   9.263 -0.3203 -0.0893 -0.1217
  228loPI   C3B 3647   5.780  14.232   8.876 -0.3367  0.1344  0.1683
  228loPI   C4B 3648   5.830  14.202   8.398 -0.0959 -0.0695  0.1588
  229loPI    C1 3649   6.764  11.684  11.204  0.2478 -0.1669  0.0079
  229loPI    C2 3650   6.487  11.609  11.483  0.0560 -0.1130 -0.1653
  229loPI    C3 3651   6.777  11.875  11.555 -0.2866  0.2805 -0.2012
  229loPI   PO4 3652   6.618  11.684  10.981  0.0526 -0.3882 -0.2102
  229loPI   GL1 3653   6.723  11.666  10.613  0.0349 -0.0098  0.0484
  229loPI   GL2 3654   7.077  11.685  10.522 -0.1848  0.0716 -0.4632
  229loPI   C1A 3655   6.677  11.672  10.187 -0.0656  0.1123  0.0745
  229loPI   C2A 3656   6.642  11.539   9.734 -0.1690 -0.0727 -0.2553
  229loPI   C3A 3657   6.652  11.585   9.305 -0.1726 -0.1695 -0.2274
  229loPI   C4A 3658   6.689  11.519   8.906 -0.2336 -0.0256 -0.2095
  229loPI   C5A 3659   6.734  11.643   8.407 -0.2583 -0.1221 -0.2127
  229loPI   C6A 3660   7.027  11.558   8.243 -0.0094  0.0584  0.1790
  229loPI   C1B 3661   7.143  11.646  10.013  0.2218 -0.0549  0.1153
  229loPI   C2B 3662   7.185  11.601   9.607 -0.3502 -0.1718 -0.1603
  229loPI   C3B 3663   7.149  11.650   9.179 -0.3375  0.2008 -0.2705
  229loPI   C4B 3664   7.162  11.584   8.754  0.2283 -0.2835  0.1906
  230loPI    C1 3665   9.750  12.952  11.381  0.1948  0.1887  0.0914
  230loPI    C2 3666   9.634  13.329  11.447 -0.1450  0.0709  0.1886
  230loPI    C3 3667   9.765  13.103  11.751 -0.2430  0.0121  0.1875
  230loPI   PO4 3668   9.505  13.003  11.083 -0.1619  0.1039 -0.1433
  230loPI   GL1 3669   9.561  12.996  10.675 -0.0142 -0.1685 -0.2358
  230loPI   GL2 3670   9.221  12.907  10.679  0.0982  0.1690  0.0087
  230loPI   C1A 3671   9.592  12.866  10.343  0.3221  0.1016  0.1463
  230loPI   C2A 3672   9.607  12.788   9.871 -0.1670 -0.0297 -0.0000
  230loPI   C3A 3673   9.568  12.796   9.427 -0.1102 -0.1226 -0.0152
  230loPI   C4A 3674   9.623  12.988   9.089  0.1201  0.1433  0.2298
  230loPI   C5A 3675   9.664  13.033   8.493 -0.0820  0.0855 -0.0254
  230loPI   C6A 3676   9.371  13.276   8.169 -0.1284  0.4245 -0.0205
  230loPI   C1B 3677   9.016  12.920  10.344 -0.3426  0.2677 -0.1090
  230loPI   C2B 3678   9.079  12.726   9.952 -0.0587  0.0556 -0.1891
  230loPI   C3B 3679   9.011  12.761   9.588  0.1158 -0.0739 -0.0113
  230loPI   C4B 3680   9.049  12.815   9.136  0.0910 -0.1301 -0.1815
  231loPI    C1 3681  10.939  11.090  11.423  0.0864 -0.0185 -0.0123
  231loPI    C2 3682  10.927  10.925  11.787  0.1791 -0.0977 -0.0448
  231loPI    C3 3683  11.158  11.245  11.720 -0.0624  0.0967  0.0382
  231loPI   PO4 3684  11.024  10.961  11.233 -0.0071 -0.2863 -0.0778
  231loPI   GL1 3685  11.045  11.076  10.853  0.4855 -0.2219 -0.1163
  231loPI   GL2 3686  10.932  11.239  10.664 -0.2845  0.0065 -0.0987
  231loPI   C1A 3687  11.165  10.789  10.500  0.1665  0.1330  0.1494
  231loPI   C2A 3688  11.142  10.798  10.020 -0.3425  0.0989 -0.1270
  231loPI   C3A 3689  11.063  10.853   9.584  0.0535  0.1184  0.0552
  231loPI   C4A 3690  11.246  10.871   9.237 -0.2788  0.1820 -0.1057
  231loPI   C5A 3691  11.164  10.850   8.860 -0.1748 -0.0111  0.0472
  231loPI   C6A 3692  11.189  11.046   8.465  0.1270  0.0508  0.0869
  231loPI   C1B 3693  10.973  11.247  10.231  0.3228  0.3935 -0.0655
  231loPI   C2B 3694  10.850  11.230   9.800 -0.1226 -0.1972 -0.2339
  231loPI   C3B 3695  10.852  11.236   9.371 -0.2376  0.2149 -0.4533
  231loPI   C4B 3696  10.859  11.196   8.978 -0.1922 -0.1465 -0.1878
  232loPI    C1 3697   7.714   0.500  10.870  0.0445  0.1457 -0.0526
  232loPI    C2 3698   8.014   0.672  11.072  0.3072 -0.0515 -0.2657
  232loPI    C3 3699   7.664   0.603  11.253  0.5383 -0.2328  0.1253
  232loPI   PO4 3700   7.787   0.598  10.590  0.0321 -0.2341  0.2410
  232loPI   GL1 3701   7.908   0.715  10.254 -0.0028 -0.1746 -0.0901
  232loPI   GL2 3702   8.071   0.538  10.078  0.0927 -0.0540  0.0820
  232loPI   C1A 3703   7.722   0.917   9.960 -0.0778 -0.3609  0.0941
  232loPI   C2A 3704   7.803   0.804   9.560  0.0243  0.0448  0.4285
  232loPI   C3A 3705   7.855   0.825   9.109 -0.1211  0.2820  0.0842
  232loPI   C4A 3706   7.845   0.794   8.691  0.2419 -0.0129  0.0713
  232loPI   C5A 3707   7.853   0.740   8.268  0.2800 -0.0485  0.2922
  232loPI   C6A 3708   7.904   0.945   7.858  0.2847 -0.1405 -0.2100
  232loPI   C1B 3709   8.149   0.385   9.634  0.0031 -0.2214 -0.3274
  232loPI   C2B 3710   8.077   0.413   9.234  0.1690  0.0843  0.0526
  232loPI   C3B 3711   8.168   0.468   8.837 -0.0709  0.0151  0.2878
  232loPI   C4B 3712   8.177   0.405   8.485  0.0329 -0.0063 -0.0167
  233loPI    C1 3713   9.332  11.028  11.298 -0.0865 -0.2756 -0.0011
  233loPI    C2 3714   9.683  11.136  11.458 -0.2424  0.1314  0.0780
  233loPI    C3 3715   9.486  10.819  11.602  0.1410 -0.1686 -0.0402
  233loPI   PO4 3716   9.518  11.052  11.020 -0.1396  0.2436  0.0350
  233loPI   GL1 3717   9.573  11.161  10.584 -0.0596  0.1897 -0.0764
  233loPI   GL2 3718   9.388  11.061  10.343  0.1024 -0.0214 -0.3831
  233loPI   C1A 3719   9.866  11.106  10.282 -0.2096  0.1479  0.1909
  233loPI   C2A 3720   9.801  11.117   9.916 -0.0725 -0.1347 -0.1019
  233loPI   C3A 3721   9.782  11.124   9.444  0.3149 -0.1184  0.0653
  233loPI   C4A 3722   9.833  11.175   8.999 -0.4051 -0.2436  0.2504
  233loPI   C5A 3723   9.841  11.117   8.593  0.0885 -0.1200  0.2936
  233loPI   C6A 3724   9.675  11.314   8.206 -0.0684 -0.0535 -0.0439
  233loPI   C1B 3725   9.286  11.126   9.980  0.1016 -0.3672  0.1236
  233loPI   C2B 3726   9.275  11.041   9.513 -0.2384  0.2616  0.0734
  233loPI   C3B 3727   9.289  11.028   8.998 -0.1604 -0.1958 -0.2450
  233loPI   C4B 3728   9.225  11.020   8.639  0.2660  0.0184 -0.2908
  234loPI    C1 3729   6.308   7.339  10.785  0.0475  0.0950  0.0810
  234loPI    C2 3730   6.227   7.050  11.049 -0.0652  0.0834  0.0346
  234loPI    C3 3731   6.040   7.403  11.075  0.1088  0.1705  0.1212
  234loPI   PO4 3732   6.501   7.384  10.732  0.4341  0.1982  0.0227
  234loPI   GL1 3733   6.592   7.592  10.422  0.2304  0.0432  0.0875
  234loPI   GL2 3734   6.257   7.553  10.288  0.0970  0.3854  0.4083
  234loPI   C1A 3735   6.785   7.609  10.070 -0.2233 -0.0695 -0.0242
  234loPI   C2A 3736   6.805   7.608   9.635 -0.0930 -0.0616 -0.0029
  234loPI   C3A 3737   6.751   7.485   9.141  0.1848  0.1426  0.0870
  234loPI   C4A 3738   6.888   7.464   8.689  0.3343  0.0907 -0.1470
  234loPI   C5A 3739   7.110   7.439   8.375 -0.1199  0.2303  0.1767
  234loPI   C6A 3740   7.384   7.511   7.955 -0.0262  0.2528 -0.2741
  234loPI   C1B 3741   6.310   7.544   9.801  0.0514  0.0876  0.0352
  234loPI   C2B 3742   6.329   7.538   9.356  0.1164 -0.0231 -0.0801
  234loPI   C3B 3743   6.337   7.509   8.896  0.1099  0.2550 -0.1053
  234loPI   C4B 3744   6.399   7.343   8.534  0.0876 -0.0037  0.0757
  235loPI    C1 3745   5.092   6.411  10.998 -0.2438  0.2452 -0.0996
  235loPI    C2 3746   4.803   6.169  10.865  0.2088 -0.2675 -0.1840
  235loPI    C3 3747   4.807   6.283  11.248 -0.2518 -0.0267 -0.2439
  235loPI   PO4 3748   5.134   6.482  10.648 -0.0842  0.1136 -0.3137
  235loPI   GL1 3749   5.362   6.600  10.381 -0.0790  0.2236  0.0375
  235loPI   GL2 3750   5.588   6.590  10.476  0.4073 -0.1624  0.2048
  235loPI   C1A 3751   5.425   6.552   9.912 -0.3468  0.1372  0.0249
  235loPI   C2A 3752   5.397   6.561   9.534  0.0213 -0.1801 -0.4432
  235loPI   C3A 3753   5.331   6.470   9.114 -0.2681  0.1627  0.2313
  235loPI   C4A 3754   5.378   6.340   8.582  0.2203  0.1625 -0.0551
  235loPI   C5A 3755   5.432   6.079   8.193 -0.0593 -0.0902 -0.2249
  235loPI   C6A 3756   5.416   5.830   7.805 -0.0122  0.2775 -0.2177
  235loPI   C1B 3757   5.873   6.622  10.141  0.4645 -0.0773 -0.0266
  235loPI   C2B 3758   5.929   6.622   9.740 -0.1204 -0.3005 -0.0678
  235loPI   C3B 3759   5.896   6.559   9.269 -0.2190  0.1157  0.0043
  235loPI   C4B 3760   5.877   6.431   8.886  0.2681  0.5383 -0.0623
  236loPI    C1 3761  15.840   3.578  10.191 -0.0173  0.1008  0.0362
  236loPI    C2 3762  16.236   3.632  10.209 -0.0022  0.1784 -0.4134
  236loPI    C3 3763  15.996   3.828  10.462  0.2490  0.0607 -0.0768
  236loPI   PO4 3764  15.804   3.306  10.143  0.1960  0.0628 -0.0916
  236loPI   GL1 3765  15.832   3.006   9.734 -0.3068  0.0315 -0.1354
  236loPI   GL2 3766  15.898   2.755   9.697  0.1932 -0.0937 -0.1050
  236loPI   C1A 3767  15.616   3.242   9.396 -0.3096  0.1220 -0.0881
  236loPI   C2A 3768  15.635   3.246   8.874  0.0802  0.1416 -0.3119
  236loPI   C3A 3769  15.578   3.185   8.445  0.1068 -0.0879 -0.0281
  236loPI   C4A 3770  15.602   3.359   8.057 -0.0783 -0.2656 -0.1715
  236loPI   C5A 3771  15.477   3.307   7.561 -0.1553 -0.2435  0.0246
  236loPI   C6A 3772  15.472   3.339   7.101  0.3506 -0.0255 -0.2722
  236loPI   C1B 3773  15.925   2.723   9.291  0.0134 -0.4001 -0.2107
  236loPI   C2B 3774  16.269   2.659   8.969 -0.2076  0.1662  0.0204
  236loPI   C3B 3775  16.701   2.599   8.986  0.1854 -0.1759  0.1008
  236loPI   C4B 3776  16.991   2.844   8.832 -0.2912  0.3601  0.1816
  237loPI    C1 3777   0.846   6.784  10.232  0.1231  0.2343  0.1251
  237loPI    C2 3778   1.179   6.978  10.125  0.2381 -0.0309 -0.0061
  237loPI    C3 3779   1.143   6.586  10.051  0.0627 -0.0900  0.3714
  237loPI   PO4 3780   0.643   6.984  10.204 -0.1383  0.0962 -0.1081
  237loPI   GL1 3781   0.726   7.302   9.961 -0.3976 -0.0508 -0.0216
  237loPI   GL2 3782   0.871   7.447  10.085  0.0167 -0.1990  0.0850
  237loPI   C1A 3783   0.582   7.250   9.557 -0.2116 -0.1550  0.0449
  237loPI   C2A 3784   0.746   7.342   9.146 -0.1301 -0.1869 -0.0980
  237loPI   C3A 3785   0.715   7.154   8.781 -0.0456 -0.0954 -0.1774
  237loPI   C4A 3786   0.705   7.069   8.322  0.0707  0.0941  0.0664
  237loPI   C5A 3787   0.518   7.221   7.907 -0.1058  0.1256 -0.1810
  237loPI   C6A 3788   0.555   7.489   7.514 -0.0142  0.3032 -0.1711
  237loPI   C1B 3789   1.111   7.394   9.640 -0.1456 -0.1662  0.2822
  237loPI   C2B 3790   1.275   7.385   9.279  0.0715 -0.1337  0.1442
  237loPI   C3B 3791   1.270   7.372   8.772  0.2444 -0.1508 -0.0111
  237loPI   C4B 3792   1.166   7.353   8.403  0.1519  0.1040  0.2584
  238loPI    C1 3793  13.644  15.157  11.050  0.0088  0.1106  0.1325
  238loPI    C2 3794  13.504  15.426  11.311 -0.1908  0.0720  0.0666
  238loPI    C3 3795  13.430  15.037  11.366 -0.1537  0.0557  0.0025
  238loPI   PO4 3796  13.535  15.214  10.801 -0.2413 -0.3534 -0.2759
  238loPI   GL1 3797  13.491  15.038  10.440 -0.1273 -0.2246  0.0598
  238loPI   GL2 3798  13.187  15.012  10.371  0.0151  0.3838 -0.4361
  238loPI   C1A 3799  13.672  15.061  10.010  0.1075 -0.3943  0.0965
  238loPI   C2A 3800  13.605  15.223   9.618 -0.1972 -0.1025 -0.0521
  238loPI   C3A 3801  13.650  15.072   9.148  0.1490  0.0514 -0.0418
  238loPI   C4A 3802  13.639  14.972   8.687 -0.0041 -0.1394 -0.2986
  238loPI   C5A 3803  13.633  14.692   8.310  0.1784 -0.3088  0.1769
  238loPI   C6A 3804  13.416  14.600   7.990 -0.1003 -0.3150  0.0140
  238loPI   C1B 3805  13.092  15.030   9.862 -0.1355 -0.1153 -0.3854
  238loPI   C2B 3806  13.138  15.056   9.418 -0.0271 -0.1014 -0.0515
  238loPI   C3B 3807  13.091  15.133   9.051 -0.1144  0.1320  0.1451
  238loPI   C4B 3808  13.140  15.063   8.684 -0.0175 -0.2007 -0.0938
  239loPI    C1 3809  13.562   0.506  11.069 -0.0783  0.0911 -0.0106
  239loPI    C2 3810  13.441   0.389  11.432 -0.0786  0.0110 -0.0364
  239loPI    C3 3811  13.400   0.771  11.321 -0.0447  0.0432  0.0615
  239loPI   PO4 3812  13.466   0.322  10.871 -0.0939 -0.0704  0.0839
  239loPI   GL1 3813  13.358   0.213  10.428  0.0839 -0.1487  0.1337
  239loPI   GL2 3814  13.054   0.072  10.289  0.1765 -0.2955 -0.3636
  239loPI   C1A 3815  13.501   0.098   9.977  0.2947  0.0626 -0.2234
  239loPI   C2A 3816  13.416   0.096   9.547  0.1771 -0.1016  0.0012
  239loPI   C3A 3817  13.450   0.048   9.163 -0.0023  0.1680 -0.0713
  239loPI   C4A 3818  13.461  -0.019   8.774  0.0315 -0.0092  0.0469
  239loPI   C5A 3819  13.662   0.003   8.374 -0.1430  0.1552 -0.3861
  239loPI   C6A 3820  13.765  -0.144   8.041  0.2922  0.1294 -0.2135
  239loPI   C1B 3821  12.986   0.108   9.850  0.0239 -0.3391 -0.0586
  239loPI   C2B 3822  12.938  -0.021   9.437  0.0166 -0.1555  0.2790
  239loPI   C3B 3823  12.942  -0.021   8.957  0.2463  0.1788 -0.0350
  239loPI   C4B 3824  12.920  -0.048   8.585  0.0916  0.0754 -0.2525
  240loPI    C1 3825   9.622  16.860  10.800  0.0653  0.2608  0.0152
  240loPI    C2 3826   9.352  16.925  11.088 -0.1803 -0.0758 -0.1321
  240loPI    C3 3827   9.730  17.046  11.137 -0.3379  0.3406  0.1057
  240loPI   PO4 3828   9.306  16.832  10.612  0.0116 -0.2164  0.2945
  240loPI   GL1 3829   9.205  16.825  10.198 -0.0974 -0.3435  0.2034
  240loPI   GL2 3830   9.358  16.987  10.065  0.0244  0.0880  0.0882
  240loPI   C1A 3831   9.138  16.574   9.828  0.0834  0.0268 -0.4414
  240loPI   C2A 3832   9.254  16.547   9.389 -0.1638 -0.1177 -0.1906
  240loPI   C3A 3833   9.295  16.427   8.974  0.0708  0.4132 -0.2667
  240loPI   C4A 3834   9.346  16.535   8.544 -0.0388 -0.0944 -0.2934
  240loPI   C5A 3835   9.265  16.692   8.119  0.2720 -0.1762 -0.3896
  240loPI   C6A 3836   9.535  16.888   7.821  0.1630  0.2164  0.0698
  240loPI   C1B 3837   9.396  16.934   9.692 -0.2261 -0.1602  0.1185
  240loPI   C2B 3838   9.446  16.943   9.280  0.1460 -0.0367 -0.2391
  240loPI   C3B 3839   9.453  16.890   8.946  0.2769  0.1057 -0.1407
  240loPI   C4B 3840   9.487  17.013   8.594 -0.0325 -0.1818 -0.1024
  241loPI    C1 3841   1.449  10.621  10.787  0.1285 -0.0042  0.1211
  241loPI    C2 3842   1.672  10.943  10.705 -0.0012  0.0342 -0.0869
  241loPI    C3 3843   1.711  10.758  11.057  0.1576  0.2072 -0.0119
  241loPI   PO4 3844   1.490  10.425  10.552 -0.0489 -0.2819 -0.1564
  241loPI   GL1 3845   1.376  10.182  10.376 -0.1205  0.2930  0.2430
  241loPI   GL2 3846   1.467   9.932  10.180 -0.2769 -0.2394 -0.0718
  241loPI   C1A 3847   1.154  10.367   9.994  0.0857  0.0655  0.1623
  241loPI   C2A 3848   1.164  10.421   9.572 -0.0072 -0.2863  0.2187
  241loPI   C3A 3849   1.153  10.376   9.166 -0.1781  0.0924  0.1337
  241loPI   C4A 3850   1.166  10.326   8.740  0.0390  0.3869 -0.1130
  241loPI   C5A 3851   1.062  10.419   8.298 -0.0511  0.1150  0.2560
  241loPI   C6A 3852   1.296  10.509   8.049  0.1082 -0.1895  0.0287
  241loPI   C1B 3853   1.508  10.056   9.733 -0.0160  0.1695 -0.1611
  241loPI   C2B 3854   1.534  10.037   9.314 -0.3623  0.1111  0.1298
  241loPI   C3B 3855   1.515   9.978   8.922  0.3573 -0.0857  0.4425
  241loPI   C4B 3856   1.475  10.135   8.348  0.0319 -0.1496  0.0391
  242loPI    C1 3857   6.302  10.837  11.259  0.0076 -0.0120  0.1446
  242loPI    C2 3858   6.077  10.513  11.326 -0.2695  0.1241 -0.1002
  242loPI    C3 3859   6.148  10.772  11.622 -0.1178 -0.1124  0.0745
  242loPI   PO4 3860   6.469  10.697  11.057  0.1428 -0.0157  0.0591
  242loPI   GL1 3861   6.517  10.607  10.674 -0.0208 -0.1852 -0.0164
  242loPI   GL2 3862   6.439  10.359  10.586 -0.1614 -0.1634  0.1251
  242loPI   C1A 3863   6.582  10.772  10.218 -0.1324 -0.3332 -0.0810
  242loPI   C2A 3864   6.690  10.812   9.781  0.0586 -0.0338  0.2707
  242loPI   C3A 3865   6.783  10.732   9.450  0.1127  0.1677 -0.0365
  242loPI   C4A 3866   6.666  10.646   8.999  0.1865 -0.2467 -0.2096
  242loPI   C5A 3867   6.707  10.679   8.620 -0.1346 -0.0341  0.1281
  242loPI   C6A 3868   7.097  10.719   8.301 -0.0394  0.0575  0.2637
  242loPI   C1B 3869   6.498  10.287  10.079 -0.1397  0.0650 -0.1885
  242loPI   C2B 3870   6.500  10.284   9.731 -0.3052  0.3259  0.0831
  242loPI   C3B 3871   6.545  10.190   9.266  0.0689 -0.1686  0.0219
  242loPI   C4B 3872   6.508  10.199   8.816  0.1626 -0.2506  0.0952
  243loPI    C1 3873  16.534  13.881  10.713  0.0616 -0.0424 -0.0554
  243loPI    C2 3874  16.911  13.750  10.738  0.0663  0.0049  0.1311
  243loPI    C3 3875  16.608  13.506  10.832  0.0664  0.0636  0.2861
  243loPI   PO4 3876  16.505  13.952  10.382  0.3162  0.0784  0.2169
  243loPI   GL1 3877  16.598  13.910   9.945  0.2138  0.1289 -0.2592
  243loPI   GL2 3878  16.446  13.585   9.846 -0.1058 -0.0917 -0.1900
  243loPI   C1A 3879  16.716  13.888   9.556  0.2217 -0.1477  0.0773
  243loPI   C2A 3880  16.817  13.796   9.104  0.2658 -0.0090  0.1992
  243loPI   C3A 3881  16.998  13.902   8.734  0.1456  0.0454 -0.1352
  243loPI   C4A 3882  17.060  13.963   8.358 -0.1407  0.2717  0.0751
  243loPI   C5A 3883  17.322  13.885   8.014  0.2700  0.0570  0.0242
  243loPI   C6A 3884  17.523  13.518   8.045  0.3334  0.0974 -0.1648
  243loPI   C1B 3885  16.441  13.498   9.450 -0.1030 -0.1520  0.2290
  243loPI   C2B 3886  16.599  13.287   9.040 -0.0499  0.1751  0.1856
  243loPI   C3B 3887  16.638  13.219   8.646  0.0431 -0.0296 -0.1054
  243loPI   C4B 3888  16.610  13.492   8.345  0.0142  0.1735  0.2919
  244loPI    C1 3889  16.653   4.517  10.620  0.1118  0.2954 -0.0841
  244loPI    C2 3890  17.048   4.501  10.685  0.1366 -0.0506 -0.2959
  244loPI    C3 3891  16.833   4.164  10.672 -0.2164  0.1496  0.0928
  244loPI   PO4 3892  16.674   4.702  10.334 -0.3326  0.0851 -0.3722
  244loPI   GL1 3893  16.400   4.861  10.016  0.1642 -0.0368 -0.1039
  244loPI   GL2 3894  16.435   4.561   9.910 -0.1212  0.2068 -0.0369
  244loPI   C1A 3895  16.517   5.107   9.660 -0.1400 -0.1627 -0.3208
  244loPI   C2A 3896  16.591   5.342   9.271 -0.3002  0.0172 -0.1327
  244loPI   C3A 3897  16.650   5.481   8.920  0.1171  0.3323 -0.1134
  244loPI   C4A 3898  16.689   5.565   8.481  0.2453 -0.1293 -0.0505
  244loPI   C5A 3899  16.789   5.457   8.080 -0.2139 -0.2487  0.0886
  244loPI   C6A 3900  16.956   5.392   7.693  0.0746 -0.2820 -0.1609
  244loPI   C1B 3901  16.385   4.620   9.528 -0.1575 -0.0137 -0.1683
  244loPI   C2B 3902  16.392   4.878   9.244 -0.2649  0.1149  0.0415
  244loPI   C3B 3903  16.404   5.082   8.743 -0.1074 -0.1777 -0.0405
  244loPI   C4B 3904  16.586   5.029   8.275  0.0082 -0.1619  0.1680
  245loPI    C1 3905  10.831   3.390  10.947 -0.1189  0.0928 -0.2410
  245loPI    C2 3906  10.754   3.005  10.869  0.1319 -0.0229  0.0609
  245loPI    C3 3907  10.719   3.145  11.242 -0.1366  0.2945 -0.0782
  245loPI   PO4 3908  10.682   3.505  10.710  0.0186 -0.0180 -0.0913
  245loPI   GL1 3909  10.578   3.906  10.502  0.1490  0.3318 -0.2281
  245loPI   GL2 3910  10.370   4.050  10.343  0.0309  0.1222  0.0349
  245loPI   C1A 3911  10.773   3.965  10.084  0.1040 -0.3417 -0.0609
  245loPI   C2A 3912  10.661   3.926   9.653 -0.2135  0.1953 -0.1727
  245loPI   C3A 3913  10.708   3.806   9.304  0.0989 -0.1194  0.0496
  245loPI   C4A 3914  10.775   3.804   8.808 -0.0684  0.2313 -0.0964
  245loPI   C5A 3915  10.677   3.901   8.467 -0.1962 -0.0747  0.0750
  245loPI   C6A 3916  10.399   3.889   8.156 -0.1751  0.0450 -0.4472
  245loPI   C1B 3917  10.252   3.961   9.959 -0.0364 -0.2722  0.0493
  245loPI   C2B 3918  10.196   3.857   9.482  0.1035 -0.2547  0.1748
  245loPI   C3B 3919  10.238   3.859   9.115  0.4104 -0.0657  0.0800
  245loPI   C4B 3920  10.244   3.762   8.741 -0.0525 -0.1057 -0.0357
  246loPI    C1 3921   9.989   9.859  11.064 -0.0911 -0.1493  0.0043
  246loPI    C2 3922   9.876   9.754  11.433  0.1148 -0.1821  0.0587
  246loPI    C3 3923  10.160  10.031  11.382  0.0210 -0.1102 -0.0767
  246loPI   PO4 3924   9.643   9.772  10.922 -0.0990  0.1034  0.0096
  246loPI   GL1 3925   9.507   9.850  10.494  0.0550  0.1331  0.2401
  246loPI   GL2 3926   9.595  10.176  10.448  0.0132 -0.0253 -0.0276
  246loPI   C1A 3927   9.596   9.641  10.118 -0.1741 -0.2706 -0.1821
  246loPI   C2A 3928   9.608   9.650   9.606  0.0777 -0.1473 -0.1528
  246loPI   C3A 3929   9.591   9.579   9.169  0.1684  0.1181  0.0786
  246loPI   C4A 3930   9.673   9.724   8.833 -0.1082 -0.1445  0.1863
  246loPI   C5A 3931   9.724   9.884   8.402  0.3686 -0.3136 -0.0928
  246loPI   C6A 3932  10.117  10.156   8.286 -0.1638  0.0876  0.1737
  246loPI   C1B 3933   9.783  10.144   9.984 -0.3095 -0.1649 -0.0544
  246loPI   C2B 3934   9.827  10.274   9.522  0.0899 -0.1443 -0.1878
  246loPI   C3B 3935   9.864  10.305   9.149 -0.1306  0.0692  0.0631
  246loPI   C4B 3936   9.868  10.240   8.756 -0.1701  0.1525 -0.2596
  247loPI    C1 3937  10.746   4.387  10.764 -0.0907  0.1517  0.0947
  247loPI    C2 3938  10.421   4.368  10.996 -0.0204 -0.2657  0.1674
  247loPI    C3 3939  10.775   4.464  11.155 -0.0708  0.0036  0.1229
  247loPI   PO4 3940  10.693   4.498  10.609  0.0833  0.2688 -0.1252
  247loPI   GL1 3941  10.725   4.854  10.386 -0.1930 -0.0981 -0.2527
  247loPI   GL2 3942  10.429   5.012  10.327 -0.0036 -0.1237 -0.0114
  247loPI   C1A 3943  11.001   4.897  10.077 -0.1888 -0.2079 -0.2630
  247loPI   C2A 3944  11.106   4.919   9.649 -0.2785  0.1745 -0.1916
  247loPI   C3A 3945  11.130   4.846   9.310 -0.0605  0.0500 -0.1855
  247loPI   C4A 3946  11.006   4.730   8.901 -0.0412  0.1285 -0.0686
  247loPI   C5A 3947  11.048   4.787   8.483 -0.1138 -0.1731 -0.2286
  247loPI   C6A 3948  10.813   4.683   8.142 -0.1807 -0.1401 -0.0819
  247loPI   C1B 3949  10.508   4.942   9.906  0.1704 -0.0267 -0.0695
  247loPI   C2B 3950  10.615   4.810   9.575 -0.0176  0.5156 -0.0051
  247loPI   C3B 3951  10.609   4.759   9.193 -0.2312 -0.0159  0.0064
  247loPI   C4B 3952  10.529   4.756   8.745  0.0365  0.2527 -0.0826
  248loPI    C1 3953   3.361   3.954  11.013 -0.1467 -0.1512  0.0746
  248loPI    C2 3954   3.415   3.610  10.817  0.0137  0.0003 -0.1528
  248loPI    C3 3955   3.584   3.665  11.175 -0.0037 -0.1526 -0.1205
  248loPI   PO4 3956   3.384   4.135  10.786  0.0672 -0.1317  0.2172
  248loPI   GL1 3957   3.611   4.203  10.464  0.0773 -0.4534  0.1151
  248loPI   GL2 3958   3.244   4.344  10.238 -0.1525  0.0947 -0.1474
  248loPI   C1A 3959   3.600   3.956  10.013  0.0686  0.3783 -0.2015
  248loPI   C2A 3960   3.752   3.987   9.600  0.2719  0.2172 -0.2966
  248loPI   C3A 3961   3.816   4.158   9.177 -0.1614 -0.0640 -0.2877
  248loPI   C4A 3962   3.769   4.068   8.772 -0.0797 -0.0349 -0.1801
  248loPI   C5A 3963   3.915   4.012   8.384 -0.1571 -0.1835  0.3811
  248loPI   C6A 3964   3.763   3.767   8.083  0.0249  0.0748 -0.2398
  248loPI   C1B 3965   3.384   4.397   9.829  0.0363  0.0513  0.2568
  248loPI   C2B 3966   3.488   4.483   9.359  0.0715 -0.1744  0.0049
  248loPI   C3B 3967   3.432   4.483   8.841  0.0636  0.3695 -0.1631
  248loPI   C4B 3968   3.488   4.469   8.274  0.0381  0.2340 -0.0379
  249loPI    C1 3969   5.883  14.122  10.636 -0.0772 -0.1989  0.0454
  249loPI    C2 3970   6.068  13.954  10.949  0.1922  0.0469  0.0222
  249loPI    C3 3971   5.792  14.238  11.008 -0.0493 -0.1895  0.0492
  249loPI   PO4 3972   6.133  14.165  10.439  0.1019  0.0792 -0.1071
  249loPI   GL1 3973   5.971  14.105  10.035  0.0285  0.3322  0.1481
  249loPI   GL2 3974   5.946  13.790  10.181 -0.1016  0.0322  0.1545
  249loPI   C1A 3975   5.997  13.925   9.594  0.3604 -0.0505 -0.0265
  249loPI   C2A 3976   6.053  13.871   9.151  0.1384  0.3213 -0.0324
  249loPI   C3A 3977   6.055  13.760   8.739  0.0562  0.2388 -0.3201
  249loPI   C4A 3978   6.323  13.682   8.360 -0.2029 -0.0229  0.2850
  249loPI   C5A 3979   6.523  13.416   8.053 -0.2678  0.2062 -0.0217
  249loPI   C6A 3980   6.693  12.993   7.984  0.2267 -0.1706  0.4126
  249loPI   C1B 3981   5.715  13.612   9.805  0.0450  0.4175 -0.0309
  249loPI   C2B 3982   5.714  13.517   9.398 -0.1405  0.1749  0.4203
  249loPI   C3B 3983   5.774  13.323   9.196 -0.1404 -0.1413  0.0538
  249loPI   C4B 3984   5.867  13.274   8.872  0.0795 -0.0271  0.1619
  250loPI    C1 3985   9.305   3.608  10.896  0.0478 -0.2653 -0.0029
  250loPI    C2 3986   9.070   3.363  11.107  0.1235 -0.1893  0.1718
  250loPI    C3 3987   9.456   3.404  11.204  0.0546  0.1873  0.3040
  250loPI   PO4 3988   9.262   3.601  10.617 -0.3595  0.2015  0.0164
  250loPI   GL1 3989   9.235   3.266  10.312 -0.2230 -0.2969 -0.0795
  250loPI   GL2 3990   9.153   2.973  10.443 -0.0405  0.0381  0.1828
  250loPI   C1A 3991   9.192   3.233  10.005  0.0879 -0.2341  0.1542
  250loPI   C2A 3992   9.245   3.309   9.580 -0.2103 -0.2936 -0.0055
  250loPI   C3A 3993   9.487   3.358   9.194  0.1185  0.3434  0.2257
  250loPI   C4A 3994   9.398   3.273   8.835  0.3335 -0.0138  0.1158
  250loPI   C5A 3995   9.284   3.203   8.435  0.0147 -0.1015  0.4737
  250loPI   C6A 3996   9.027   3.059   8.135 -0.0031  0.4192  0.1449
  250loPI   C1B 3997   9.083   2.729  10.082  0.0757  0.1618 -0.1343
  250loPI   C2B 3998   9.015   2.790   9.731 -0.0954 -0.2873  0.2241
  250loPI   C3B 3999   9.194   2.821   9.336 -0.1063  0.0761 -0.2571
  250loPI   C4B 4000   9.208   2.810   8.886  0.3564  0.1661 -0.0244
  251loPI    C1 4001   5.194  12.847  10.954  0.0687  0.2553  0.1919
  251loPI    C2 4002   5.392  12.665  11.251  0.0915 -0.1382 -0.0572
  251loPI    C3 4003   5.099  12.924  11.335  0.1871 -0.1436  0.3071
  251loPI   PO4 4004   5.276  12.698  10.712  0.0234 -0.0298  0.0043
  251loPI   GL1 4005   5.285  12.737  10.334 -0.1363  0.1721 -0.2996
  251loPI   GL2 4006   5.112  12.912  10.140 -0.1214  0.2131  0.1356
  251loPI   C1A 4007   5.433  12.588   9.919 -0.1514  0.1439  0.2231
  251loPI   C2A 4008   5.413  12.435   9.413  0.1359  0.1664 -0.1700
  251loPI   C3A 4009   5.348  12.421   8.971 -0.0010  0.3883  0.1930
  251loPI   C4A 4010   5.452  12.333   8.494  0.0893 -0.1091 -0.1071
  251loPI   C5A 4011   5.602  12.729   8.194  0.2412  0.1022  0.2718
  251loPI   C6A 4012   5.662  12.849   7.706 -0.1689  0.1468  0.0116
  251loPI   C1B 4013   5.024  12.928   9.717 -0.2332  0.1328 -0.1078
  251loPI   C2B 4014   4.956  13.011   9.389 -0.2975 -0.3584  0.0603
  251loPI   C3B 4015   5.184  12.901   9.069 -0.0808 -0.1164  0.0385
  251loPI   C4B 4016   5.154  12.741   8.632  0.0632  0.1729 -0.0008
  252loPI    C1 4017   7.274   6.764  11.091  0.0452  0.0259  0.0900
  252loPI    C2 4018   7.485   6.441  10.989 -0.0415  0.0346 -0.1219
  252loPI    C3 4019   7.245   6.430  11.308  0.1304 -0.0361  0.0064
  252loPI   PO4 4020   7.088   6.802  10.873 -0.1140 -0.1189  0.2310
  252loPI   GL1 4021   7.208   6.607  10.547 -0.0118  0.2041 -0.2777
  252loPI   GL2 4022   7.491   6.445  10.524  0.1085  0.2383  0.0782
  252loPI   C1A 4023   7.351   6.840  10.218 -0.1541 -0.2208 -0.0913
  252loPI   C2A 4024   7.405   6.689   9.802  0.0469  0.1009  0.1910
  252loPI   C3A 4025   7.444   6.671   9.342  0.1609  0.1045 -0.3578
  252loPI   C4A 4026   7.548   6.662   8.914 -0.0658  0.0431  0.2483
  252loPI   C5A 4027   7.385   6.742   8.410 -0.1271  0.0545 -0.2121
  252loPI   C6A 4028   7.209   6.911   7.986 -0.3091 -0.0144  0.1523
  252loPI   C1B 4029   7.536   6.405  10.163  0.3704  0.1718 -0.0127
  252loPI   C2B 4030   7.739   6.307   9.775 -0.0029  0.0281 -0.3815
  252loPI   C3B 4031   7.789   6.214   9.306  0.0866  0.1398  0.1097
  252loPI   C4B 4032   7.754   6.183   8.919  0.2999  0.0752 -0.0410
  253loPI    C1 4033  15.423   1.256  10.788  0.0110 -0.3774  0.3041
  253loPI    C2 4034  15.671   1.571  10.788  0.0699 -0.4225  0.1196
  253loPI    C3 4035  15.788   1.224  10.949  0.1492 -0.4599 -0.0170
  253loPI   PO4 4036  15.336   1.214  10.568 -0.1822  0.0019  0.0711
  253loPI   GL1 4037  15.090   1.363  10.252  0.1282 -0.1106 -0.2612
  253loPI   GL2 4038  14.685   1.382  10.168 -0.2617 -0.0917 -0.1671
  253loPI   C1A 4039  14.961   1.293   9.756 -0.2745 -0.4178 -0.1639
  253loPI   C2A 4040  14.936   1.287   9.364  0.2686  0.1729 -0.1053
  253loPI   C3A 4041  14.872   1.220   8.894 -0.0166  0.1337  0.0878
  253loPI   C4A 4042  14.744   1.116   8.506 -0.1318  0.0532 -0.3884
  253loPI   C5A 4043  14.873   1.270   8.104 -0.1868  0.2927  0.0979
  253loPI   C6A 4044  15.328   1.439   7.865  0.0865  0.0882  0.0646
  253loPI   C1B 4045  14.474   1.284   9.680 -0.1900  0.0194  0.4298
  253loPI   C2B 4046  14.329   1.136   9.266 -0.2012 -0.3507 -0.3083
  253loPI   C3B 4047  14.318   1.137   8.793  0.0114 -0.2333  0.2097
  253loPI   C4B 4048  14.255   1.070   8.357  0.0613  0.0183 -0.2152
  254loPI    C1 4049  16.532  14.833  10.335  0.0441 -0.2034 -0.1497
  254loPI    C2 4050  16.523  14.441  10.254 -0.2141 -0.2422  0.0533
  254loPI    C3 4051  16.263  14.598  10.514  0.0350  0.0267  0.1468
  254loPI   PO4 4052  16.482  14.987  10.171 -0.0302  0.0096  0.0467
  254loPI   GL1 4053  16.218  14.951   9.892  0.2067  0.2256 -0.1790
  254loPI   GL2 4054  16.350  14.581   9.809  0.0768  0.0467  0.1772
  254loPI   C1A 4055  16.018  14.886   9.535  0.0082  0.5828 -0.1452
  254loPI   C2A 4056  16.075  14.832   9.066 -0.1760 -0.0310 -0.1534
  254loPI   C3A 4057  16.001  14.767   8.613  0.1921  0.0586  0.0668
  254loPI   C4A 4058  16.075  14.977   8.191  0.2650 -0.0389  0.3731
  254loPI   C5A 4059  16.393  15.100   7.972  0.3008  0.1184  0.5468
  254loPI   C6A 4060  16.657  14.926   7.651 -0.3806  0.1168  0.0976
  254loPI   C1B 4061  16.299  14.424   9.366 -0.1905 -0.2101  0.1136
  254loPI   C2B 4062  16.260  14.348   8.890 -0.1095  0.2788 -0.2079
  254loPI   C3B 4063  16.229  14.337   8.505 -0.1214  0.0378 -0.0897
  254loPI   C4B 4064  16.254  14.335   8.021 -0.3883 -0.2547 -0.1190
  255loPI    C1 4065   5.918  12.070  10.994  0.1551 -0.1142 -0.1836
  255loPI    C2 4066   5.721  11.781  11.189 -0.2107  0.3556  0.1665
  255loPI    C3 4067   6.117  11.756  11.141 -0.2490 -0.2498  0.0920
  255loPI   PO4 4068   5.835  12.085  10.747  0.2311  0.2539  0.0127
  255loPI   GL1 4069   5.977  12.058  10.451 -0.1501 -0.1431 -0.3500
  255loPI   GL2 4070   6.314  12.065  10.377  0.1421  0.0762 -0.0400
  255loPI   C1A 4071   5.849  12.018  10.048 -0.2848  0.2118 -0.0334
  255loPI   C2A 4072   5.741  11.999   9.576  0.1297  0.0024  0.0157
  255loPI   C3A 4073   5.691  12.003   9.137  0.0276  0.1331  0.1935
  255loPI   C4A 4074   5.895  11.929   8.751 -0.1840 -0.2723 -0.1238
  255loPI   C5A 4075   6.223  11.637   8.494  0.0224  0.1511  0.1714
  255loPI   C6A 4076   6.380  11.375   8.180 -0.2702 -0.0800  0.0793
  255loPI   C1B 4077   6.374  12.020   9.924 -0.1093  0.1359  0.0816
  255loPI   C2B 4078   6.319  11.939   9.520  0.2505 -0.0027 -0.1281
  255loPI   C3B 4079   6.379  11.940   9.057  0.1792 -0.2411 -0.1245
  255loPI   C4B 4080   6.375  12.093   8.603 -0.0870  0.2701  0.1215
  256loPI    C1 4081  12.555   9.103  10.853 -0.1054 -0.0298 -0.1957
  256loPI    C2 4082  12.218   8.955  11.009  0.0169 -0.1669 -0.0589
  256loPI    C3 4083  12.524   9.051  11.248  0.0280  0.0814 -0.1698
  256loPI   PO4 4084  12.536   9.154  10.660  0.1254 -0.1081  0.0210
  256loPI   GL1 4085  12.224   9.107  10.386  0.1853 -0.0539 -0.1486
  256loPI   GL2 4086  11.856   9.067  10.378  0.0284 -0.2527  0.1055
  256loPI   C1A 4087  12.398   9.186   9.919 -0.0300  0.1856 -0.1448
  256loPI   C2A 4088  12.409   9.065   9.495 -0.0717 -0.0754  0.0226
  256loPI   C3A 4089  12.350   9.101   9.033 -0.1244  0.1931 -0.0151
  256loPI   C4A 4090  12.275   9.086   8.520  0.4327  0.5387  0.3126
  256loPI   C5A 4091  12.277   9.369   8.122  0.0802 -0.2108  0.1154
  256loPI   C6A 4092  12.468   9.773   8.080 -0.1550 -0.4246  0.2958
  256loPI   C1B 4093  11.858   9.130  10.070  0.1771  0.0515  0.0388
  256loPI   C2B 4094  11.971   9.129   9.651  0.2687 -0.0211  0.0909
  256loPI   C3B 4095  11.861   9.085   9.282 -0.3658 -0.2090 -0.0724
  256loPI   C4B 4096  11.754   9.057   8.780  0.1225  0.2506 -0.2337
  257loPI    C1 4097  13.472  11.556  10.995 -0.0481 -0.0590 -0.0890
  257loPI    C2 4098  13.446  11.180  11.129 -0.1338 -0.0332 -0.0316
  257loPI    C3 4099  13.599  11.465  11.363 -0.3213  0.0199  0.0281
  257loPI   PO4 4100  13.471  11.521  10.733  0.0649 -0.0593 -0.3047
  257loPI   GL1 4101  13.291  11.582  10.379 -0.0591  0.1231 -0.2793
  257loPI   GL2 4102  13.001  11.521  10.276  0.1157  0.1191 -0.1508
  257loPI   C1A 4103  13.420  11.576   9.898  0.0436 -0.1116 -0.1330
  257loPI   C2A 4104  13.369  11.517   9.514 -0.2644 -0.1131 -0.0425
  257loPI   C3A 4105  13.376  11.348   9.140  0.1502 -0.1352  0.2637
  257loPI   C4A 4106  13.523  11.528   8.694 -0.1997 -0.1155  0.1637
  257loPI   C5A 4107  13.533  11.491   8.325 -0.3580  0.2296 -0.3496
  257loPI   C6A 4108  13.212  11.446   8.100  0.1272  0.1450 -0.0648
  257loPI   C1B 4109  12.938  11.464   9.814  0.0698 -0.2853 -0.0076
  257loPI   C2B 4110  12.881  11.372   9.390 -0.0531 -0.2126  0.2237
  257loPI   C3B 4111  12.834  11.419   8.968 -0.2454  0.0977 -0.2343
  257loPI   C4B 4112  13.023  11.479   8.563  0.2577 -0.0038  0.1863
  258loPI    C1 4113   2.645  15.744  10.355 -0.0201  0.0950 -0.1255
  258loPI    C2 4114   2.492  15.584  10.688  0.0415  0.2500 -0.0216
  258loPI    C3 4115   2.581  15.974  10.676  0.2568  0.1987 -0.1421
  258loPI   PO4 4116   2.445  15.611  10.122  0.0537 -0.1640 -0.0944
  258loPI   GL1 4117   2.555  15.714   9.691  0.2328  0.0807  0.2276
  258loPI   GL2 4118   2.844  15.781   9.790 -0.0347  0.1404  0.4779
  258loPI   C1A 4119   2.244  15.562   9.406 -0.0768  0.0059  0.3127
  258loPI   C2A 4120   2.265  15.618   8.976 -0.2442 -0.1739 -0.0004
  258loPI   C3A 4121   2.369  15.676   8.642 -0.0318 -0.2353 -0.1341
  258loPI   C4A 4122   2.522  15.779   8.221 -0.0200 -0.0497 -0.2003
  258loPI   C5A 4123   2.704  15.978   7.814 -0.0048  0.0665  0.0801
  258loPI   C6A 4124   2.979  15.900   7.448  0.3085  0.0298  0.4471
  258loPI   C1B 4125   2.776  15.735   9.304 -0.2323 -0.2547 -0.2759
  258loPI   C2B 4126   2.882  15.643   8.924 -0.4169  0.0923 -0.1748
  258loPI   C3B 4127   2.984  15.760   8.464  0.2123  0.2006 -0.0359
  258loPI   C4B 4128   3.256  15.875   8.092  0.2067 -0.1995 -0.0844
  259loPI    C1 4129   4.321  11.949  10.911  0.0533  0.0194  0.0287
  259loPI    C2 4130   4.306  11.656  11.183 -0.0510  0.0787  0.0877
  259loPI    C3 4131   4.529  11.982  11.251  0.0028  0.0487  0.0568
  259loPI   PO4 4132   4.348  11.829  10.697 -0.3057 -0.0694 -0.0641
  259loPI   GL1 4133   4.565  11.702  10.327 -0.0075 -0.0914  0.0361
  259loPI   GL2 4134   4.716  11.895  10.090  0.0423 -0.1693  0.1114
  259loPI   C1A 4135   4.535  11.465   9.902 -0.2199  0.1910  0.3179
  259loPI   C2A 4136   4.453  11.359   9.389  0.1998 -0.2341 -0.1179
  259loPI   C3A 4137   4.591  11.317   8.911 -0.1998 -0.1337 -0.2276
  259loPI   C4A 4138   4.585  11.355   8.523 -0.0894 -0.1512  0.1187
  259loPI   C5A 4139   4.389  11.474   8.216  0.3498  0.1522  0.3281
  259loPI   C6A 4140   4.140  11.726   7.971  0.0046  0.0404  0.0828
  259loPI   C1B 4141   4.667  11.910   9.672  0.2527  0.1048  0.1566
  259loPI   C2B 4142   4.602  11.790   9.252  0.0510 -0.1046  0.0616
  259loPI   C3B 4143   4.754  11.778   8.918 -0.1706 -0.1932  0.0323
  259loPI   C4B 4144   4.786  11.859   8.494 -0.1649  0.2135 -0.3768
  260loPI    C1 4145   3.623   8.530  10.624  0.0420 -0.2299  0.1137
  260loPI    C2 4146   3.770   8.856  10.445  0.0169 -0.2305  0.0920
  260loPI    C3 4147   3.906   8.746  10.805 -0.1038 -0.0933  0.1806
  260loPI   PO4 4148   3.648   8.355  10.431 -0.2176 -0.0520  0.0709
  260loPI   GL1 4149   3.795   8.424  10.032 -0.1086  0.0325  0.0220
  260loPI   GL2 4150   3.782   8.743   9.927  0.0227  0.1277  0.2044
  260loPI   C1A 4151   4.101   8.259   9.763  0.0118  0.1698  0.0177
  260loPI   C2A 4152   4.141   8.170   9.364 -0.0455 -0.1835  0.1751
  260loPI   C3A 4153   4.151   8.111   8.938  0.1126  0.0634 -0.0872
  260loPI   C4A 4154   4.082   8.118   8.552 -0.0031  0.1564  0.1334
  260loPI   C5A 4155   4.226   8.235   8.178  0.1961 -0.2329  0.1262
  260loPI   C6A 4156   4.123   8.610   7.922  0.1187 -0.3112 -0.2006
  260loPI   C1B 4157   3.822   8.640   9.538  0.0033 -0.0659  0.0096
  260loPI   C2B 4158   3.810   8.521   9.082  0.1100  0.0619 -0.1455
  260loPI   C3B 4159   3.732   8.462   8.675 -0.1320 -0.1899 -0.1323
  260loPI   C4B 4160   3.808   8.486   8.266  0.2100  0.0808 -0.0637
  261loPI    C1 4161  17.054   1.262  10.542  0.0462 -0.0326 -0.0373
  261loPI    C2 4162  16.710   1.238  10.746  0.0410 -0.2679 -0.0714
  261loPI    C3 4163  17.058   1.264  10.942 -0.0029  0.1079 -0.0370
  261loPI   PO4 4164  16.923   1.310  10.263 -0.2961  0.1860 -0.1738
  261loPI   GL1 4165  16.886   1.433   9.933 -0.0055 -0.1911  0.1309
  261loPI   GL2 4166  17.122   1.146   9.753 -0.1353 -0.0221 -0.0659
  261loPI   C1A 4167  16.495   1.364   9.689 -0.1414  0.3111 -0.1358
  261loPI   C2A 4168  16.386   1.419   9.248 -0.0961  0.0729  0.0830
  261loPI   C3A 4169  16.287   1.462   8.877 -0.1267 -0.1413  0.4424
  261loPI   C4A 4170  16.282   1.498   8.415  0.0169 -0.1677 -0.1588
  261loPI   C5A 4171  16.492   1.399   8.075  0.0479 -0.4010  0.1489
  261loPI   C6A 4172  16.636   1.496   7.670 -0.0708  0.3798  0.2048
  261loPI   C1B 4173  17.047   1.295   9.321 -0.0209 -0.0939  0.1233
  261loPI   C2B 4174  17.255   1.017   9.064 -0.0140 -0.3811  0.1514
  261loPI   C3B 4175  17.497   0.913   8.758  0.0325 -0.3234 -0.1256
  261loPI   C4B 4176  17.744   0.913   8.299 -0.1377  0.1204 -0.4633
  262loPI    C1 4177  10.272  17.518  11.115  0.1612  0.1541  0.0457
  262loPI    C2 4178   9.898  17.496  11.255  0.0689  0.0975 -0.2034
  262loPI    C3 4179  10.135  17.800  11.364  0.0470 -0.0166  0.1781
  262loPI   PO4 4180  10.218  17.565  10.841  0.1344  0.1701 -0.1200
  262loPI   GL1 4181  10.093  17.627  10.441  0.0724 -0.2838  0.1077
  262loPI   GL2 4182  10.040  17.881  10.455 -0.2723 -0.1109  0.4090
  262loPI   C1A 4183  10.156  17.543  10.039 -0.0730  0.1386 -0.0888
  262loPI   C2A 4184  10.149  17.429   9.591  0.0492  0.1712 -0.2743
  262loPI   C3A 4185  10.176  17.448   9.127 -0.0077  0.0745 -0.1164
  262loPI   C4A 4186  10.200  17.497   8.686 -0.0780  0.2788 -0.0354
  262loPI   C5A 4187   9.916  17.638   8.349  0.3923  0.2070  0.2163
  262loPI   C6A 4188   9.734  17.988   8.299  0.2965  0.0762  0.0102
  262loPI   C1B 4189   9.807  17.924  10.148 -0.4317  0.0476 -0.3592
  262loPI   C2B 4190   9.833  17.821   9.703 -0.3083 -0.1469 -0.1156
  262loPI   C3B 4191   9.856  17.844   9.243  0.1460 -0.0268 -0.1642
  262loPI   C4B 4192   9.823  17.932   8.829  0.1111 -0.1378  0.1238
  263loPI    C1 4193   6.584   3.193  11.080  0.1241  0.0873  0.2522
  263loPI    C2 4194   6.566   2.794  11.102 -0.2017  0.0845  0.0048
  263loPI    C3 4195   6.603   3.011  11.436  0.1302 -0.1559  0.1294
  263loPI   PO4 4196   6.788   3.253  10.907  0.0584  0.1918  0.3360
  263loPI   GL1 4197   6.868   3.104  10.444 -0.2632  0.1642 -0.0015
  263loPI   GL2 4198   7.133   3.033  10.438 -0.4738  0.1037  0.2923
  263loPI   C1A 4199   6.753   3.028  10.032  0.0388  0.3606 -0.1335
  263loPI   C2A 4200   6.808   2.961   9.613  0.2946  0.2190 -0.0670
  263loPI   C3A 4201   6.807   2.983   9.164 -0.1593  0.1912  0.3471
  263loPI   C4A 4202   6.899   2.918   8.777  0.2126 -0.2005  0.1482
  263loPI   C5A 4203   6.859   2.954   8.397 -0.2478  0.0028  0.1557
  263loPI   C6A 4204   6.799   2.523   8.156  0.0919  0.3682  0.0320
  263loPI   C1B 4205   7.309   3.045  10.122 -0.1627  0.2376 -0.3386
  263loPI   C2B 4206   7.317   2.936   9.633 -0.3844  0.1520 -0.2847
  263loPI   C3B 4207   7.318   2.986   9.175 -0.1640  0.0414  0.0646
  263loPI   C4B 4208   7.324   3.054   8.628 -0.1288 -0.1628  0.0682
  264loPI    C1 4209   0.735   1.537  10.607  0.1207 -0.1298 -0.0091
  264loPI    C2 4210   0.571   1.849  10.418 -0.1481 -0.2298  0.0544
  264loPI    C3 4211   0.587   1.844  10.817  0.1845 -0.1363  0.0457
  264loPI   PO4 4212   0.853   1.430  10.373  0.1436 -0.0812 -0.1457
  264loPI   GL1 4213   0.645   1.306  10.024  0.0638  0.3545 -0.0708
  264loPI   GL2 4214   0.827   1.433   9.829 -0.2110 -0.1297 -0.3686
  264loPI   C1A 4215   0.435   1.383   9.540 -0.0961  0.0903 -0.1349
  264loPI   C2A 4216   0.565   1.453   9.095 -0.0393 -0.0321  0.0119
  264loPI   C3A 4217   0.717   1.400   8.694  0.0245  0.1499 -0.0353
  264loPI   C4A 4218   0.738   1.466   8.275 -0.1185 -0.3087 -0.1172
  264loPI   C5A 4219   0.869   1.217   7.974  0.0283 -0.1453 -0.0478
  264loPI   C6A 4220   0.990   0.849   7.965  0.0100 -0.2360 -0.0229
  264loPI   C1B 4221   1.008   1.535   9.396  0.0418 -0.1735  0.1254
  264loPI   C2B 4222   1.123   1.563   8.877  0.2379  0.4011  0.4746
  264loPI   C3B 4223   1.275   1.479   8.506 -0.2429 -0.0699 -0.1082
  264loPI   C4B 4224   1.356   1.429   8.066  0.1681  0.0836  0.1184
  265loPI    C1 4225  17.347  12.773  10.187 -0.2832  0.2119  0.1064
  265loPI    C2 4226  17.573  12.857  10.506 -0.1196 -0.0623  0.0667
  265loPI    C3 4227  17.180  12.798  10.549 -0.0892 -0.1545  0.2274
  265loPI   PO4 4228  17.332  12.566  10.087 -0.0867 -0.1369  0.0319
  265loPI   GL1 4229  17.231  12.415   9.745  0.0921 -0.0684 -0.2471
  265loPI   GL2 4230  17.553  12.420   9.672  0.0191  0.1980 -0.1639
  265loPI   C1A 4231  17.283  12.397   9.266 -0.3205 -0.0154 -0.3402
  265loPI   C2A 4232  17.204  12.370   8.866 -0.0231 -0.0028 -0.2315
  265loPI   C3A 4233  17.309  12.344   8.480  0.4212  0.1153 -0.1268
  265loPI   C4A 4234  17.429  12.528   8.110  0.0164  0.1105  0.0103
  265loPI   C5A 4235  17.581  12.454   7.750  0.4110  0.1542  0.2225
  265loPI   C6A 4236  17.911  12.476   7.472  0.0676 -0.2071  0.2077
  265loPI   C1B 4237  17.784  12.488   9.275  0.0414 -0.3012  0.1383
  265loPI   C2B 4238  17.680  12.453   8.818 -0.0981  0.0404 -0.1622
  265loPI   C3B 4239  17.861  12.450   8.469 -0.0477 -0.0419 -0.1870
  265loPI   C4B 4240  18.087  12.417   8.113  0.0470  0.0329  0.3679
  266loPI    C1 4241   7.152   5.888  11.311  0.1060 -0.0403 -0.1063
  266loPI    C2 4242   6.834   6.131  11.291  0.0953 -0.0384  0.0685
  266loPI    C3 4243   6.995   6.041  11.646  0.0718 -0.3230  0.0097
  266loPI   PO4 4244   7.269   5.943  11.063 -0.0972 -0.0516 -0.2690
  266loPI   GL1 4245   7.226   5.929  10.573 -0.2738 -0.0200 -0.1092
  266loPI   GL2 4246   7.073   6.243  10.280 -0.0598 -0.2691 -0.1694
  266loPI   C1A 4247   7.485   5.882  10.169  0.0054  0.2169  0.1199
  266loPI   C2A 4248   7.482   5.806   9.623 -0.0370 -0.1211  0.0059
  266loPI   C3A 4249   7.596   5.762   9.121 -0.1705  0.1194 -0.0331
  266loPI   C4A 4250   7.631   5.773   8.685 -0.0825  0.0591 -0.0221
  266loPI   C5A 4251   7.744   5.670   8.300 -0.0713  0.1359 -0.2211
  266loPI   C6A 4252   8.189   5.566   8.208 -0.0068  0.0001  0.0465
  266loPI   C1B 4253   7.176   6.236   9.851 -0.0489  0.0012  0.0904
  266loPI   C2B 4254   7.294   6.229   9.435 -0.1819  0.0413  0.2902
  266loPI   C3B 4255   7.219   6.276   9.025 -0.0230  0.1233  0.1750
  266loPI   C4B 4256   7.313   6.207   8.592  0.4529 -0.1115 -0.1550
  267loPI    C1 4257  15.061   7.711  11.013 -0.0899 -0.1344  0.0502
  267loPI    C2 4258  15.254   7.897  11.310  0.1798 -0.2272 -0.0636
  267loPI    C3 4259  14.963   7.636  11.393  0.0562 -0.0377  0.1081
  267loPI   PO4 4260  14.990   7.857  10.910 -0.1488  0.1657  0.0465
  267loPI   GL1 4261  14.772   8.098  10.584  0.0979 -0.0795 -0.0459
  267loPI   GL2 4262  15.034   8.289  10.595  0.2408 -0.1561  0.0534
  267loPI   C1A 4263  14.647   8.070  10.250 -0.0675 -0.2061  0.0091
  267loPI   C2A 4264  14.419   8.078   9.865 -0.0821 -0.2719  0.0031
  267loPI   C3A 4265  14.401   7.975   9.474  0.2726 -0.0612 -0.1716
  267loPI   C4A 4266  14.337   7.965   9.054 -0.1517  0.0244  0.1225
  267loPI   C5A 4267  14.411   7.928   8.689  0.3856 -0.3557 -0.0904
  267loPI   C6A 4268  14.632   8.032   8.423 -0.1175 -0.3412  0.2487
  267loPI   C1B 4269  15.011   8.540  10.213  0.1209 -0.1179  0.1921
  267loPI   C2B 4270  15.150   8.574   9.754  0.1541  0.0734  0.1350
  267loPI   C3B 4271  15.126   8.508   9.291  0.1030  0.0959  0.1361
  267loPI   C4B 4272  15.022   8.508   8.842 -0.1414  0.1384 -0.0649
  268loPI    C1 4273   3.459  13.274  10.814 -0.1592 -0.0831  0.1178
  268loPI    C2 4274   3.698  13.038  11.031  0.0383  0.0948  0.0971
  268loPI    C3 4275   3.689  13.432  11.101 -0.2508  0.0901  0.0968
  268loPI   PO4 4276   3.406  12.986  10.611  0.1982 -0.0358 -0.4081
  268loPI   GL1 4277   3.194  13.053  10.226  0.1185  0.0913 -0.1659
  268loPI   GL2 4278   3.166  13.303  10.009 -0.0461  0.1611  0.2574
  268loPI   C1A 4279   3.399  12.812  10.032  0.1919  0.1801  0.1427
  268loPI   C2A 4280   3.487  12.715   9.616  0.0415 -0.2387 -0.1594
  268loPI   C3A 4281   3.566  12.754   9.184  0.0443 -0.2150  0.3838
  268loPI   C4A 4282   3.527  12.732   8.756 -0.1757 -0.0494 -0.2988
  268loPI   C5A 4283   3.526  12.578   8.351 -0.2644 -0.1473 -0.1650
  268loPI   C6A 4284   3.295  12.356   7.893  0.3174  0.1476  0.1462
  268loPI   C1B 4285   3.186  13.097   9.581  0.1125  0.0909 -0.1783
  268loPI   C2B 4286   3.241  13.065   9.057 -0.0699  0.1066  0.2255
  268loPI   C3B 4287   3.325  13.160   8.661 -0.1224 -0.1995  0.0397
  268loPI   C4B 4288   3.335  13.027   8.192  0.1523  0.2428  0.2091
  269loPI    C1 4289  16.615  18.102  10.619  0.1230  0.4160  0.0900
  269loPI    C2 4290  16.947  17.884  10.578 -0.1399 -0.0296  0.2620
  269loPI    C3 4291  16.935  18.179  10.847  0.1154 -0.0091  0.2534
  269loPI   PO4 4292  16.483  17.963  10.428 -0.1574 -0.3503  0.0931
  269loPI   GL1 4293  16.200  18.057  10.066  0.0835  0.5204 -0.1397
  269loPI   GL2 4294  16.365  17.779   9.944  0.3420  0.3533 -0.3540
  269loPI   C1A 4295  16.272  18.268   9.607 -0.3383  0.1741 -0.3350
  269loPI   C2A 4296  16.292  18.261   9.185  0.1265  0.1274 -0.1792
  269loPI   C3A 4297  16.268  18.303   8.787 -0.0380 -0.1519 -0.0733
  269loPI   C4A 4298  16.496  18.277   8.328  0.1146 -0.3002  0.1391
  269loPI   C5A 4299  16.513  18.378   8.012 -0.2106 -0.3714  0.0685
  269loPI   C6A 4300  16.567  18.775   7.772  0.2299 -0.1132 -0.0473
  269loPI   C1B 4301  16.069  17.767   9.636 -0.3150  0.1336  0.3008
  269loPI   C2B 4302  16.081  17.818   9.213 -0.0242  0.1854 -0.0115
  269loPI   C3B 4303  16.067  17.838   8.822 -0.0954  0.0398  0.3240
  269loPI   C4B 4304  16.178  17.909   8.397 -0.1267 -0.0571 -0.0949
  270loPI    C1 4305   0.421  17.595  10.292  0.0399  0.0271  0.0181
  270loPI    C2 4306   0.613  17.896  10.111 -0.0120  0.0719  0.0378
  270loPI    C3 4307   0.819  17.584  10.253  0.0190 -0.0177 -0.1993
  270loPI   PO4 4308   0.284  17.485  10.104 -0.0802  0.0087  0.0558
  270loPI   GL1 4309   0.305  17.820   9.721  0.3147  0.1955 -0.0339
  270loPI   GL2 4310   0.523  17.604   9.661 -0.2158  0.1064 -0.0245
  270loPI   C1A 4311  -0.038  17.765   9.381 -0.2027 -0.2856 -0.0447
  270loPI   C2A 4312  -0.188  17.637   9.067  0.2858  0.2886  0.0527
  270loPI   C3A 4313  -0.210  17.789   8.640  0.1817  0.2035  0.2997
  270loPI   C4A 4314  -0.150  17.721   8.246  0.1378 -0.2590  0.1928
  270loPI   C5A 4315   0.004  17.483   7.926  0.3839 -0.1152 -0.0683
  270loPI   C6A 4316   0.209  17.308   7.584  0.0288  0.1388 -0.1899
  270loPI   C1B 4317   0.439  17.766   9.268  0.0331  0.2975  0.1514
  270loPI   C2B 4318   0.287  17.893   8.925  0.3943  0.2194 -0.1220
  270loPI   C3B 4319   0.399  17.873   8.482  0.0580 -0.0876 -0.2937
  270loPI   C4B 4320   0.390  17.753   8.049 -0.0292 -0.0804  0.0222
  271loPI    C1 4321   1.701   1.468  10.365  0.1881 -0.0309  0.0829
  271loPI    C2 4322   1.561   1.142  10.551 -0.1249  0.0195 -0.0580
  271loPI    C3 4323   1.644   1.472  10.761 -0.2359 -0.0055  0.0258
  271loPI   PO4 4324   1.749   1.404  10.153 -0.0928  0.0166  0.2798
  271loPI   GL1 4325   1.578   1.461   9.734  0.2613 -0.1282 -0.0827
  271loPI   GL2 4326   1.316   1.582   9.800 -0.2707 -0.2908  0.1030
  271loPI   C1A 4327   1.505   1.667   9.278 -0.4183 -0.0889  0.2825
  271loPI   C2A 4328   1.599   1.617   8.824  0.1471  0.1086 -0.2343
  271loPI   C3A 4329   1.830   1.573   8.453  0.1364  0.1310 -0.1749
  271loPI   C4A 4330   1.940   1.457   8.017  0.2510 -0.3025  0.1101
  271loPI   C5A 4331   2.197   1.426   7.689 -0.3555  0.1209 -0.4759
  271loPI   C6A 4332   2.672   1.395   7.562 -0.3772  0.0138  0.0282
  271loPI   C1B 4333   1.245   1.986   9.554 -0.0640  0.0546 -0.2831
  271loPI   C2B 4334   1.246   2.147   9.149 -0.1743  0.2927  0.1676
  271loPI   C3B 4335   1.332   2.081   8.690 -0.0085 -0.0536  0.0241
  271loPI   C4B 4336   1.470   1.896   8.298 -0.0305  0.1021 -0.1240
  272loPI    C1 4337   2.079   8.956  10.684 -0.1373 -0.0003 -0.1223
  272loPI    C2 4338   1.715   8.857  10.818 -0.0826 -0.0296  0.0066
  272loPI    C3 4339   1.959   9.076  11.046  0.0430 -0.1491 -0.0112
  272loPI   PO4 4340   1.991   9.067  10.446 -0.2625 -0.1103 -0.0303
  272loPI   GL1 4341   1.905   9.353  10.119 -0.1531 -0.1362  0.1161
  272loPI   GL2 4342   1.681   9.188   9.905  0.0443  0.0447  0.3943
  272loPI   C1A 4343   2.145   9.274   9.710  0.2226 -0.1893 -0.0742
  272loPI   C2A 4344   2.180   9.213   9.269 -0.0876  0.1728  0.2259
  272loPI   C3A 4345   2.084   9.228   8.784  0.0616  0.0385  0.0460
  272loPI   C4A 4346   2.135   9.297   8.344 -0.0072  0.2003  0.3446
  272loPI   C5A 4347   1.864   9.566   8.056  0.1424 -0.0898  0.3230
  272loPI   C6A 4348   1.478   9.525   7.846 -0.3031 -0.0249  0.2768
  272loPI   C1B 4349   1.732   9.198   9.503  0.1782  0.0847 -0.1098
  272loPI   C2B 4350   1.685   9.204   9.117 -0.3330  0.2887 -0.1139
  272loPI   C3B 4351   1.624   9.166   8.635 -0.0456  0.0308  0.1979
  272loPI   C4B 4352   1.516   9.122   8.239 -0.1206  0.0632  0.0559
  273loPI    C1 4353  17.324   4.044  10.022 -0.0941  0.0652  0.2471
  273loPI    C2 4354  17.262   4.126  10.409  0.0940  0.2511  0.2398
  273loPI    C3 4355  17.442   3.785  10.303 -0.1973  0.0749  0.3000
  273loPI   PO4 4356  17.042   3.959   9.844  0.4707 -0.1596 -0.0029
  273loPI   GL1 4357  16.875   3.825   9.436 -0.2989  0.2016 -0.3175
  273loPI   GL2 4358  16.682   4.048   9.333  0.1239  0.0424 -0.2547
  273loPI   C1A 4359  16.997   3.960   8.961  0.2822  0.0534  0.0501
  273loPI   C2A 4360  17.208   3.809   8.572 -0.1692  0.1258 -0.0222
  273loPI   C3A 4361  17.081   3.496   8.342 -0.2507  0.0954  0.1112
  273loPI   C4A 4362  16.966   3.072   8.398  0.0510  0.0222  0.2158
  273loPI   C5A 4363  16.779   2.620   8.386  0.0862  0.1504 -0.0483
  273loPI   C6A 4364  16.707   2.320   8.042 -0.1412  0.3052 -0.2470
  273loPI   C1B 4365  16.491   3.980   8.953 -0.0641 -0.1474  0.1801
  273loPI   C2B 4366  16.239   3.993   8.642  0.3737  0.1311  0.2204
  273loPI   C3B 4367  15.980   4.208   8.271 -0.1463  0.2303 -0.4064
  273loPI   C4B 4368  16.008   4.202   7.773 -0.1516  0.2575  0.0689
  274loPI    C1 4369   5.722   5.927  11.406  0.0082 -0.0080  0.0101
  274loPI    C2 4370   5.837   5.568  11.538  0.0193  0.0108  0.0520
  274loPI    C3 4371   5.569   5.780  11.745 -0.2827 -0.1417 -0.1752
  274loPI   PO4 4372   5.792   5.852  11.049 -0.0126  0.2254  0.0361
  274loPI   GL1 4373   5.907   5.887  10.577 -0.1748 -0.0437 -0.2089
  274loPI   GL2 4374   5.955   6.218  10.465  0.0342  0.0962 -0.0418
  274loPI   C1A 4375   5.989   5.752  10.102  0.3988  0.2328 -0.2363
  274loPI   C2A 4376   5.989   5.672   9.647  0.1827  0.1100  0.1335
  274loPI   C3A 4377   6.076   5.604   9.212 -0.2456 -0.0074 -0.0237
  274loPI   C4A 4378   6.015   5.523   8.826 -0.2124 -0.1063  0.0976
  274loPI   C5A 4379   6.071   5.763   8.331  0.0713  0.0988  0.1410
  274loPI   C6A 4380   6.286   5.742   7.975  0.0894 -0.2905  0.0411
  274loPI   C1B 4381   6.153   6.229  10.117 -0.1518  0.4086  0.1942
  274loPI   C2B 4382   6.188   6.158   9.653  0.2269  0.1403  0.1801
  274loPI   C3B 4383   6.158   6.169   9.174  0.1823 -0.3925 -0.0964
  274loPI   C4B 4384   6.258   6.087   8.782  0.1612 -0.2482 -0.0460
  275loPI    C1 4385   6.304   5.041  11.071 -0.1880 -0.2885  0.0544
  275loPI    C2 4386   6.554   4.837  11.309 -0.0585  0.0647  0.2290
  275loPI    C3 4387   6.350   5.149  11.454 -0.3073  0.0200 -0.0159
  275loPI   PO4 4388   6.386   5.038  10.910  0.0125 -0.4182  0.4047
  275loPI   GL1 4389   6.348   4.953  10.542  0.2484 -0.0816  0.1017
  275loPI   GL2 4390   6.660   4.864  10.514  0.2384  0.0444  0.1282
  275loPI   C1A 4391   6.312   5.289  10.066 -0.0454  0.0498 -0.0027
  275loPI   C2A 4392   6.318   5.261   9.680 -0.0167 -0.4380  0.2609
  275loPI   C3A 4393   6.303   5.200   9.163 -0.0468  0.0956 -0.1341
  275loPI   C4A 4394   6.351   5.185   8.747 -0.2133 -0.1214  0.1723
  275loPI   C5A 4395   6.185   5.275   8.352 -0.3223 -0.2488  0.1732
  275loPI   C6A 4396   5.951   5.299   7.927  0.2844 -0.1263  0.1226
  275loPI   C1B 4397   6.678   4.853   9.996 -0.0380  0.0334  0.0264
  275loPI   C2B 4398   6.623   4.893   9.598  0.0169  0.0954 -0.0613
  275loPI   C3B 4399   6.632   4.793   9.134  0.0294  0.1258  0.2710
  275loPI   C4B 4400   6.682   4.769   8.771  0.0891 -0.2613  0.1692
  276loPI    C1 4401  15.061   6.743  10.918 -0.1915  0.1614  0.2196
  276loPI    C2 4402  15.201   6.434  11.131  0.0374  0.2309  0.1727
  276loPI    C3 4403  15.253   6.808  11.263 -0.1099  0.2577  0.1567
  276loPI   PO4 4404  15.106   6.663  10.618 -0.1662 -0.0234  0.0813
  276loPI   GL1 4405  14.972   6.827  10.251  0.0909 -0.0650 -0.0290
  276loPI   GL2 4406  14.958   7.161  10.053  0.0060  0.1186 -0.0087
  276loPI   C1A 4407  14.810   6.748   9.830 -0.1194  0.1594 -0.1582
  276loPI   C2A 4408  14.784   6.625   9.369  0.0407  0.0146 -0.1458
  276loPI   C3A 4409  14.720   6.623   8.963  0.0410  0.3715 -0.3666
  276loPI   C4A 4410  14.745   6.569   8.543  0.0852  0.2234  0.4449
  276loPI   C5A 4411  14.856   6.685   8.108  0.1852 -0.1843 -0.0617
  276loPI   C6A 4412  15.198   6.527   7.927  0.1537 -0.0708 -0.0804
  276loPI   C1B 4413  15.005   7.220   9.645  0.0255 -0.1919  0.1709
  276loPI   C2B 4414  15.006   7.129   9.255 -0.0482 -0.0265 -0.0542
  276loPI   C3B 4415  14.885   7.045   8.791 -0.0500 -0.1306  0.3680
  276loPI   C4B 4416  14.926   7.056   8.433  0.1188 -0.0057  0.3393
  277loPI    C1 4417   2.758   5.155  10.826 -0.2493  0.0209 -0.1583
  277loPI    C2 4418   2.496   5.322  10.574 -0.3129  0.0893 -0.0480
  277loPI    C3 4419   2.423   5.322  10.967 -0.3039 -0.1815 -0.0442
  277loPI   PO4 4420   2.806   4.969  10.715 -0.1425 -0.5793  0.0972
  277loPI   GL1 4421   2.784   4.908  10.367 -0.0792  0.0116 -0.0355
  277loPI   GL2 4422   2.634   5.139  10.135 -0.1102 -0.1276 -0.0394
  277loPI   C1A 4423   3.023   4.748   9.987 -0.2017  0.0862 -0.0043
  277loPI   C2A 4424   3.207   4.819   9.581  0.1294  0.0597  0.1569
  277loPI   C3A 4425   3.232   4.868   9.101 -0.2455 -0.0183 -0.0030
  277loPI   C4A 4426   3.090   4.887   8.730 -0.6706  0.2186  0.1223
  277loPI   C5A 4427   3.147   4.842   8.299  0.0595 -0.2365 -0.0274
  277loPI   C6A 4428   2.841   4.806   8.079 -0.0859  0.0322  0.2414
  277loPI   C1B 4429   2.795   5.196   9.770  0.3698 -0.2381  0.0372
  277loPI   C2B 4430   2.832   5.310   9.381  0.2549 -0.2197  0.1289
  277loPI   C3B 4431   2.929   5.266   8.924 -0.2933 -0.2478  0.0153
  277loPI   C4B 4432   2.757   5.178   8.483 -0.2941 -0.2266 -0.0925
  278loPI    C1 4433  18.006   7.258  10.678  0.1715  0.2070 -0.1284
  278loPI    C2 4434  18.384   7.280  10.805  0.0532  0.0060  0.2780
  278loPI    C3 4435  18.106   7.521  10.962 -0.0489 -0.0700  0.2151
  278loPI   PO4 4436  17.987   7.335  10.376 -0.0745 -0.2342 -0.0591
  278loPI   GL1 4437  17.939   7.689  10.062  0.1304 -0.0343  0.1150
  278loPI   GL2 4438  17.646   7.852  10.109 -0.0021  0.2660  0.2792
  278loPI   C1A 4439  17.765   7.557   9.711  0.1354 -0.1068 -0.1038
  278loPI   C2A 4440  17.653   7.532   9.343  0.0917 -0.0532  0.0878
  278loPI   C3A 4441  17.732   7.452   8.942  0.4768 -0.0328  0.0221
  278loPI   C4A 4442  17.428   7.485   8.689 -0.2321  0.0792 -0.2393
  278loPI   C5A 4443  17.427   7.477   8.234  0.1081 -0.3312  0.0618
  278loPI   C6A 4444  17.493   7.256   7.889  0.0028  0.2491  0.0946
  278loPI   C1B 4445  17.400   7.969   9.732 -0.0019 -0.1036 -0.1987
  278loPI   C2B 4446  17.354   7.949   9.250  0.0277 -0.0304 -0.0695
  278loPI   C3B 4447  17.219   7.903   8.875 -0.2561  0.1399 -0.2918
  278loPI   C4B 4448  17.074   7.770   8.411  0.1427 -0.2847 -0.0408
  279loPI    C1 4449  12.335   4.340  11.112 -0.0093 -0.0116 -0.1509
  279loPI    C2 4450  12.203   3.967  11.169 -0.0367  0.0688  0.3518
  279loPI    C3 4451  12.354   4.175  11.476  0.0958  0.4287  0.0499
  279loPI   PO4 4452  12.482   4.284  10.900 -0.0140 -0.1293  0.1019
  279loPI   GL1 4453  12.781   4.156  10.648 -0.0656  0.1374 -0.0941
  279loPI   GL2 4454  12.448   4.028  10.457 -0.1541  0.0842 -0.1854
  279loPI   C1A 4455  12.762   4.275  10.209  0.1552 -0.0355 -0.0651
  279loPI   C2A 4456  12.727   4.109   9.791  0.1008 -0.0485  0.0872
  279loPI   C3A 4457  12.674   4.091   9.361 -0.4139  0.2018  0.1758
  279loPI   C4A 4458  12.599   3.994   8.869  0.1057 -0.1222 -0.2629
  279loPI   C5A 4459  12.640   3.827   8.487 -0.1651 -0.0235  0.1733
  279loPI   C6A 4460  12.633   3.974   8.089  0.4463  0.0879 -0.1698
  279loPI   C1B 4461  12.320   4.053  10.029 -0.1031  0.1034 -0.1745
  279loPI   C2B 4462  12.177   4.113   9.547  0.0316 -0.1517 -0.3612
  279loPI   C3B 4463  12.138   4.024   9.097 -0.3450  0.0834 -0.1937
  279loPI   C4B 4464  12.105   3.973   8.663 -0.0506 -0.0523  0.1165
  280loPI    C1 4465  11.842   3.522  11.177  0.2513 -0.1926 -0.2804
  280loPI    C2 4466  12.081   3.531  11.498  0.1075 -0.4645 -0.1618
  280loPI    C3 4467  11.696   3.430  11.538 -0.1203  0.2863 -0.2992
  280loPI   PO4 4468  12.009   3.378  11.064 -0.0610 -0.0188  0.2440
  280loPI   GL1 4469  11.995   3.292  10.525 -0.2436 -0.1659 -0.0595
  280loPI   GL2 4470  12.080   3.654  10.306  0.0613 -0.2888 -0.1889
  280loPI   C1A 4471  11.903   3.171  10.098 -0.2677  0.0622  0.0972
  280loPI   C2A 4472  11.845   3.216   9.710  0.1439  0.1456 -0.1038
  280loPI   C3A 4473  11.727   3.010   9.311 -0.2000 -0.4712  0.1348
  280loPI   C4A 4474  11.759   2.926   8.907  0.0399 -0.0626  0.3320
  280loPI   C5A 4475  11.726   2.848   8.497  0.0780  0.0585 -0.2044
  280loPI   C6A 4476  11.808   2.802   8.022 -0.0056  0.2194  0.1637
  280loPI   C1B 4477  12.125   3.615   9.880 -0.0581  0.0339  0.0943
  280loPI   C2B 4478  11.942   3.701   9.451 -0.3077  0.1752 -0.0735
  280loPI   C3B 4479  11.951   3.497   9.101 -0.1382  0.0663  0.0771
  280loPI   C4B 4480  11.845   3.422   8.721 -0.0471 -0.1959 -0.1207
  281loPI    C1 4481   5.731  12.824  10.590 -0.0120 -0.0642 -0.0941
  281loPI    C2 4482   5.691  12.923  10.976 -0.2533  0.1559 -0.1728
  281loPI    C3 4483   5.713  12.538  10.869  0.3868  0.1014  0.1096
  281loPI   PO4 4484   5.942  13.102  10.568  0.0019 -0.2555 -0.3439
  281loPI   GL1 4485   6.289  13.236  10.343  0.0143 -0.1154  0.0077
  281loPI   GL2 4486   6.183  12.932  10.184 -0.1027 -0.6434  0.0757
  281loPI   C1A 4487   6.195  13.407   9.930  0.0792  0.1763  0.2106
  281loPI   C2A 4488   6.163  13.378   9.527  0.0059 -0.0075  0.0326
  281loPI   C3A 4489   6.293  13.417   9.144 -0.0774  0.3680  0.0249
  281loPI   C4A 4490   6.458  13.415   8.801  0.1035  0.0776  0.0117
  281loPI   C5A 4491   6.359  13.188   8.455 -0.0216 -0.1858 -0.1984
  281loPI   C6A 4492   6.144  13.025   8.031 -0.2187  0.0784 -0.2948
  281loPI   C1B 4493   6.180  12.912   9.783 -0.2139 -0.3108  0.0642
  281loPI   C2B 4494   6.241  12.877   9.336  0.0811  0.2580 -0.3631
  281loPI   C3B 4495   6.153  12.865   8.852  0.0866  0.0149  0.2939
  281loPI   C4B 4496   5.878  13.051   8.445  0.3980 -0.2603 -0.1100
  282loPI    C1 4497  11.675  14.209  11.017  0.1937 -0.0961 -0.0004
  282loPI    C2 4498  11.575  13.846  11.151  0.0086 -0.1012 -0.1487
  282loPI    C3 4499  11.848  14.063  11.347 -0.0876 -0.2030  0.1021
  282loPI   PO4 4500  11.690  14.153  10.778  0.2051 -0.1411 -0.3057
  282loPI   GL1 4501  11.528  14.237  10.346 -0.3954  0.1365 -0.2886
  282loPI   GL2 4502  11.163  14.220  10.353 -0.0549 -0.1529  0.1678
  282loPI   C1A 4503  11.612  14.052   9.898 -0.0755  0.0975 -0.0735
  282loPI   C2A 4504  11.613  13.931   9.467  0.1604  0.0211  0.0728
  282loPI   C3A 4505  11.656  13.945   9.047  0.1583 -0.1490 -0.0998
  282loPI   C4A 4506  11.596  14.051   8.679  0.1085  0.0376 -0.1812
  282loPI   C5A 4507  11.645  14.147   8.198  0.3769 -0.0634 -0.1208
  282loPI   C6A 4508  11.835  14.014   7.822 -0.2950 -0.1176 -0.3100
  282loPI   C1B 4509  11.017  14.003   9.943 -0.2552  0.2144 -0.1785
  282loPI   C2B 4510  11.035  13.867   9.566  0.1515 -0.1915 -0.0397
  282loPI   C3B 4511  11.133  13.950   9.190 -0.3379  0.0714  0.0576
  282loPI   C4B 4512  11.142  14.020   8.725 -0.0923 -0.1734  0.0581
  283loPI    C1 4513   2.635  13.870  10.591  0.2168  0.3208 -0.1530
  283loPI    C2 4514   2.788  13.941  10.953  0.2692 -0.0540 -0.0975
  283loPI    C3 4515   2.392  13.912  10.905  0.2642 -0.0434 -0.0627
  283loPI   PO4 4516   2.630  14.101  10.361 -0.0915  0.1105  0.0546
  283loPI   GL1 4517   2.487  14.186   9.896 -0.0701 -0.3426  0.2845
  283loPI   GL2 4518   2.229  14.312   9.909 -0.0526 -0.0582 -0.0829
  283loPI   C1A 4519   2.733  14.118   9.561  0.1446 -0.1229  0.1825
  283loPI   C2A 4520   2.767  14.164   9.193  0.1323  0.0517  0.0091
  283loPI   C3A 4521   3.001  14.064   8.816 -0.0814 -0.2326 -0.0942
  283loPI   C4A 4522   3.145  14.226   8.483  0.1847 -0.1764 -0.1230
  283loPI   C5A 4523   3.399  14.426   8.363 -0.2137  0.2902  0.0534
  283loPI   C6A 4524   3.687  14.513   8.006  0.1974 -0.0288 -0.1922
  283loPI   C1B 4525   2.193  14.237   9.528 -0.0559  0.0794 -0.2059
  283loPI   C2B 4526   2.248  14.204   9.111 -0.1130 -0.2301  0.2330
  283loPI   C3B 4527   2.128  14.219   8.639  0.0458 -0.2811 -0.0110
  283loPI   C4B 4528   2.019  14.353   8.333  0.0587  0.1544 -0.0381
  284loPI    C1 4529   7.312   7.905  11.014  0.0987 -0.1142  0.1543
  284loPI    C2 4530   7.574   8.057  11.275  0.1622  0.0871 -0.0239
  284loPI    C3 4531   7.437   7.684  11.323  0.0951  0.1569  0.3526
  284loPI   PO4 4532   7.186   8.157  10.957 -0.2781  0.0613  0.1034
  284loPI   GL1 4533   7.080   8.274  10.530 -0.1331  0.0146 -0.1074
  284loPI   GL2 4534   7.269   8.012  10.515 -0.2286  0.0092  0.0014
  284loPI   C1A 4535   6.908   8.139  10.174 -0.0072 -0.1653 -0.2513
  284loPI   C2A 4536   6.941   8.123   9.814 -0.3961  0.0687 -0.0982
  284loPI   C3A 4537   6.947   8.022   9.337  0.1784 -0.0414 -0.0645
  284loPI   C4A 4538   7.037   8.080   8.962 -0.0149 -0.2078 -0.0756
  284loPI   C5A 4539   7.066   7.950   8.552  0.0778  0.1523  0.1631
  284loPI   C6A 4540   7.383   7.917   8.218 -0.0268 -0.2757 -0.0688
  284loPI   C1B 4541   7.405   8.018  10.000 -0.1404 -0.0901 -0.1709
  284loPI   C2B 4542   7.452   8.052   9.580  0.0450 -0.1867  0.1112
  284loPI   C3B 4543   7.505   8.047   9.175  0.0840  0.1192 -0.0070
  284loPI   C4B 4544   7.497   8.196   8.696  0.1597  0.1130 -0.1718
  285loPI    C1 4545  10.541   2.624  10.584  0.3007  0.0026  0.1200
  285loPI    C2 4546  10.364   2.425  10.882  0.0113  0.0110 -0.0421
  285loPI    C3 4547  10.281   2.812  10.823  0.0991  0.0201 -0.1084
  285loPI   PO4 4548  10.841   2.606  10.508 -0.3698 -0.0808  0.1094
  285loPI   GL1 4549  11.105   2.656  10.237 -0.1871  0.1445 -0.2566
  285loPI   GL2 4550  11.376   2.370  10.196 -0.1098 -0.1107  0.1484
  285loPI   C1A 4551  11.110   2.637   9.765  0.0502  0.2878 -0.3038
  285loPI   C2A 4552  11.149   2.469   9.388 -0.0589  0.3079 -0.2875
  285loPI   C3A 4553  11.153   2.316   8.992 -0.2345 -0.1156  0.0319
  285loPI   C4A 4554  11.055   2.525   8.608  0.3382 -0.3979  0.0485
  285loPI   C5A 4555  10.958   2.478   8.249  0.2699 -0.0112 -0.1579
  285loPI   C6A 4556  10.766   2.632   7.922 -0.2759 -0.2603 -0.2185
  285loPI   C1B 4557  11.351   2.233   9.829 -0.0189  0.3639  0.1469
  285loPI   C2B 4558  11.320   2.028   9.371  0.1530 -0.1015  0.0693
  285loPI   C3B 4559  11.449   1.951   8.865 -0.0793  0.1958 -0.3447
  285loPI   C4B 4560  11.202   2.087   8.410 -0.0207  0.3114 -0.1656
  286loPI    C1 4561  11.763   0.384  10.758 -0.0887 -0.2259 -0.3347
  286loPI    C2 4562  11.435   0.542  10.922  0.0166 -0.2833 -0.0622
  286loPI    C3 4563  11.538   0.165  11.007  0.1591 -0.2616 -0.1374
  286loPI   PO4 4564  11.734   0.398  10.483  0.1764  0.1502  0.1004
  286loPI   GL1 4565  11.636   0.386  10.056 -0.0505 -0.0686 -0.1083
  286loPI   GL2 4566  11.841   0.053  10.048  0.0162 -0.3907  0.1336
  286loPI   C1A 4567  11.578   0.369   9.642 -0.1211 -0.0021 -0.0952
  286loPI   C2A 4568  11.658   0.336   9.178 -0.3021  0.0937 -0.0664
  286loPI   C3A 4569  11.661   0.337   8.721 -0.1816  0.0656 -0.1432
  286loPI   C4A 4570  11.554   0.340   8.282  0.1516  0.0086 -0.2561
  286loPI   C5A 4571  11.247  -0.011   8.193  0.0377 -0.2720  0.2041
  286loPI   C6A 4572  10.745  -0.241   8.122 -0.5078  0.1493 -0.1418
  286loPI   C1B 4573  11.891  -0.064   9.768 -0.2077  0.0391  0.2256
  286loPI   C2B 4574  11.923  -0.080   9.370 -0.0871  0.1518  0.2861
  286loPI   C3B 4575  11.938  -0.100   8.967 -0.1635 -0.0922  0.2510
  286loPI   C4B 4576  11.944  -0.106   8.481  0.0512  0.0197  0.3262
  287loPI    C1 4577  13.059   4.555  11.069 -0.0192  0.1811  0.0115
  287loPI    C2 4578  12.817   4.370  11.328 -0.2438  0.0996 -0.2517
  287loPI    C3 4579  12.918   4.753  11.386 -0.0282 -0.0095  0.1281
  287loPI   PO4 4580  12.998   4.521  10.875  0.5476  0.1586  0.1611
  287loPI   GL1 4581  13.307   4.402  10.522 -0.3000 -0.2455  0.2241
  287loPI   GL2 4582  13.088   4.600  10.328 -0.0248  0.0867 -0.1113
  287loPI   C1A 4583  13.228   4.250  10.058  0.4125  0.1270  0.0165
  287loPI   C2A 4584  13.230   4.209   9.620  0.1641 -0.0378 -0.0102
  287loPI   C3A 4585  13.128   4.164   9.208 -0.0022  0.3106 -0.1910
  287loPI   C4A 4586  13.157   4.094   8.843  0.4305  0.1965 -0.1898
  287loPI   C5A 4587  13.058   4.081   8.427 -0.0018 -0.1893  0.0290
  287loPI   C6A 4588  13.187   4.398   8.148 -0.2507  0.0038  0.0374
  287loPI   C1B 4589  12.949   4.597   9.894 -0.2634 -0.0039  0.2472
  287loPI   C2B 4590  12.889   4.579   9.546 -0.3803  0.3948  0.2054
  287loPI   C3B 4591  12.815   4.649   9.058 -0.2564  0.1194 -0.1354
  287loPI   C4B 4592  12.813   4.554   8.695  0.2668  0.1944 -0.1325
  288loPI    C1 4593  17.411  15.168  10.508  0.0539 -0.2133  0.0936
  288loPI    C2 4594  17.752  15.110  10.709  0.2396 -0.0203 -0.1591
  288loPI    C3 4595  17.612  15.481  10.656  0.0738 -0.0871 -0.1948
  288loPI   PO4 4596  17.506  14.975  10.212 -0.0287  0.1147 -0.1246
  288loPI   GL1 4597  17.473  15.133   9.794  0.1298  0.1169 -0.3417
  288loPI   GL2 4598  17.702  14.940   9.606  0.0537 -0.2665  0.0315
  288loPI   C1A 4599  17.387  15.252   9.425  0.3641  0.0807 -0.1097
  288loPI   C2A 4600  17.296  15.218   9.043 -0.0607 -0.1642 -0.1718
  288loPI   C3A 4601  17.276  15.306   8.639 -0.2255 -0.1712  0.0593
  288loPI   C4A 4602  17.365  15.454   8.238 -0.0087  0.0426 -0.0028
  288loPI   C5A 4603  17.228  15.565   7.853 -0.0643 -0.2263 -0.0097
  288loPI   C6A 4604  17.154  15.954   7.784  0.2139  0.1762 -0.1993
  288loPI   C1B 4605  17.582  14.814   9.146 -0.2484  0.1187 -0.2055
  288loPI   C2B 4606  17.589  14.875   8.735  0.0657  0.0197 -0.4281
  288loPI   C3B 4607  17.463  14.979   8.315 -0.0176  0.3981 -0.0821
  288loPI   C4B 4608  17.079  14.983   7.903  0.0832 -0.0467  0.1561
  289loPI    C1 4609   6.786  13.308  10.716  0.2045  0.2190  0.3089
  289loPI    C2 4610   7.177  13.336  10.636  0.1751 -0.0007  0.0753
  289loPI    C3 4611   7.019  12.983  10.738  0.0239  0.0719  0.0949
  289loPI   PO4 4612   6.691  13.436  10.574  0.2080 -0.1725  0.3126
  289loPI   GL1 4613   6.936  13.533  10.192 -0.1128  0.2762  0.3933
  289loPI   GL2 4614   6.707  13.597  10.134 -0.1250  0.1122 -0.3292
  289loPI   C1A 4615   6.939  13.485   9.676  0.0306 -0.0767  0.0559
  289loPI   C2A 4616   6.793  13.430   9.222 -0.1919  0.4808  0.0984
  289loPI   C3A 4617   6.950  13.423   8.820 -0.0514  0.2192  0.1361
  289loPI   C4A 4618   6.859  13.617   8.404 -0.1696 -0.1354 -0.0877
  289loPI   C5A 4619   6.773  13.868   8.126  0.2304 -0.0108  0.1504
  289loPI   C6A 4620   6.847  14.282   8.033  0.1503 -0.2111 -0.2003
  289loPI   C1B 4621   6.485  13.763   9.861 -0.0995 -0.0204  0.2962
  289loPI   C2B 4622   6.521  13.742   9.480  0.1451  0.2593  0.1376
  289loPI   C3B 4623   6.543  13.919   9.081  0.0026  0.4479  0.0171
  289loPI   C4B 4624   6.616  13.910   8.654  0.0642  0.0567 -0.0219
  290loPI    C1 4625   6.152  12.554  11.157 -0.0823 -0.0812 -0.0496
  290loPI    C2 4626   6.131  12.946  11.233  0.2537 -0.0739  0.0227
  290loPI    C3 4627   5.861  12.697  11.391 -0.0255  0.1383 -0.1112
  290loPI   PO4 4628   6.193  12.570  10.890  0.0453 -0.0084 -0.1222
  290loPI   GL1 4629   6.151  12.539  10.535  0.0192  0.0288  0.1452
  290loPI   GL2 4630   6.462  12.508  10.438  0.1982  0.1652  0.1040
  290loPI   C1A 4631   5.913  12.510  10.124 -0.0489  0.2326 -0.3562
  290loPI   C2A 4632   5.919  12.453   9.779 -0.1858 -0.0820 -0.1292
  290loPI   C3A 4633   5.963  12.475   9.452 -0.1181  0.0046  0.0948
  290loPI   C4A 4634   6.067  12.395   9.003  0.1008  0.2387 -0.2302
  290loPI   C5A 4635   5.944  12.487   8.572 -0.1189  0.0146  0.0640
  290loPI   C6A 4636   5.910  12.180   8.218  0.2955  0.3403 -0.0120
  290loPI   C1B 4637   6.440  12.491   9.972  0.1012  0.1814 -0.2971
  290loPI   C2B 4638   6.531  12.456   9.624  0.1134  0.1309  0.2051
  290loPI   C3B 4639   6.597  12.453   9.257  0.0707 -0.0283  0.1902
  290loPI   C4B 4640   6.502  12.486   8.850  0.3590  0.0669  0.0452
  291loPI    C1 4641   4.041   9.255  10.699  0.3792 -0.0163 -0.1683
  291loPI    C2 4642   4.325   9.454  10.899  0.1583  0.1677 -0.0329
  291loPI    C3 4643   3.994   9.332  11.088  0.0547  0.1330 -0.2335
  291loPI   PO4 4644   3.958   9.438  10.530 -0.1580 -0.1466  0.1665
  291loPI   GL1 4645   4.041   9.552  10.137 -0.1299 -0.0611 -0.0386
  291loPI   GL2 4646   3.992   9.221  10.071 -0.1311 -0.1467  0.0869
  291loPI   C1A 4647   4.153   9.557   9.707 -0.0088  0.0177 -0.0028
  291loPI   C2A 4648   4.140   9.573   9.310  0.0353  0.0202  0.2496
  291loPI   C3A 4649   4.203   9.419   8.844  0.3420 -0.0808 -0.0795
  291loPI   C4A 4650   4.077   9.450   8.445 -0.0970  0.1683 -0.3775
  291loPI   C5A 4651   3.916   9.533   8.085 -0.3046 -0.0659  0.1980
  291loPI   C6A 4652   3.533   9.485   7.909  0.2935  0.1739  0.0750
  291loPI   C1B 4653   3.917   9.141   9.575  0.0251  0.1817 -0.1058
  291loPI   C2B 4654   3.990   9.124   9.179 -0.1412  0.4023 -0.1643
  291loPI   C3B 4655   4.046   8.981   8.730 -0.0520  0.0068  0.0161
  291loPI   C4B 4656   4.039   8.877   8.309  0.2554 -0.3110  0.1817
  292loPI    C1 4657  12.142  13.210  11.049 -0.0095 -0.0367 -0.0617
  292loPI    C2 4658  12.180  12.814  11.006  0.1897 -0.0294  0.0367
  292loPI    C3 4659  12.227  12.982  11.366 -0.3308  0.0370  0.0803
  292loPI   PO4 4660  12.301  13.294  10.798  0.2290 -0.2937  0.0284
  292loPI   GL1 4661  12.453  13.004  10.498 -0.1068 -0.1737 -0.0434
  292loPI   GL2 4662  12.756  13.172  10.566  0.2370 -0.0663 -0.0141
  292loPI   C1A 4663  12.490  12.800  10.103 -0.2696 -0.0697  0.0258
  292loPI   C2A 4664  12.558  12.818   9.624  0.1230  0.2362 -0.1431
  292loPI   C3A 4665  12.506  12.693   9.193  0.0474  0.1620 -0.0092
  292loPI   C4A 4666  12.505  12.617   8.725 -0.0995  0.1894 -0.1488
  292loPI   C5A 4667  12.486  12.185   8.377  0.0068  0.2497  0.1088
  292loPI   C6A 4668  12.380  11.742   8.363 -0.0986  0.1927  0.3133
  292loPI   C1B 4669  12.696  13.249  10.179  0.0292 -0.4471 -0.1385
  292loPI   C2B 4670  12.783  13.344   9.692 -0.2271 -0.0588 -0.1332
  292loPI   C3B 4671  12.689  13.181   9.307 -0.0288  0.1150  0.0962
  292loPI   C4B 4672  12.802  13.194   8.913  0.2930 -0.0135  0.1054
  293loPI    C1 4673  16.753   3.620   9.962  0.0558  0.2328 -0.0554
  293loPI    C2 4674  17.081   3.414  10.063 -0.3378 -0.2118  0.3662
  293loPI    C3 4675  16.929   3.683  10.316 -0.2534  0.0593  0.1334
  293loPI   PO4 4676  16.535   3.480   9.829  0.0029 -0.1521 -0.4501
  293loPI   GL1 4677  16.549   3.497   9.453 -0.0817  0.1310 -0.1321
  293loPI   GL2 4678  16.330   3.564   9.192 -0.2514  0.1139 -0.0746
  293loPI   C1A 4679  16.812   3.508   9.110  0.1904  0.2810 -0.3054
  293loPI   C2A 4680  16.760   3.596   8.753  0.0476  0.1289 -0.2437
  293loPI   C3A 4681  16.766   3.896   8.390  0.0438 -0.0249 -0.4156
  293loPI   C4A 4682  16.766   3.736   8.014 -0.0328  0.0271  0.1655
  293loPI   C5A 4683  16.661   3.600   7.649  0.2046 -0.1811  0.2204
  293loPI   C6A 4684  16.448   3.404   7.294 -0.2332  0.0296 -0.0551
  293loPI   C1B 4685  16.277   3.473   8.797 -0.0758 -0.1228  0.0021
  293loPI   C2B 4686  16.360   3.481   8.378 -0.0066 -0.0966 -0.2018
  293loPI   C3B 4687  16.565   3.263   8.053  0.3763  0.1134 -0.0773
  293loPI   C4B 4688  16.978   3.098   7.844  0.1002 -0.2331  0.2524
  294loPI    C1 4689  15.449   8.599  11.080 -0.1395  0.3760  0.0457
  294loPI    C2 4690  15.155   8.329  11.056  0.0555  0.1580  0.0757
  294loPI    C3 4691  15.350   8.382  11.401  0.1990  0.1438 -0.0025
  294loPI   PO4 4692  15.373   8.770  10.943 -0.1188  0.1608 -0.0019
  294loPI   GL1 4693  15.468   8.919  10.504 -0.2253 -0.1154  0.1386
  294loPI   GL2 4694  15.765   8.850  10.403 -0.2274  0.2945 -0.0305
  294loPI   C1A 4695  15.342   8.974  10.052  0.0249 -0.0980  0.3913
  294loPI   C2A 4696  15.313   9.043   9.605  0.0392  0.2175  0.1726
  294loPI   C3A 4697  15.262   8.938   9.127 -0.1490 -0.2246  0.5585
  294loPI   C4A 4698  15.247   8.979   8.641  0.1053  0.0593  0.0517
  294loPI   C5A 4699  15.049   8.838   8.330  0.3478 -0.2888 -0.1337
  294loPI   C6A 4700  14.816   8.524   8.396 -0.3254  0.1779  0.0319
  294loPI   C1B 4701  15.872   8.977  10.023 -0.0618  0.4590  0.2090
  294loPI   C2B 4702  15.862   9.115   9.607 -0.0108  0.1071 -0.0040
  294loPI   C3B 4703  15.761   9.080   9.169  0.1310  0.1495  0.0222
  294loPI   C4B 4704  15.694   8.997   8.723 -0.1561  0.1089  0.2806
  295loPI    C1 4705   5.518   0.916  10.809 -0.2099 -0.1207 -0.0718
  295loPI    C2 4706   5.683   0.594  10.980  0.3303  0.1231 -0.1141
  295loPI    C3 4707   5.606   0.920  11.199  0.0313  0.0629 -0.1256
  295loPI   PO4 4708   5.614   0.872  10.548  0.1355 -0.1397 -0.2125
  295loPI   GL1 4709   5.628   0.871  10.147  0.1737 -0.0797  0.2698
  295loPI   GL2 4710   5.434   1.153  10.042 -0.0625 -0.0895 -0.1132
  295loPI   C1A 4711   5.842   1.035   9.748  0.1597  0.0624  0.2313
  295loPI   C2A 4712   5.843   0.996   9.340 -0.1060 -0.1494 -0.1318
  295loPI   C3A 4713   5.936   1.162   8.928  0.2053 -0.3557  0.0075
  295loPI   C4A 4714   5.997   1.074   8.611  0.0800  0.3960  0.0278
  295loPI   C5A 4715   6.071   1.098   8.198  0.2775  0.0622 -0.1920
  295loPI   C6A 4716   6.105   0.722   7.877  0.0158  0.1058  0.2257
  295loPI   C1B 4717   5.325   1.031   9.681 -0.0305 -0.1414  0.1214
  295loPI   C2B 4718   5.381   1.085   9.347  0.1675 -0.4076  0.2118
  295loPI   C3B 4719   5.475   0.998   8.944  0.1218  0.0024 -0.0967
  295loPI   C4B 4720   5.462   1.060   8.574  0.2096  0.1109  0.1731
  296loPI    C1 4721   3.452  14.584  10.654 -0.0633 -0.0743  0.0229
  296loPI    C2 4722   3.710  14.332  10.481 -0.1927 -0.2166  0.0342
  296loPI    C3 4723   3.593  14.271  10.859 -0.2921 -0.1897  0.0081
  296loPI   PO4 4724   3.205  14.583  10.435  0.4495  0.3509 -0.0104
  296loPI   GL1 4725   3.200  14.351  10.009  0.2298  0.2189  0.1316
  296loPI   GL2 4726   3.037  14.060  10.012  0.0412  0.3625 -0.1215
  296loPI   C1A 4727   3.280  14.509   9.571  0.0239 -0.0832 -0.1108
  296loPI   C2A 4728   3.135  14.511   9.199 -0.0496  0.0917  0.1353
  296loPI   C3A 4729   3.123  14.651   8.757  0.2111  0.0792 -0.3243
  296loPI   C4A 4730   3.109  14.867   8.383  0.2494 -0.1161  0.0289
  296loPI   C5A 4731   3.264  14.839   7.914  0.1892 -0.0564 -0.0779
  296loPI   C6A 4732   3.185  14.990   7.540 -0.1369 -0.0222  0.0789
  296loPI   C1B 4733   3.265  13.968   9.670  0.2913 -0.2573 -0.0026
  296loPI   C2B 4734   3.295  13.972   9.206 -0.3676 -0.0060  0.1910
  296loPI   C3B 4735   3.481  14.307   8.888 -0.0589  0.0253 -0.1804
  296loPI   C4B 4736   3.731  14.094   8.654  0.3483  0.0205 -0.0278
  297loPI    C1 4737   4.929  12.441  11.059  0.0518  0.2003 -0.0836
  297loPI    C2 4738   5.078  12.215  11.354 -0.1566 -0.1713 -0.2556
  297loPI    C3 4739   4.806  12.498  11.435  0.1131  0.0307 -0.0370
  297loPI   PO4 4740   4.845  12.264  10.890 -0.0593  0.1430  0.0557
  297loPI   GL1 4741   5.040  12.001  10.467 -0.2309  0.3459 -0.0111
  297loPI   GL2 4742   5.031  12.260  10.342 -0.0688 -0.2419 -0.0765
  297loPI   C1A 4743   5.091  11.609  10.176 -0.0762  0.1767  0.2879
  297loPI   C2A 4744   4.992  11.540   9.725  0.2513 -0.1052 -0.1890
  297loPI   C3A 4745   4.959  11.383   9.327  0.2410  0.0124  0.0210
  297loPI   C4A 4746   5.111  11.340   8.912  0.2684 -0.1472 -0.0006
  297loPI   C5A 4747   5.036  11.463   8.520  0.0974 -0.1406 -0.2463
  297loPI   C6A 4748   5.100  11.520   8.060 -0.0475  0.0603  0.0446
  297loPI   C1B 4749   5.002  12.408   9.969 -0.2067 -0.0644  0.0273
  297loPI   C2B 4750   4.854  12.498   9.586 -0.0049  0.1176  0.1648
  297loPI   C3B 4751   4.846  12.525   9.196  0.1992 -0.1594 -0.1499
  297loPI   C4B 4752   4.877  12.284   8.794 -0.1726  0.1843  0.1747
  298loPI    C1 4753   7.452  15.184  11.054  0.0082 -0.1319  0.0585
  298loPI    C2 4754   7.301  15.463  11.298  0.0691 -0.0766  0.0329
  298loPI    C3 4755   7.455  15.127  11.450 -0.0023 -0.0952  0.0640
  298loPI   PO4 4756   7.247  15.294  10.791 -0.3711 -0.1111 -0.0201
  298loPI   GL1 4757   7.429  15.396  10.346 -0.0748 -0.1204 -0.0495
  298loPI   GL2 4758   7.692  15.621  10.189  0.2782 -0.0555 -0.0574
  298loPI   C1A 4759   7.205  15.451   9.999 -0.0724  0.0789 -0.4302
  298loPI   C2A 4760   7.252  15.485   9.508 -0.0828  0.2429  0.1392
  298loPI   C3A 4761   7.276  15.309   9.089 -0.1358 -0.0743 -0.0451
  298loPI   C4A 4762   7.328  15.264   8.720 -0.2502  0.4082  0.2207
  298loPI   C5A 4763   7.294  15.309   8.295  0.1709 -0.1499  0.2432
  298loPI   C6A 4764   6.860  15.499   8.167 -0.0694 -0.1857  0.1877
  298loPI   C1B 4765   7.731  15.459   9.745  0.1126 -0.1762  0.0949
  298loPI   C2B 4766   7.760  15.359   9.289 -0.0428  0.0251 -0.5828
  298loPI   C3B 4767   7.819  15.386   8.867 -0.0633  0.0172 -0.0355
  298loPI   C4B 4768   7.882  15.168   8.447 -0.1663 -0.0389 -0.0161
  299loPI    C1 4769  11.337  16.111  10.959 -0.0068  0.0584 -0.0120
  299loPI    C2 4770  11.358  16.502  11.042  0.0579  0.0650 -0.0596
  299loPI    C3 4771  11.537  16.236  11.281 -0.0832  0.0557  0.0367
  299loPI   PO4 4772  11.322  16.171  10.669 -0.1346 -0.4126 -0.3521
  299loPI   GL1 4773  11.474  15.865  10.398  0.3191  0.2615  0.2714
  299loPI   GL2 4774  11.201  15.762  10.273  0.1352 -0.0379  0.0733
  299loPI   C1A 4775  11.528  15.789   9.929  0.1019  0.3309 -0.2208
  299loPI   C2A 4776  11.429  15.706   9.614 -0.1509  0.1526 -0.0120
  299loPI   C3A 4777  11.503  15.704   9.222  0.1570  0.0880 -0.1997
  299loPI   C4A 4778  11.506  15.805   8.755 -0.1435  0.3458 -0.3707
  299loPI   C5A 4779  11.370  15.836   8.296 -0.2794 -0.0790 -0.3467
  299loPI   C6A 4780  11.560  15.905   7.833  0.1209 -0.3709  0.0373
  299loPI   C1B 4781  10.888  15.735   9.969  0.1797 -0.1622 -0.3047
  299loPI   C2B 4782  10.860  15.683   9.566  0.3271  0.0342 -0.1068
  299loPI   C3B 4783  10.942  15.679   9.067  0.1772  0.1139 -0.0736
  299loPI   C4B 4784  10.912  15.698   8.627  0.1301 -0.0820  0.1820
  300loPI    C1 4785  13.128  15.902  10.985 -0.0992 -0.0320  0.0481
  300loPI    C2 4786  13.454  16.115  11.075 -0.0670 -0.0693  0.0206
  300loPI    C3 4787  13.283  15.883  11.353  0.0312 -0.1832 -0.0135
  300loPI   PO4 4788  13.155  15.775  10.768 -0.1210 -0.2138  0.1025
  300loPI   GL1 4789  13.008  15.768  10.376  0.1683  0.0986 -0.1980
  300loPI   GL2 4790  13.098  15.884  10.183 -0.4571 -0.1867 -0.0368
  300loPI   C1A 4791  12.744  15.588  10.142  0.2523  0.1851  0.0101
  300loPI   C2A 4792  12.873  15.435   9.630  0.0436  0.3273  0.5514
  300loPI   C3A 4793  12.761  15.446   9.198 -0.0713 -0.0105 -0.0194
  300loPI   C4A 4794  12.734  15.463   8.731 -0.3266 -0.1172 -0.0057
  300loPI   C5A 4795  12.913  15.395   8.358 -0.1101 -0.0577  0.0887
  300loPI   C6A 4796  13.166  15.533   7.902  0.1731  0.1325 -0.1819
  300loPI   C1B 4797  12.985  15.950   9.731  0.1395 -0.3342 -0.0035
  300loPI   C2B 4798  12.974  15.991   9.264 -0.3381 -0.2785 -0.0619
  300loPI   C3B 4799  13.033  15.964   8.766 -0.1792  0.3483  0.0928
  300loPI   C4B 4800  13.247  15.796   8.397  0.2456 -0.0196 -0.2349
  301loPI    C1 4801  13.994   4.562  10.879 -0.1007 -0.1212  0.2253
  301loPI    C2 4802  13.874   4.814  11.166  0.4330  0.2394  0.1486
  301loPI    C3 4803  14.190   4.576  11.228  0.0777 -0.2532  0.1323
  301loPI   PO4 4804  13.848   4.518  10.707  0.2114  0.3187  0.3728
  301loPI   GL1 4805  13.767   4.271  10.383 -0.0157  0.0119  0.0030
  301loPI   GL2 4806  14.058   4.136  10.463  0.3522  0.2195  0.1265
  301loPI   C1A 4807  13.693   4.315   9.883  0.4022 -0.2457  0.1331
  301loPI   C2A 4808  13.692   4.211   9.570  0.1284 -0.0275  0.0044
  301loPI   C3A 4809  13.589   4.242   9.067  0.0796 -0.1728  0.1037
  301loPI   C4A 4810  13.602   4.212   8.549 -0.1634  0.2175  0.1402
  301loPI   C5A 4811  13.479   3.999   8.104  0.0209  0.0589 -0.0696
  301loPI   C6A 4812  13.086   3.976   7.884 -0.1549  0.2882  0.3956
  301loPI   C1B 4813  14.055   4.033  10.074 -0.1282  0.1852 -0.0347
  301loPI   C2B 4814  14.035   3.889   9.718  0.4401  0.0533  0.0374
  301loPI   C3B 4815  13.921   3.826   9.180 -0.0552  0.0002  0.0248
  301loPI   C4B 4816  13.838   3.808   8.741  0.1432 -0.4465  0.2805
  302loPI    C1 4817   7.269  13.985  11.027 -0.2285 -0.0175  0.2677
  302loPI    C2 4818   7.536  14.213  11.218 -0.0693 -0.0656  0.1052
  302loPI    C3 4819   7.216  14.075  11.414 -0.1742  0.3039  0.2035
  302loPI   PO4 4820   7.452  13.811  10.832  0.1087 -0.0824  0.0957
  302loPI   GL1 4821   7.519  13.689  10.385  0.1444  0.0270 -0.0455
  302loPI   GL2 4822   7.718  14.007  10.278  0.0731 -0.0342  0.0016
  302loPI   C1A 4823   7.423  13.618   9.884  0.0163  0.0829  0.5692
  302loPI   C2A 4824   7.381  13.527   9.454  0.2650 -0.1430  0.1275
  302loPI   C3A 4825   7.415  13.429   9.000 -0.1375  0.0811 -0.3456
  302loPI   C4A 4826   7.332  13.370   8.555 -0.2478 -0.0113 -0.1496
  302loPI   C5A 4827   7.618  13.470   8.241  0.1376  0.2120  0.0335
  302loPI   C6A 4828   7.883  13.737   8.032 -0.2745  0.2443 -0.0387
  302loPI   C1B 4829   7.643  14.060   9.759  0.0726  0.2312 -0.0837
  302loPI   C2B 4830   7.664  13.964   9.272 -0.3005 -0.3905 -0.2774
  302loPI   C3B 4831   7.669  13.842   8.793 -0.1187  0.1673  0.5878
  302loPI   C4B 4832   7.504  13.951   8.350 -0.2075 -0.0203 -0.1283
  303loPI    C1 4833  15.355   5.561  11.052  0.1011  0.0568 -0.2343
  303loPI    C2 4834  15.574   5.373  10.775  0.0824  0.0176 -0.2225
  303loPI    C3 4835  15.612   5.275  11.161 -0.0004 -0.0321 -0.2269
  303loPI   PO4 4836  15.084   5.605  10.910  0.1026  0.1973 -0.5604
  303loPI   GL1 4837  14.982   5.485  10.483  0.0877 -0.0362  0.1597
  303loPI   GL2 4838  15.037   5.700  10.441  0.1418 -0.3146 -0.0299
  303loPI   C1A 4839  14.798   5.252  10.198  0.0187  0.2372  0.1138
  303loPI   C2A 4840  14.683   5.209   9.739 -0.1295  0.0584 -0.0620
  303loPI   C3A 4841  14.629   5.211   9.290 -0.0789  0.0912 -0.0762
  303loPI   C4A 4842  14.547   5.272   8.878  0.2543  0.0458 -0.0026
  303loPI   C5A 4843  14.665   5.465   8.464  0.1332  0.1396  0.0794
  303loPI   C6A 4844  14.846   5.798   8.246 -0.0788 -0.1962 -0.3272
  303loPI   C1B 4845  14.969   5.813  10.040 -0.2190 -0.0871 -0.1237
  303loPI   C2B 4846  14.727   5.670   9.577 -0.0317 -0.1822 -0.2085
  303loPI   C3B 4847  14.799   5.767   9.194 -0.1819 -0.2449 -0.0707
  303loPI   C4B 4848  14.779   5.775   8.816 -0.2252  0.0523 -0.0021
  304loPI    C1 4849  17.081  11.760  10.467  0.1362 -0.0301  0.0161
  304loPI    C2 4850  17.315  11.438  10.507  0.2702  0.0540 -0.0820
  304loPI    C3 4851  17.466  11.778  10.358  0.0956  0.1217 -0.1071
  304loPI   PO4 4852  16.867  11.602  10.422 -0.0217 -0.3838 -0.2062
  304loPI   GL1 4853  16.707  11.340  10.070 -0.3917  0.2646  0.1033
  304loPI   GL2 4854  16.550  11.597   9.983 -0.1166  0.0708 -0.2928
  304loPI   C1A 4855  16.830  11.332   9.653 -0.2169 -0.2993  0.1887
  304loPI   C2A 4856  16.868  11.400   9.138 -0.0944 -0.0547  0.1219
  304loPI   C3A 4857  16.853  11.416   8.649 -0.0270 -0.2067  0.1489
  304loPI   C4A 4858  16.888  11.325   8.157  0.2501 -0.1048  0.2705
  304loPI   C5A 4859  16.886  11.604   7.745  0.0584 -0.2459  0.0586
  304loPI   C6A 4860  16.921  11.973   7.425 -0.0038  0.5667 -0.3436
  304loPI   C1B 4861  16.613  11.728   9.566 -0.1304  0.1102 -0.2115
  304loPI   C2B 4862  16.525  11.893   9.177  0.1775 -0.0621  0.3324
  304loPI   C3B 4863  16.623  11.827   8.743  0.1864  0.1689  0.0044
  304loPI   C4B 4864  16.533  11.800   8.327  0.0042  0.3933 -0.0886
  305loPI    C1 4865   6.593  16.660  10.686  0.1630  0.0253 -0.0932
  305loPI    C2 4866   6.829  16.870  10.441  0.1937  0.0411 -0.0501
  305loPI    C3 4867   6.913  16.850  10.831  0.0226  0.1964 -0.0034
  305loPI   PO4 4868   6.345  16.723  10.530 -0.0080  0.2571  0.1615
  305loPI   GL1 4869   6.240  16.901  10.081 -0.0856 -0.1705  0.0949
  305loPI   GL2 4870   6.450  17.124  10.131  0.0880 -0.2436  0.1706
  305loPI   C1A 4871   6.261  16.634   9.757 -0.0889 -0.1243 -0.1700
  305loPI   C2A 4872   6.322  16.660   9.341  0.0382  0.1043  0.1286
  305loPI   C3A 4873   6.332  16.627   8.986  0.0417  0.1571  0.0236
  305loPI   C4A 4874   6.309  16.497   8.545  0.1099 -0.1678 -0.4616
  305loPI   C5A 4875   6.358  16.468   8.146  0.0949  0.1588  0.2056
  305loPI   C6A 4876   6.691  16.491   7.962 -0.2006  0.2052 -0.3140
  305loPI   C1B 4877   6.435  17.158   9.649 -0.1893  0.1533 -0.1636
  305loPI   C2B 4878   6.565  17.119   9.173  0.1432 -0.2472 -0.0672
  305loPI   C3B 4879   6.539  17.105   8.719 -0.1692  0.2262  0.0554
  305loPI   C4B 4880   6.518  16.933   8.294 -0.1394  0.1122  0.1326
  306loPI    C1 4881   7.172   0.027  10.769  0.0656  0.2334 -0.0896
  306loPI    C2 4882   7.288   0.265  11.069  0.1391  0.2183 -0.1058
  306loPI    C3 4883   7.164  -0.107  11.146  0.3103  0.1596 -0.1090
  306loPI   PO4 4884   7.264   0.111  10.596  0.0251  0.0308  0.0108
  306loPI   GL1 4885   7.514   0.042  10.175 -0.1454 -0.0587  0.2284
  306loPI   GL2 4886   7.589   0.365  10.240  0.0800  0.0691 -0.0374
  306loPI   C1A 4887   7.402  -0.130   9.803 -0.1745 -0.1445 -0.0567
  306loPI   C2A 4888   7.342  -0.145   9.400 -0.0546  0.1957  0.1858
  306loPI   C3A 4889   7.207  -0.225   9.060  0.2422 -0.2455 -0.0345
  306loPI   C4A 4890   7.403  -0.225   8.609  0.5162 -0.0718  0.1798
  306loPI   C5A 4891   7.402  -0.083   8.163  0.2786 -0.2263  0.0120
  306loPI   C6A 4892   7.227  -0.335   7.840 -0.1285  0.1861  0.6217
  306loPI   C1B 4893   7.582   0.381   9.771  0.1400  0.0555  0.3245
  306loPI   C2B 4894   7.590   0.447   9.353 -0.1179  0.1662 -0.0391
  306loPI   C3B 4895   7.579   0.436   8.949  0.1568  0.4969 -0.3846
  306loPI   C4B 4896   7.541   0.231   8.557 -0.1172 -0.0030  0.2763
  307loPI    C1 4897   0.459   2.336  10.296  0.1646  0.0859  0.0584
  307loPI    C2 4898   0.746   2.311  10.573  0.1858  0.3074  0.0583
  307loPI    C3 4899   0.361   2.300  10.682  0.1895 -0.1458  0.0445
  307loPI   PO4 4900   0.670   2.258  10.074 -0.1302 -0.0486 -0.2889
  307loPI   GL1 4901   0.708   2.236   9.727 -0.1257  0.0792  0.0623
  307loPI   GL2 4902   0.642   1.911   9.600  0.1425  0.1293  0.4969
  307loPI   C1A 4903   0.921   2.443   9.341 -0.2142 -0.3258 -0.0199
  307loPI   C2A 4904   1.010   2.494   8.899  0.2249  0.2678 -0.2195
  307loPI   C3A 4905   1.102   2.446   8.431 -0.2172 -0.0205 -0.3396
  307loPI   C4A 4906   1.137   2.557   8.040 -0.1461 -0.3143  0.4304
  307loPI   C5A 4907   1.273   2.210   7.784 -0.0306  0.1430  0.0998
  307loPI   C6A 4908   1.497   1.823   7.778 -0.1163 -0.1577 -0.0271
  307loPI   C1B 4909   0.763   1.942   9.180  0.1020 -0.1491 -0.3003
  307loPI   C2B 4910   0.862   2.016   8.794 -0.0123 -0.0811  0.1320
  307loPI   C3B 4911   0.891   1.972   8.395 -0.2744 -0.2059  0.0049
  307loPI   C4B 4912   0.952   1.900   7.942  0.1456  0.0632 -0.3080
  308loPI    C1 4913  12.609  15.333  11.084  0.0750 -0.1337 -0.0586
  308loPI    C2 4914  12.981  15.440  11.187  0.0602 -0.2464  0.1169
  308loPI    C3 4915  12.698  15.719  11.140  0.1945 -0.1493 -0.1373
  308loPI   PO4 4916  12.607  15.149  10.832 -0.2177  0.1283 -0.1799
  308loPI   GL1 4917  12.628  15.087  10.396 -0.4456  0.1467  0.1529
  308loPI   GL2 4918  12.714  14.787  10.530  0.0314 -0.1936  0.0623
  308loPI   C1A 4919  12.558  15.004  10.046 -0.1356  0.0243 -0.1859
  308loPI   C2A 4920  12.604  15.011   9.583  0.0111  0.2903  0.1094
  308loPI   C3A 4921  12.626  14.977   9.189 -0.2507 -0.2301 -0.1390
  308loPI   C4A 4922  12.540  14.933   8.720  0.2048  0.3395 -0.0361
  308loPI   C5A 4923  12.360  14.948   8.314  0.0550 -0.0518 -0.1386
  308loPI   C6A 4924  12.141  15.052   8.060 -0.0644  0.2015 -0.0649
  308loPI   C1B 4925  12.919  14.604  10.205 -0.1127  0.2027 -0.1765
  308loPI   C2B 4926  12.867  14.622   9.855  0.1821  0.3022 -0.1392
  308loPI   C3B 4927  12.956  14.601   9.395 -0.1018 -0.3426 -0.1497
  308loPI   C4B 4928  12.912  14.642   9.006  0.1962 -0.0363 -0.0081
  309loPI    C1 4929  11.917   8.615  10.847 -0.1829 -0.0507 -0.1752
  309loPI    C2 4930  11.589   8.828  10.763 -0.1973  0.0112  0.0317
  309loPI    C3 4931  11.763   8.863  11.121 -0.0320 -0.1097 -0.0358
  309loPI   PO4 4932  12.003   8.619  10.628  0.4360  0.0757 -0.1308
  309loPI   GL1 4933  12.179   8.405  10.394 -0.1378  0.0156 -0.0770
  309loPI   GL2 4934  12.060   8.115  10.463  0.1618 -0.1000 -0.5265
  309loPI   C1A 4935  12.075   8.647   9.962  0.2506 -0.1122  0.0366
  309loPI   C2A 4936  12.120   8.656   9.531 -0.1429  0.0284 -0.1224
  309loPI   C3A 4937  12.187   8.609   9.154 -0.0870 -0.2175 -0.0106
  309loPI   C4A 4938  12.131   8.722   8.762  0.3013  0.2818 -0.1586
  309loPI   C5A 4939  11.783   8.656   8.532  0.0869 -0.1028 -0.3226
  309loPI   C6A 4940  11.457   8.652   8.180  0.0117 -0.1091 -0.3248
  309loPI   C1B 4941  11.862   8.177  10.056  0.2065 -0.4708 -0.1652
  309loPI   C2B 4942  11.921   8.155   9.646  0.3575  0.0246 -0.3099
  309loPI   C3B 4943  11.899   8.192   9.261  0.0512 -0.3001 -0.0800
  309loPI   C4B 4944  11.956   8.177   8.835  0.0278  0.4052  0.1741
  310loPI    C1 4945   3.730   7.849  10.648  0.0494  0.1058  0.0278
  310loPI    C2 4946   3.640   8.094  10.951 -0.1052 -0.1925  0.2269
  310loPI    C3 4947   3.981   8.145  10.748 -0.0937  0.1307  0.3219
  310loPI   PO4 4948   3.478   7.864  10.510  0.1725  0.1411  0.1204
  310loPI   GL1 4949   3.505   8.034  10.098  0.3255 -0.1715 -0.1017
  310loPI   GL2 4950   3.342   8.298  10.046 -0.3081 -0.0858 -0.0060
  310loPI   C1A 4951   3.595   8.007   9.668  0.3055 -0.1735 -0.0085
  310loPI   C2A 4952   3.594   8.071   9.277  0.1182  0.2383  0.3672
  310loPI   C3A 4953   3.614   8.042   8.860  0.1538  0.1198  0.4026
  310loPI   C4A 4954   3.558   8.091   8.369  0.1086  0.0527 -0.2506
  310loPI   C5A 4955   3.296   8.394   8.079  0.0051 -0.1303  0.0692
  310loPI   C6A 4956   3.136   8.553   7.736  0.1562  0.4443 -0.1703
  310loPI   C1B 4957   3.320   8.530   9.726  0.1912 -0.0112  0.1636
  310loPI   C2B 4958   3.308   8.482   9.307  0.1298 -0.2305  0.0770
  310loPI   C3B 4959   3.322   8.485   8.984 -0.0827  0.2298  0.2904
  310loPI   C4B 4960   3.173   8.375   8.613  0.1229 -0.0516 -0.0553
  311loPI    C1 4961  15.561   6.957  10.892 -0.1649 -0.0744  0.1388
  311loPI    C2 4962  15.681   6.599  11.023  0.2712 -0.0977 -0.2922
  311loPI    C3 4963  15.829   6.932  11.188 -0.1078 -0.1077  0.0848
  311loPI   PO4 4964  15.555   6.914  10.679  0.2466  0.0514  0.1958
  311loPI   GL1 4965  15.548   6.808  10.314 -0.1434 -0.3116 -0.3488
  311loPI   GL2 4966  15.449   7.084  10.206 -0.0444 -0.3699 -0.1037
  311loPI   C1A 4967  15.326   6.719   9.969 -0.1035 -0.0085  0.0591
  311loPI   C2A 4968  15.272   6.778   9.549  0.1997 -0.0308 -0.0901
  311loPI   C3A 4969  15.227   6.630   9.087 -0.3084 -0.1267  0.2630
  311loPI   C4A 4970  15.237   6.661   8.708 -0.0889 -0.0787 -0.0578
  311loPI   C5A 4971  15.348   6.828   8.265 -0.1414 -0.0106  0.4182
  311loPI   C6A 4972  15.546   7.183   8.147  0.2203 -0.2164 -0.1801
  311loPI   C1B 4973  15.528   7.304   9.785 -0.2371  0.2146 -0.0171
  311loPI   C2B 4974  15.517   7.209   9.357  0.0189  0.0777  0.1667
  311loPI   C3B 4975  15.468   7.207   8.973  0.3245  0.3467 -0.0672
  311loPI   C4B 4976  15.381   7.097   8.682 -0.0609 -0.0494  0.1808
  312loPI    C1 4977   7.481  13.050  10.892  0.0410 -0.1596  0.1415
  312loPI    C2 4978   7.520  13.417  11.047  0.0039 -0.0877 -0.0175
  312loPI    C3 4979   7.555  13.096  11.283 -0.0983  0.0212  0.1480
  312loPI   PO4 4980   7.556  13.045  10.606  0.1721 -0.1687  0.0188
  312loPI   GL1 4981   7.395  12.836  10.334 -0.0247  0.0299 -0.0078
  312loPI   GL2 4982   7.289  13.174  10.148 -0.2627 -0.2474 -0.2264
  312loPI   C1A 4983   7.466  12.559   9.917  0.0132 -0.1119 -0.1441
  312loPI   C2A 4984   7.505  12.596   9.441 -0.0386  0.0649 -0.0290
  312loPI   C3A 4985   7.546  12.549   8.985 -0.0536  0.1002 -0.0719
  312loPI   C4A 4986   7.539  12.627   8.482  0.3696  0.1537  0.0800
  312loPI   C5A 4987   7.431  12.995   8.140 -0.2287 -0.0668 -0.1529
  312loPI   C6A 4988   7.132  13.370   8.025  0.2361  0.1379 -0.3291
  312loPI   C1B 4989   7.302  13.060   9.755 -0.0437  0.1348  0.1568
  312loPI   C2B 4990   7.210  13.065   9.266 -0.1198  0.1187  0.2221
  312loPI   C3B 4991   7.229  12.958   8.881 -0.1833  0.0929 -0.0663
  312loPI   C4B 4992   7.038  12.988   8.445  0.2490  0.1965  0.1486
  313loPI    C1 4993   8.648  11.167  11.018  0.1020  0.0937  0.0551
  313loPI    C2 4994   8.867  11.198  11.352  0.1564 -0.1303  0.0417
  313loPI    C3 4995   8.473  11.129  11.376  0.1499 -0.0869  0.0603
  313loPI   PO4 4996   8.580  11.325  10.738 -0.0677  0.0330  0.1304
  313loPI   GL1 4997   8.397  11.259  10.349 -0.2516 -0.0963 -0.1393
  313loPI   GL2 4998   8.186  11.030  10.512 -0.2085 -0.2263 -0.2210
  313loPI   C1A 4999   8.372  11.371   9.913 -0.0378  0.1267 -0.0126
  313loPI   C2A 5000   8.431  11.248   9.468  0.0458  0.2221  0.4721
  313loPI   C3A 5001   8.430  11.412   9.011  0.1163  0.0068 -0.2260
  313loPI   C4A 5002   8.287  11.269   8.674  0.3378 -0.3276  0.0250
  313loPI   C5A 5003   8.205  10.839   8.542 -0.0863 -0.1811  0.3885
  313loPI   C6A 5004   8.025  10.661   8.214 -0.2519  0.1366  0.1852
  313loPI   C1B 5005   8.298  10.793  10.236 -0.3014 -0.4402  0.1345
  313loPI   C2B 5006   8.288  10.849   9.879 -0.1867  0.1067  0.2252
  313loPI   C3B 5007   8.191  10.795   9.418 -0.2476  0.1532  0.0640
  313loPI   C4B 5008   8.199  10.945   9.054 -0.1521  0.3963 -0.1282
  314loPI    C1 5009   2.704  17.366  10.338  0.0091  0.1112 -0.2173
  314loPI    C2 5010   2.825  17.090  10.076 -0.0359 -0.0039 -0.1182
  314loPI    C3 5011   3.083  17.365  10.211  0.0559 -0.1072 -0.0813
  314loPI   PO4 5012   2.465  17.393  10.244 -0.2670 -0.4964  0.0942
  314loPI   GL1 5013   2.469  17.348   9.786 -0.0913  0.1794  0.3366
  314loPI   GL2 5014   2.751  17.548   9.826 -0.0204 -0.3540 -0.4229
  314loPI   C1A 5015   2.598  17.241   9.370 -0.2269 -0.2976 -0.0198
  314loPI   C2A 5016   2.563  17.137   8.912  0.2519 -0.0310  0.1946
  314loPI   C3A 5017   2.559  17.144   8.493  0.1818  0.1229 -0.0335
  314loPI   C4A 5018   2.716  17.244   8.172 -0.0776 -0.0361 -0.1046
  314loPI   C5A 5019   2.962  17.342   7.695  0.0124 -0.2499 -0.1013
  314loPI   C6A 5020   3.299  17.317   7.688  0.2298 -0.0195 -0.1645
  314loPI   C1B 5021   2.753  17.706   9.435  0.1551 -0.1821  0.0033
  314loPI   C2B 5022   2.700  17.665   8.944  0.0566  0.1576  0.1419
  314loPI   C3B 5023   2.788  17.636   8.460  0.1971  0.0560  0.1715
  314loPI   C4B 5024   2.862  17.740   8.048 -0.1641  0.1487  0.0581
  315loPI    C1 5025   0.800  15.493  10.445  0.1240  0.1600  0.0262
  315loPI    C2 5026   0.510  15.234  10.536  0.1145  0.1335 -0.0781
  315loPI    C3 5027   0.862  15.214  10.725  0.1340  0.0070 -0.1268
  315loPI   PO4 5028   0.807  15.495  10.195  0.3350 -0.2535  0.2150
  315loPI   GL1 5029   0.814  15.354   9.724 -0.2023  0.2400  0.0988
  315loPI   GL2 5030   0.953  15.114   9.609  0.1300  0.0295 -0.1919
  315loPI   C1A 5031   0.820  15.549   9.409  0.2939  0.1657  0.1133
  315loPI   C2A 5032   0.806  15.454   8.985 -0.1274 -0.1061 -0.0760
  315loPI   C3A 5033   0.760  15.588   8.665  0.0640 -0.2367 -0.0123
  315loPI   C4A 5034   0.875  15.559   8.292  0.0721  0.2707  0.0812
  315loPI   C5A 5035   0.992  15.575   7.817  0.2023  0.3998  0.1720
  315loPI   C6A 5036   0.806  15.896   7.743 -0.2935 -0.0121  0.2976
  315loPI   C1B 5037   1.091  15.104   9.187 -0.0149 -0.0579  0.0722
  315loPI   C2B 5038   1.149  15.121   8.856 -0.0890  0.0920 -0.1921
  315loPI   C3B 5039   1.055  15.110   8.482 -0.2109 -0.3455  0.0520
  315loPI   C4B 5040   1.112  15.155   8.045 -0.1624  0.1874  0.2007
  316loPI    C1 5041  10.669  17.237  11.037 -0.1146  0.2378 -0.0067
  316loPI    C2 5042  11.037  17.370  11.122  0.0703 -0.2500 -0.0175
  316loPI    C3 5043  10.728  17.479  11.350  0.2697 -0.0786  0.1747
  316loPI   PO4 5044  10.636  17.247  10.748 -0.0526  0.0080  0.0779
  316loPI   GL1 5045  10.451  17.246  10.419 -0.0141 -0.2140 -0.1323
  316loPI   GL2 5046  10.652  17.545  10.213  0.2465 -0.1423 -0.0850
  316loPI   C1A 5047  10.417  17.087  10.053  0.0416  0.1288 -0.0179
  316loPI   C2A 5048  10.503  17.008   9.594  0.1243  0.0753 -0.1636
  316loPI   C3A 5049  10.546  17.051   9.170  0.2806  0.0777  0.2033
  316loPI   C4A 5050  10.490  17.094   8.746 -0.0832 -0.3198 -0.2008
  316loPI   C5A 5051  10.621  16.972   8.398 -0.2584  0.0974 -0.0298
  316loPI   C6A 5052  10.988  16.955   8.228  0.1040 -0.1295 -0.1495
  316loPI   C1B 5053  10.603  17.528   9.846  0.0202  0.0696 -0.0389
  316loPI   C2B 5054  10.673  17.495   9.428 -0.1349 -0.0891 -0.0548
  316loPI   C3B 5055  10.652  17.520   8.938 -0.0023 -0.1044  0.1522
  316loPI   C4B 5056  10.753  17.639   8.543  0.0413  0.0958 -0.0678
  317loPI    C1 5057  14.894   3.126  10.586 -0.1126 -0.1352  0.0584
  317loPI    C2 5058  14.812   2.867  10.880 -0.1833 -0.1478  0.0280
  317loPI    C3 5059  14.981   3.220  10.965 -0.3614 -0.0797  0.1035
  317loPI   PO4 5060  14.634   3.235  10.436  0.1549 -0.0783 -0.1967
  317loPI   GL1 5061  14.575   3.098  10.036  0.0167  0.0666  0.1508
  317loPI   GL2 5062  14.196   3.127  10.170  0.2607 -0.0700  0.3941
  317loPI   C1A 5063  14.601   3.073   9.568 -0.2232  0.0302 -0.0550
  317loPI   C2A 5064  14.615   3.010   9.150 -0.3323 -0.2415  0.2246
  317loPI   C3A 5065  14.640   2.948   8.680  0.5045 -0.0398  0.0944
  317loPI   C4A 5066  14.499   2.974   8.243 -0.0898 -0.1112 -0.0048
  317loPI   C5A 5067  14.483   3.271   7.795  0.1030  0.1917  0.2468
  317loPI   C6A 5068  14.307   3.479   7.506  0.0142 -0.1611  0.2363
  317loPI   C1B 5069  14.121   2.971   9.775 -0.3104 -0.2858 -0.0785
  317loPI   C2B 5070  14.150   2.975   9.327 -0.3613 -0.3697 -0.1354
  317loPI   C3B 5071  14.136   2.863   8.830  0.0586 -0.0122 -0.0074
  317loPI   C4B 5072  14.082   2.869   8.438 -0.0417 -0.0638 -0.3370
  318loPI    C1 5073  15.730  17.306  10.826  0.1220 -0.0230 -0.1566
  318loPI    C2 5074  16.099  17.452  10.879  0.1298 -0.0910 -0.0183
  318loPI    C3 5075  15.935  17.215  11.157 -0.1528  0.2200  0.0871
  318loPI   PO4 5076  15.745  17.314  10.481 -0.0390 -0.2259  0.1615
  318loPI   GL1 5077  15.491  17.426  10.125  0.0943 -0.3419  0.0648
  318loPI   GL2 5078  15.461  17.175   9.892  0.3651 -0.0731  0.0652
  318loPI   C1A 5079  15.569  17.666   9.814 -0.0873 -0.0768 -0.0742
  318loPI   C2A 5080  15.625  17.745   9.419 -0.1305 -0.1950 -0.1683
  318loPI   C3A 5081  15.529  17.705   9.021  0.0464  0.0846  0.1356
  318loPI   C4A 5082  15.542  17.775   8.626 -0.0334 -0.3443  0.0815
  318loPI   C5A 5083  15.672  17.943   8.241 -0.1153  0.0801 -0.1163
  318loPI   C6A 5084  15.518  18.114   7.807 -0.1268  0.0953 -0.1043
  318loPI   C1B 5085  15.411  17.176   9.492  0.1163  0.2924  0.1834
  318loPI   C2B 5086  15.387  17.183   9.087 -0.3096 -0.2096  0.4043
  318loPI   C3B 5087  15.376  17.259   8.629 -0.1611 -0.0849 -0.1158
  318loPI   C4B 5088  15.325  17.551   8.254 -0.0549 -0.1317 -0.0245
  319loPI    C1 5089  10.679   3.909  11.109 -0.1386 -0.1997 -0.2567
  319loPI    C2 5090  10.815   3.696  11.420 -0.0660  0.3303  0.0874
  319loPI    C3 5091  10.453   3.619  11.267 -0.0053 -0.0917  0.1441
  319loPI   PO4 5092  10.835   3.916  10.956 -0.0157 -0.0552 -0.3350
  319loPI   GL1 5093  11.065   3.774  10.552 -0.1108 -0.1375  0.0243
  319loPI   GL2 5094  11.087   4.073  10.531  0.1231  0.0075  0.0534
  319loPI   C1A 5095  11.058   3.510  10.135 -0.1617  0.1352  0.4819
  319loPI   C2A 5096  11.020   3.497   9.701  0.3638  0.0250  0.2153
  319loPI   C3A 5097  11.000   3.391   9.324  0.0314 -0.1515  0.2282
  319loPI   C4A 5098  10.960   3.351   8.873  0.0487  0.2721 -0.4612
  319loPI   C5A 5099  10.624   3.381   8.571  0.1810  0.0677  0.2786
  319loPI   C6A 5100  10.170   3.336   8.392  0.2472  0.3057 -0.1112
  319loPI   C1B 5101  11.269   4.002  10.206  0.1441 -0.1349 -0.1483
  319loPI   C2B 5102  11.230   4.079   9.792 -0.5462 -0.1243 -0.2584
  319loPI   C3B 5103  11.157   3.926   9.479  0.0187 -0.0349  0.0162
  319loPI   C4B 5104  11.178   3.788   9.082  0.2967  0.0673 -0.2469
  320loPI    C1 5105   3.316   9.731  10.733  0.1282 -0.2014  0.0367
  320loPI    C2 5106   3.230  10.000  11.016  0.1245 -0.1310 -0.0309
  320loPI    C3 5107   3.321   9.624  11.118 -0.0972 -0.1637  0.0515
  320loPI   PO4 5108   3.129   9.667  10.478 -0.0313 -0.0110  0.1351
  320loPI   GL1 5109   3.183   9.600  10.006  0.0051 -0.0805 -0.1738
  320loPI   GL2 5110   2.911   9.892   9.937  0.2000 -0.0467 -0.0739
  320loPI   C1A 5111   3.215   9.494   9.572  0.2877  0.0968  0.1885
  320loPI   C2A 5112   3.198   9.361   9.122  0.2104 -0.0947  0.1496
  320loPI   C3A 5113   3.231   9.354   8.641  0.0188 -0.2980 -0.0796
  320loPI   C4A 5114   3.151   9.245   8.250  0.1315  0.0964  0.4625
  320loPI   C5A 5115   3.125   9.100   7.831 -0.0118  0.0551  0.0466
  320loPI   C6A 5116   3.138   8.864   7.368 -0.0270 -0.0249 -0.1161
  320loPI   C1B 5117   2.904   9.862   9.528  0.2215  0.0807  0.2722
  320loPI   C2B 5118   2.931   9.774   9.091 -0.0007  0.3093 -0.0103
  320loPI   C3B 5119   2.927   9.704   8.634  0.1090  0.1386 -0.0375
  320loPI   C4B 5120   3.144   9.765   8.227  0.1841  0.0092  0.1909
  321loPI    C1 5121   8.867   7.159  10.995 -0.0499  0.0062 -0.0968
  321loPI    C2 5122   8.755   6.808  11.149 -0.0482  0.1335  0.2025
  321loPI    C3 5123   9.128   6.939  11.203  0.0321  0.0588 -0.1435
  321loPI   PO4 5124   8.771   7.143  10.802 -0.0669  0.0067  0.0630
  321loPI   GL1 5125   8.580   7.152  10.418 -0.0038  0.1472 -0.1340
  321loPI   GL2 5126   8.289   7.157  10.591  0.0138 -0.0533  0.2041
  321loPI   C1A 5127   8.596   7.332   9.979 -0.2090  0.0693  0.1881
  321loPI   C2A 5128   8.709   7.275   9.512 -0.0353 -0.0609  0.0255
  321loPI   C3A 5129   8.601   7.281   9.020  0.2320  0.0065  0.0114
  321loPI   C4A 5130   8.705   7.318   8.590 -0.1176  0.0338  0.2201
  321loPI   C5A 5131   8.702   7.022   8.128  0.3188 -0.3055  0.1398
  321loPI   C6A 5132   8.669   6.686   7.995  0.1511  0.0517  0.1912
  321loPI   C1B 5133   8.072   7.178  10.130  0.0129 -0.1369  0.1554
  321loPI   C2B 5134   8.043   7.262   9.767 -0.2915  0.0665  0.2360
  321loPI   C3B 5135   8.144   7.154   9.334  0.0100  0.1474  0.3456
  321loPI   C4B 5136   8.146   7.085   8.921  0.0110  0.1030 -0.2072
  322loPI    C1 5137   4.292  12.575  10.758 -0.2742  0.0384 -0.2545
  322loPI    C2 5138   4.101  12.723  11.076 -0.0663 -0.0022 -0.1087
  322loPI    C3 5139   4.345  12.409  11.118  0.0816  0.0885 -0.2801
  322loPI   PO4 5140   4.066  12.447  10.528 -0.3722  0.3779 -0.1493
  322loPI   GL1 5141   3.975  12.255  10.117  0.1698  0.2268 -0.1022
  322loPI   GL2 5142   4.104  11.981  10.278 -0.0619  0.0396 -0.0547
  322loPI   C1A 5143   3.840  12.379   9.748  0.2615  0.3461  0.1677
  322loPI   C2A 5144   3.778  12.309   9.244 -0.1911  0.0192 -0.0309
  322loPI   C3A 5145   3.864  12.253   8.880 -0.1423 -0.0840  0.0566
  322loPI   C4A 5146   3.915  12.091   8.594  0.1759  0.0764 -0.1399
  322loPI   C5A 5147   3.870  12.086   8.153  0.4499  0.0699  0.1957
  322loPI   C6A 5148   3.750  11.969   7.759 -0.0281  0.2170 -0.0471
  322loPI   C1B 5149   4.194  11.847   9.874 -0.1406 -0.1084 -0.0090
  322loPI   C2B 5150   4.117  11.800   9.422 -0.2279 -0.0330 -0.0725
  322loPI   C3B 5151   4.053  11.779   8.990 -0.2114  0.0363 -0.1307
  322loPI   C4B 5152   4.292  11.730   8.713 -0.1841  0.1486  0.2727
  323loPI    C1 5153   3.682   6.392  10.490 -0.1121  0.3231  0.1381
  323loPI    C2 5154   3.544   6.191  10.807  0.1890 -0.0567  0.0366
  323loPI    C3 5155   3.919   6.328  10.806  0.0970  0.2006 -0.0412
  323loPI   PO4 5156   3.691   6.230  10.318  0.1601  0.1240 -0.0632
  323loPI   GL1 5157   3.825   6.208   9.893  0.0121  0.0328 -0.1556
  323loPI   GL2 5158   4.090   5.925   9.798  0.1377 -0.1557 -0.2968
  323loPI   C1A 5159   3.732   6.364   9.503 -0.0596 -0.1878  0.1545
  323loPI   C2A 5160   3.786   6.299   9.083 -0.1823 -0.1089  0.0274
  323loPI   C3A 5161   3.809   6.215   8.779 -0.0516 -0.1364  0.2188
  323loPI   C4A 5162   3.739   6.205   8.278  0.0434 -0.0087  0.1166
  323loPI   C5A 5163   3.876   6.033   7.863 -0.1321 -0.3643 -0.1058
  323loPI   C6A 5164   4.125   6.195   7.548  0.0694  0.0686 -0.0793
  323loPI   C1B 5165   4.111   5.944   9.297  0.0170 -0.0139  0.3090
  323loPI   C2B 5166   4.163   5.883   8.869  0.1872 -0.1499  0.0261
  323loPI   C3B 5167   4.072   5.766   8.355 -0.0911  0.0081  0.0562
  323loPI   C4B 5168   4.035   5.530   8.027 -0.0603  0.1308  0.0745
  324loPI    C1 5169   2.977  12.640  10.631  0.0865  0.1004 -0.2622
  324loPI    C2 5170   3.274  12.492  10.409  0.1666  0.0326 -0.1113
  324loPI    C3 5171   3.231  12.374  10.788 -0.0577  0.0367 -0.1345
  324loPI   PO4 5172   2.802  12.744  10.431 -0.0045  0.1365 -0.1655
  324loPI   GL1 5173   2.585  12.734  10.060 -0.2115  0.0983 -0.4361
  324loPI   GL2 5174   2.840  12.558   9.942 -0.3431  0.0798  0.1600
  324loPI   C1A 5175   2.449  12.588   9.601  0.0014  0.1250 -0.1690
  324loPI   C2A 5176   2.553  12.463   9.263 -0.1261 -0.0007 -0.0414
  324loPI   C3A 5177   2.564  12.384   8.834 -0.0306 -0.2292  0.0352
  324loPI   C4A 5178   2.484  12.325   8.402  0.0471  0.1188  0.1116
  324loPI   C5A 5179   2.569  12.271   7.983 -0.1526 -0.4141  0.0424
  324loPI   C6A 5180   2.754  12.446   7.707  0.1573  0.1100 -0.2172
  324loPI   C1B 5181   3.026  12.578   9.427  0.0423 -0.1362 -0.1038
  324loPI   C2B 5182   3.005  12.601   8.995 -0.2696  0.2419  0.2569
  324loPI   C3B 5183   3.006  12.575   8.559 -0.1155 -0.4156 -0.1108
  324loPI   C4B 5184   2.909  12.638   8.122 -0.2944 -0.0164  0.0568
  325loPI    C1 5185   5.015  14.566  10.761  0.3639 -0.0986 -0.2006
  325loPI    C2 5186   5.327  14.565  11.012  0.1837  0.0200  0.0277
  325loPI    C3 5187   4.960  14.651  11.148  0.0599 -0.0549 -0.2505
  325loPI   PO4 5188   5.139  14.671  10.528  0.1412 -0.3548  0.0520
  325loPI   GL1 5189   5.395  14.833  10.228  0.0403  0.1390 -0.0627
  325loPI   GL2 5190   5.631  14.951  10.047  0.3196  0.0874  0.1332
  325loPI   C1A 5191   5.316  14.756   9.709 -0.2832 -0.1550  0.2847
  325loPI   C2A 5192   5.446  14.733   9.357  0.0610  0.0013 -0.0188
  325loPI   C3A 5193   5.533  14.743   9.006  0.0160 -0.2540  0.2405
  325loPI   C4A 5194   5.517  14.659   8.584 -0.1005  0.2288  0.0589
  325loPI   C5A 5195   5.516  14.679   8.173  0.0805  0.0004 -0.0387
  325loPI   C6A 5196   5.287  14.927   7.757  0.1165  0.1842 -0.1484
  325loPI   C1B 5197   5.862  14.889   9.660 -0.1869 -0.0613  0.2526
  325loPI   C2B 5198   6.026  14.789   9.233  0.0649 -0.0379  0.1961
  325loPI   C3B 5199   5.991  14.728   8.807 -0.0016  0.2525  0.1439
  325loPI   C4B 5200   6.012  14.642   8.360 -0.1756 -0.1334  0.1540
  326loPI    C1 5201  17.921   1.766  10.267  0.1320 -0.0228 -0.0013
  326loPI    C2 5202  17.796   1.907  10.620 -0.0799 -0.0299 -0.0723
  326loPI    C3 5203  17.552   1.916  10.303  0.0299 -0.2296 -0.1649
  326loPI   PO4 5204  17.949   1.556  10.218 -0.0070 -0.1030  0.0835
  326loPI   GL1 5205  17.815   1.339   9.927  0.0251 -0.2379  0.1793
  326loPI   GL2 5206  17.663   1.217   9.882  0.0562  0.0205 -0.1645
  326loPI   C1A 5207  18.043   1.414   9.535  0.0074 -0.1516  0.0154
  326loPI   C2A 5208  18.175   1.317   9.082 -0.4511  0.2624 -0.1209
  326loPI   C3A 5209  18.438   1.427   8.690  0.0342 -0.1092  0.3735
  326loPI   C4A 5210  18.480   1.446   8.310 -0.3521  0.0721  0.0646
  326loPI   C5A 5211  18.543   1.593   7.855 -0.2306  0.1360  0.0145
  326loPI   C6A 5212  18.572   1.964   7.627  0.0138 -0.3951 -0.1122
  326loPI   C1B 5213  17.568   1.304   9.446  0.0251 -0.0137  0.0064
  326loPI   C2B 5214  17.646   1.350   9.056 -0.3220  0.3940 -0.1193
  326loPI   C3B 5215  17.857   1.342   8.672 -0.2073 -0.1438 -0.0250
  326loPI   C4B 5216  17.973   1.368   8.154 -0.1001 -0.1814  0.1539
  327loPI    C1 5217   2.228   3.164  10.932  0.0132  0.2179  0.0255
  327loPI    C2 5218   2.603   3.218  11.058  0.1215 -0.1747 -0.1140
  327loPI    C3 5219   2.367   2.954  11.242  0.0197 -0.1656 -0.2300
  327loPI   PO4 5220   2.273   3.201  10.636  0.0715 -0.1668 -0.1657
  327loPI   GL1 5221   2.363   3.504  10.382 -0.1048  0.1403  0.0837
  327loPI   GL2 5222   2.170   3.634  10.171  0.2603 -0.2870 -0.2999
  327loPI   C1A 5223   2.707   3.396  10.168 -0.1058  0.0599 -0.3529
  327loPI   C2A 5224   2.978   3.405   9.849  0.0508  0.2281 -0.0745
  327loPI   C3A 5225   3.015   3.454   9.500 -0.0641 -0.0521  0.1634
  327loPI   C4A 5226   3.043   3.528   9.153 -0.0907 -0.2214 -0.1041
  327loPI   C5A 5227   3.032   3.541   8.740  0.2807 -0.0640 -0.0854
  327loPI   C6A 5228   3.193   3.496   8.386  0.3004  0.0506 -0.1053
  327loPI   C1B 5229   2.394   3.417   9.814 -0.1339  0.0294 -0.1017
  327loPI   C2B 5230   2.561   3.444   9.360  0.1949  0.1615 -0.0833
  327loPI   C3B 5231   2.523   3.412   8.914 -0.1510  0.0158  0.1187
  327loPI   C4B 5232   2.552   3.446   8.430 -0.2218 -0.0850  0.0997
  328loPI    C1 5233  13.193   5.261  11.118 -0.0043  0.0396  0.3304
  328loPI    C2 5234  12.974   5.001  10.906  0.0836  0.2275  0.0013
  328loPI    C3 5235  12.805   5.211  11.202 -0.1340  0.2312 -0.1235
  328loPI   PO4 5236  13.342   5.437  10.849 -0.1796 -0.0174  0.0824
  328loPI   GL1 5237  13.392   5.197  10.468 -0.1942 -0.4852  0.3124
  328loPI   GL2 5238  13.155   5.105  10.397 -0.0368 -0.1183  0.2526
  328loPI   C1A 5239  13.623   5.196  10.007  0.2876 -0.1266  0.1615
  328loPI   C2A 5240  13.581   5.148   9.479  0.1542 -0.2279  0.0676
  328loPI   C3A 5241  13.635   5.113   9.082  0.0314  0.2248 -0.4410
  328loPI   C4A 5242  13.594   5.115   8.655 -0.0455 -0.0010  0.0513
  328loPI   C5A 5243  13.337   5.315   8.284 -0.0958 -0.1511  0.2107
  328loPI   C6A 5244  12.988   5.482   8.014 -0.0844  0.1513 -0.2666
  328loPI   C1B 5245  13.102   5.100   9.945  0.0846  0.0932  0.2346
  328loPI   C2B 5246  13.062   5.040   9.534  0.2872  0.0831  0.1808
  328loPI   C3B 5247  13.132   5.101   9.167  0.0637  0.2298 -0.0202
  328loPI   C4B 5248  13.138   5.050   8.782  0.1403  0.2914 -0.0035
  329loPI    C1 5249   0.848  13.791  10.557  0.1597 -0.0195 -0.3014
  329loPI    C2 5250   0.954  13.409  10.612  0.2208  0.0632  0.1968
  329loPI    C3 5251   0.572  13.520  10.659  0.1689  0.0344 -0.1316
  329loPI   PO4 5252   0.925  13.855  10.333  0.0815  0.0670  0.0667
  329loPI   GL1 5253   0.881  13.940   9.948  0.3036  0.0058  0.1071
  329loPI   GL2 5254   0.800  13.698   9.732  0.0531  0.4273 -0.3008
  329loPI   C1A 5255   1.062  14.261   9.551 -0.1351  0.0893  0.0197
  329loPI   C2A 5256   1.190  14.169   9.191 -0.0647 -0.0978 -0.2980
  329loPI   C3A 5257   1.129  14.125   8.771 -0.2064 -0.4263  0.0818
  329loPI   C4A 5258   0.770  14.137   8.490  0.0060 -0.0104  0.0619
  329loPI   C5A 5259   0.538  13.979   7.963 -0.0594 -0.0199  0.0286
  329loPI   C6A 5260   0.767  13.746   7.651 -0.1250 -0.0438  0.0521
  329loPI   C1B 5261   0.891  13.706   9.310  0.2269  0.1737  0.0074
  329loPI   C2B 5262   1.024  13.685   8.948 -0.0116  0.2358 -0.0113
  329loPI   C3B 5263   1.004  13.659   8.580 -0.1202  0.0979 -0.0328
  329loPI   C4B 5264   0.944  13.796   8.165  0.1047 -0.0943 -0.2348
  330loPI    C1 5265   0.574   7.391  10.580 -0.2159  0.0659 -0.1165
  330loPI    C2 5266   0.963   7.305  10.538 -0.2345 -0.0320 -0.0917
  330loPI    C3 5267   0.840   7.529  10.846 -0.1870  0.0765 -0.1509
  330loPI   PO4 5268   0.524   7.481  10.407 -0.0377 -0.0347  0.0513
  330loPI   GL1 5269   0.472   7.839  10.183  0.2571 -0.1484  0.0695
  330loPI   GL2 5270   0.178   7.960  10.069  0.0065  0.0878  0.2420
  330loPI   C1A 5271   0.509   7.701   9.777  0.0488  0.1593  0.1670
  330loPI   C2A 5272   0.512   7.734   9.303  0.0470  0.1553  0.0298
  330loPI   C3A 5273   0.391   7.698   8.977  0.0458 -0.2879  0.2750
  330loPI   C4A 5274   0.350   7.478   8.560  0.1709 -0.0331 -0.4586
  330loPI   C5A 5275   0.100   7.465   8.120 -0.1032 -0.1035  0.1715
  330loPI   C6A 5276  -0.292   7.566   8.169  0.0808 -0.2434 -0.1000
  330loPI   C1B 5277   0.198   8.084   9.689 -0.1598 -0.0254  0.0412
  330loPI   C2B 5278   0.158   8.092   9.189  0.0681  0.2944  0.1281
  330loPI   C3B 5279   0.068   8.040   8.810  0.0214  0.0912 -0.0263
  330loPI   C4B 5280   0.034   7.977   8.327  0.2139 -0.1693 -0.1730
  331loPI    C1 5281  16.650  12.089  10.511  0.0149  0.0326  0.0542
  331loPI    C2 5282  16.374  12.099  10.801 -0.2487  0.0131 -0.1906
  331loPI    C3 5283  16.717  11.901  10.858 -0.2984  0.0066  0.1039
  331loPI   PO4 5284  16.466  12.063  10.242  0.1304  0.0035 -0.1226
  331loPI   GL1 5285  16.362  12.168   9.959  0.1044 -0.0579 -0.0587
  331loPI   GL2 5286  16.781  12.123   9.794  0.1585 -0.3106 -0.1596
  331loPI   C1A 5287  16.233  12.176   9.531 -0.3948  0.1190 -0.1886
  331loPI   C2A 5288  16.199  12.278   9.110 -0.2732  0.1095  0.0365
  331loPI   C3A 5289  16.317  12.239   8.682 -0.0088  0.3043  0.3293
  331loPI   C4A 5290  16.322  12.233   8.264  0.0362 -0.0537 -0.1670
  331loPI   C5A 5291  16.112  12.270   7.852 -0.1033 -0.2232  0.2364
  331loPI   C6A 5292  15.834  12.481   7.765  0.0567  0.1024 -0.2793
  331loPI   C1B 5293  16.982  12.023   9.491  0.2390 -0.3238 -0.0797
  331loPI   C2B 5294  17.087  11.920   9.045  0.5324 -0.0932  0.2469
  331loPI   C3B 5295  17.106  11.945   8.652 -0.1184  0.0760  0.0434
  331loPI   C4B 5296  17.159  11.789   8.256 -0.0394  0.1053  0.1832
  332loPI    C1 5297   7.209   1.271  11.052  0.1507  0.1935  0.0870
  332loPI    C2 5298   7.519   1.435  11.242  0.1262  0.0477  0.2555
  332loPI    C3 5299   7.148   1.489  11.381  0.0887  0.1040  0.1353
  332loPI   PO4 5300   7.273   1.389  10.807 -0.3013  0.1433 -0.2602
  332loPI   GL1 5301   7.226   1.455  10.401  0.1714  0.0635  0.0152
  332loPI   GL2 5302   7.031   1.730  10.327 -0.1697  0.1480 -0.4199
  332loPI   C1A 5303   7.441   1.340  10.068 -0.1089  0.2118 -0.0171
  332loPI   C2A 5304   7.463   1.273   9.621  0.1915 -0.0730  0.0356
  332loPI   C3A 5305   7.584   1.185   9.303 -0.2425 -0.1738  0.4256
  332loPI   C4A 5306   7.503   1.221   8.896  0.1904  0.1937 -0.0967
  332loPI   C5A 5307   7.503   1.207   8.450 -0.1106  0.4988  0.2674
  332loPI   C6A 5308   7.708   1.305   8.118 -0.1793  0.1682 -0.1238
  332loPI   C1B 5309   7.176   1.735   9.874  0.0437  0.1639 -0.1007
  332loPI   C2B 5310   7.227   1.666   9.454  0.2234 -0.1571 -0.3583
  332loPI   C3B 5311   7.206   1.604   9.068 -0.2494 -0.0657  0.2102
  332loPI   C4B 5312   7.204   1.589   8.632 -0.0998 -0.2170  0.1491
  333loPI    C1 5313   9.054   4.102  11.055  0.0460 -0.1200 -0.0865
  333loPI    C2 5314   8.863   3.831  11.280  0.0934  0.0634  0.1789
  333loPI    C3 5315   9.258   3.883  11.320  0.1175  0.0366 -0.0113
  333loPI   PO4 5316   9.004   4.076  10.780 -0.0289 -0.1365  0.2400
  333loPI   GL1 5317   8.629   4.241  10.567 -0.1946 -0.2868 -0.0677
  333loPI   GL2 5318   8.388   4.453  10.592  0.1041  0.0867  0.0958
  333loPI   C1A 5319   8.843   4.219  10.103 -0.0763  0.2462  0.0381
  333loPI   C2A 5320   8.905   4.153   9.626  0.0623 -0.0156 -0.1265
  333loPI   C3A 5321   8.815   4.081   9.233  0.1893 -0.3393 -0.0197
  333loPI   C4A 5322   8.824   4.067   8.801  0.0761  0.0676  0.1474
  333loPI   C5A 5323   8.940   4.049   8.326 -0.0901 -0.2666  0.1105
  333loPI   C6A 5324   9.109   3.738   8.119  0.3899  0.0802 -0.0670
  333loPI   C1B 5325   8.478   4.524  10.123  0.1593 -0.1211 -0.0434
  333loPI   C2B 5326   8.533   4.470   9.714  0.1421 -0.1183 -0.1307
  333loPI   C3B 5327   8.494   4.490   9.302 -0.2867 -0.0278 -0.1447
  333loPI   C4B 5328   8.502   4.435   8.884  0.2674  0.0031 -0.1143
  334loPI    C1 5329   1.498   6.720  10.409 -0.0174 -0.0146 -0.0722
  334loPI    C2 5330   1.172   6.833  10.611  0.1927 -0.1870  0.3764
  334loPI    C3 5331   1.310   6.459  10.647  0.1748 -0.2550 -0.1797
  334loPI   PO4 5332   1.701   6.953  10.357  0.1385  0.1425 -0.2663
  334loPI   GL1 5333   2.008   6.893  10.040  0.1028  0.1896 -0.0685
  334loPI   GL2 5334   1.658   6.605   9.937  0.0752  0.4145  0.0929
  334loPI   C1A 5335   2.087   6.991   9.544 -0.1831  0.1129 -0.2308
  334loPI   C2A 5336   2.272   6.977   9.105  0.0068  0.1347 -0.0686
  334loPI   C3A 5337   2.123   7.004   8.718 -0.1267 -0.0607  0.4058
  334loPI   C4A 5338   2.056   7.007   8.234  0.0378  0.1091  0.1284
  334loPI   C5A 5339   2.026   6.735   7.964 -0.4648 -0.2258  0.0565
  334loPI   C6A 5340   1.983   6.353   7.905  0.1152 -0.0950 -0.2708
  334loPI   C1B 5341   1.805   6.561   9.546 -0.0827 -0.0217 -0.3201
  334loPI   C2B 5342   1.991   6.572   9.225 -0.1004 -0.1323  0.0288
  334loPI   C3B 5343   1.921   6.430   8.862 -0.0626 -0.1315  0.4928
  334loPI   C4B 5344   1.961   6.579   8.462  0.3711 -0.0537 -0.1576
  335loPI    C1 5345   8.925   1.239  11.123  0.2075  0.1259  0.1182
  335loPI    C2 5346   8.842   1.022  11.448  0.2088  0.1182  0.1134
  335loPI    C3 5347   8.927   0.840  11.102  0.1010  0.1270  0.0819
  335loPI   PO4 5348   8.719   1.419  10.981  0.1588 -0.0632  0.1525
  335loPI   GL1 5349   8.411   1.388  10.651  0.2341  0.2265 -0.0101
  335loPI   GL2 5350   8.247   1.675  10.568  0.2326 -0.0369 -0.2710
  335loPI   C1A 5351   8.461   1.367  10.131  0.0403 -0.0877  0.1829
  335loPI   C2A 5352   8.523   1.334   9.704  0.3142  0.1405 -0.0933
  335loPI   C3A 5353   8.590   1.332   9.190  0.1803  0.2929 -0.1475
  335loPI   C4A 5354   8.708   1.363   8.818 -0.5310  0.0940 -0.0550
  335loPI   C5A 5355   8.611   1.375   8.383  0.0780  0.3994 -0.3025
  335loPI   C6A 5356   8.296   1.230   8.057  0.3273 -0.0688 -0.3438
  335loPI   C1B 5357   8.221   1.749  10.174  0.0806  0.2001 -0.1090
  335loPI   C2B 5358   8.238   1.822   9.647 -0.1797  0.1062 -0.2026
  335loPI   C3B 5359   8.260   1.746   9.163 -0.2569 -0.2652  0.3556
  335loPI   C4B 5360   8.444   1.760   8.704  0.0778 -0.2965  0.0713
  336loPI    C1 5361   6.498  17.367  10.810 -0.1882 -0.0812  0.0578
  336loPI    C2 5362   6.364  17.014  10.940 -0.2464 -0.0655  0.0411
  336loPI    C3 5363   6.158  17.348  11.020  0.0545  0.0248  0.4721
  336loPI   PO4 5364   6.636  17.292  10.593  0.1448  0.0875  0.2274
  336loPI   GL1 5365   6.852  17.353  10.295  0.0030  0.1391  0.1542
  336loPI   GL2 5366   7.084  17.547  10.315  0.0565 -0.0898 -0.2366
  336loPI   C1A 5367   6.929  17.293   9.852  0.0888  0.0131 -0.4476
  336loPI   C2A 5368   6.965  17.232   9.428 -0.0495 -0.1248 -0.3928
  336loPI   C3A 5369   7.029  17.097   8.969  0.0550  0.0979 -0.0438
  336loPI   C4A 5370   7.047  16.991   8.421 -0.0697 -0.0494  0.1277
  336loPI   C5A 5371   7.127  16.883   8.054 -0.1777 -0.1789  0.0124
  336loPI   C6A 5372   7.089  16.554   7.722  0.0942  0.0948  0.2114
  336loPI   C1B 5373   7.093  17.722   9.900 -0.0929  0.3404  0.0417
  336loPI   C2B 5374   7.152  17.691   9.556 -0.1000  0.1803  0.2723
  336loPI   C3B 5375   7.261  17.545   9.183 -0.0866  0.0516  0.2552
  336loPI   C4B 5376   7.181  17.470   8.727 -0.0028  0.1809  0.0165
  337loPI    C1 5377   1.511   0.021  10.270  0.0379  0.0571 -0.1031
  337loPI    C2 5378   1.357  -0.030  10.636 -0.1770  0.0312 -0.1952
  337loPI    C3 5379   1.738  -0.128  10.563 -0.1279  0.0530  0.0253
  337loPI   PO4 5380   1.362  -0.042  10.141  0.1198 -0.1057  0.1948
  337loPI   GL1 5381   1.381  -0.250   9.749 -0.2371  0.0298 -0.2823
  337loPI   GL2 5382   1.091  -0.337   9.867  0.1046  0.0450 -0.1271
  337loPI   C1A 5383   1.458  -0.447   9.390  0.0444  0.1076  0.0332
  337loPI   C2A 5384   1.376  -0.348   8.935  0.1114  0.3905 -0.1197
  337loPI   C3A 5385   1.431  -0.314   8.500 -0.0586  0.2089  0.0455
  337loPI   C4A 5386   1.419  -0.080   8.101  0.1878  0.1354  0.2701
  337loPI   C5A 5387   1.552  -0.144   7.699  0.1602  0.2066 -0.4075
  337loPI   C6A 5388   1.360   0.204   7.296  0.4216  0.1354  0.1512
  337loPI   C1B 5389   0.950  -0.431   9.369  0.2173 -0.2558  0.1481
  337loPI   C2B 5390   0.923  -0.461   8.857  0.1188  0.0993  0.0517
  337loPI   C3B 5391   0.946  -0.292   8.347 -0.3067  0.0934 -0.0596
  337loPI   C4B 5392   1.159  -0.437   7.946  0.1562 -0.1580 -0.2205
  338loPI    C1 5393  14.705  13.610  10.767  0.0513  0.1775  0.2154
  338loPI    C2 5394  14.586  13.867  11.050  0.0446  0.1643  0.2246
  338loPI    C3 5395  14.545  13.473  11.108  0.1641  0.1568  0.2604
  338loPI   PO4 5396  14.594  13.642  10.592  0.0199 -0.1068 -0.1870
  338loPI   GL1 5397  14.853  13.712  10.292  0.0600 -0.0520  0.0683
  338loPI   GL2 5398  15.022  13.955  10.299 -0.2949 -0.0060 -0.0593
  338loPI   C1A 5399  14.869  13.670   9.917  0.1891 -0.0533  0.0700
  338loPI   C2A 5400  14.740  13.507   9.512  0.1773 -0.1829 -0.1581
  338loPI   C3A 5401  14.802  13.416   9.102 -0.2199 -0.0228 -0.0903
  338loPI   C4A 5402  14.892  13.366   8.736 -0.1978  0.1157 -0.2157
  338loPI   C5A 5403  14.946  13.334   8.318  0.4212  0.1760  0.3029
  338loPI   C6A 5404  14.519  13.407   8.215 -0.0216 -0.2597  0.1262
  338loPI   C1B 5405  15.155  14.000   9.848  0.1490 -0.2042 -0.1607
  338loPI   C2B 5406  14.996  13.902   9.381  0.0492  0.0510 -0.0018
  338loPI   C3B 5407  14.989  13.887   8.890  0.0765  0.1248  0.2175
  338loPI   C4B 5408  14.909  13.855   8.418 -0.0158 -0.1960  0.0164
  339loPI    C1 5409  13.775   5.226  10.962 -0.0429 -0.1142 -0.0946
  339loPI    C2 5410  14.087   5.304  11.200  0.0445 -0.2596 -0.1599
  339loPI    C3 5411  13.780   5.560  11.182  0.1824 -0.0902 -0.1334
  339loPI   PO4 5412  13.820   5.091  10.706 -0.0520 -0.4030  0.3762
  339loPI   GL1 5413  13.953   4.877  10.357 -0.1996  0.0088 -0.4231
  339loPI   GL2 5414  13.654   4.776  10.321  0.2852 -0.1354  0.0667
  339loPI   C1A 5415  13.973   4.846   9.882 -0.1376 -0.0491 -0.1591
  339loPI   C2A 5416  13.921   4.787   9.513  0.0628 -0.0523  0.3842
  339loPI   C3A 5417  13.896   4.663   9.120 -0.1779  0.0341 -0.1043
  339loPI   C4A 5418  13.869   4.725   8.668  0.3030 -0.0186  0.1498
  339loPI   C5A 5419  13.940   4.525   8.329  0.2133  0.2005  0.0582
  339loPI   C6A 5420  13.905   4.278   7.922 -0.0152 -0.1614 -0.2885
  339loPI   C1B 5421  13.439   4.722   9.913 -0.5128  0.2076 -0.3532
  339loPI   C2B 5422  13.420   4.634   9.535  0.0498  0.1338 -0.2363
  339loPI   C3B 5423  13.315   4.657   9.125  0.1946  0.2521  0.3035
  339loPI   C4B 5424  13.382   4.634   8.757  0.1874  0.1374  0.2585
  340loPI    C1 5425  17.482  12.388  10.600  0.0018 -0.0032  0.0671
  340loPI    C2 5426  17.456  12.106  10.883 -0.0088 -0.1900 -0.1176
  340loPI    C3 5427  17.123  12.267  10.729 -0.0007  0.1505  0.2070
  340loPI   PO4 5428  17.607  12.232  10.400 -0.0278 -0.0730 -0.0527
  340loPI   GL1 5429  17.808  12.063  10.036  0.1220 -0.0671  0.1991
  340loPI   GL2 5430  17.549  12.020   9.947  0.1752 -0.2349  0.3789
  340loPI   C1A 5431  18.026  12.046   9.664  0.0867 -0.4127  0.0391
  340loPI   C2A 5432  18.121  12.068   9.223 -0.1939 -0.1629 -0.0344
  340loPI   C3A 5433  18.036  12.011   8.780  0.1022 -0.2637  0.3324
  340loPI   C4A 5434  18.170  12.016   8.334  0.0130  0.1612 -0.3387
  340loPI   C5A 5435  18.089  11.809   7.962 -0.0382  0.2367  0.0756
  340loPI   C6A 5436  17.767  11.770   7.660  0.0433  0.1212 -0.1791
  340loPI   C1B 5437  17.532  11.996   9.484 -0.0804 -0.0740 -0.3195
  340loPI   C2B 5438  17.590  11.998   9.046  0.2333 -0.1412  0.1283
  340loPI   C3B 5439  17.590  11.985   8.634  0.1064 -0.0755 -0.0118
  340loPI   C4B 5440  17.705  12.024   8.222  0.0397 -0.0478 -0.0533
  341loPI    C1 5441  16.760  10.021  11.019 -0.0204  0.1518 -0.0296
  341loPI    C2 5442  16.913   9.654  11.069 -0.0133  0.1565 -0.0166
  341loPI    C3 5443  17.145   9.951  10.932 -0.0503  0.1268 -0.1450
  341loPI   PO4 5444  16.538   9.955  10.819  0.1660  0.0183 -0.2018
  341loPI   GL1 5445  16.618  10.180  10.490  0.4320 -0.0975  0.2216
  341loPI   GL2 5446  16.362  10.330  10.291  0.0173  0.1816 -0.0638
  341loPI   C1A 5447  16.797   9.936  10.043  0.0197 -0.0069 -0.0556
  341loPI   C2A 5448  16.782   9.954   9.582 -0.1312 -0.0850 -0.1489
  341loPI   C3A 5449  16.610   9.972   9.234  0.2536 -0.2917  0.2935
  341loPI   C4A 5450  16.690   9.981   8.885 -0.4232 -0.0880  0.2153
  341loPI   C5A 5451  16.745  10.044   8.507 -0.3863 -0.3970  0.1635
  341loPI   C6A 5452  16.821   9.984   8.090 -0.0723  0.1008  0.0353
  341loPI   C1B 5453  16.487  10.354   9.827 -0.3248 -0.2897 -0.0956
  341loPI   C2B 5454  16.449  10.463   9.361  0.0345  0.0975  0.0980
  341loPI   C3B 5455  16.371  10.423   9.013  0.1615  0.0478  0.0188
  341loPI   C4B 5456  16.426  10.434   8.603 -0.1043  0.0718  0.2800
  342loPI    C1 5457   0.808   3.532  10.613  0.1053 -0.1814  0.1097
  342loPI    C2 5458   0.797   3.370  10.978  0.1235  0.0111  0.1968
  342loPI    C3 5459   0.644   3.735  10.917  0.4028  0.1113  0.0802
  342loPI   PO4 5460   0.747   3.434  10.427 -0.4611 -0.1439 -0.0441
  342loPI   GL1 5461   0.939   3.462   9.930 -0.1974  0.0903  0.1561
  342loPI   GL2 5462   0.828   3.217   9.764  0.0251 -0.0073 -0.0557
  342loPI   C1A 5463   1.261   3.337   9.570 -0.3217 -0.1577 -0.1169
  342loPI   C2A 5464   1.515   3.346   9.194  0.2104 -0.1358  0.1230
  342loPI   C3A 5465   1.523   3.297   8.698  0.3688 -0.1056 -0.0194
  342loPI   C4A 5466   1.626   3.484   8.277  0.1186  0.0015 -0.0904
  342loPI   C5A 5467   2.092   3.565   8.068  0.0581  0.0701 -0.0390
  342loPI   C6A 5468   2.473   3.615   7.853  0.2408  0.1674  0.1114
  342loPI   C1B 5469   0.776   3.323   9.370 -0.1423 -0.1445  0.0581
  342loPI   C2B 5470   0.582   3.361   9.030 -0.0921 -0.3375  0.0522
  342loPI   C3B 5471   0.538   3.441   8.544 -0.1383  0.0325  0.1940
  342loPI   C4B 5472   0.591   3.357   8.091  0.1453 -0.1689  0.2339
  343loPI    C1 5473   0.804  11.210  10.722 -0.0583 -0.0332  0.1225
  343loPI    C2 5474   0.584  10.975  10.960  0.0618  0.0601  0.3288
  343loPI    C3 5475   0.732  11.319  11.101  0.3051  0.0185  0.1803
  343loPI   PO4 5476   0.676  11.246  10.458  0.1407  0.1491  0.1235
  343loPI   GL1 5477   0.421  11.128  10.039  0.1273 -0.2006 -0.3309
  343loPI   GL2 5478   0.522  11.327   9.749  0.2618  0.2982 -0.1793
  343loPI   C1A 5479   0.344  10.895   9.637 -0.6001  0.1545  0.0652
  343loPI   C2A 5480   0.295  10.809   9.212  0.1375  0.0117  0.5162
  343loPI   C3A 5481   0.303  10.801   8.745  0.3745  0.1818 -0.0815
  343loPI   C4A 5482   0.290  10.611   8.284 -0.0374  0.0470  0.0137
  343loPI   C5A 5483   0.112  10.749   7.914  0.0018  0.3295 -0.2988
  343loPI   C6A 5484  -0.109  10.707   7.474  0.1099  0.1701 -0.1076
  343loPI   C1B 5485   0.541  11.246   9.384 -0.2312  0.3054  0.2186
  343loPI   C2B 5486   0.527  11.275   8.936  0.0350  0.2123  0.2259
  343loPI   C3B 5487   0.446  11.181   8.396 -0.0585 -0.2355 -0.0853
  343loPI   C4B 5488   0.489  11.104   7.918  0.2848 -0.0147 -0.0505
  344loPI    C1 5489  16.272   0.594  10.667 -0.2175 -0.1334 -0.1460
  344loPI    C2 5490  16.635   0.737  10.754 -0.3146  0.1661 -0.2220
  344loPI    C3 5491  16.574   0.342  10.739  0.0204  0.1129 -0.2651
  344loPI   PO4 5492  16.264   0.745  10.417  0.0700  0.0986  0.1403
  344loPI   GL1 5493  16.173   0.836  10.043  0.0066 -0.0556 -0.1312
  344loPI   GL2 5494  15.906   0.937  10.000 -0.1916  0.5415 -0.1940
  344loPI   C1A 5495  16.214   0.926   9.607  0.4560 -0.0182  0.0151
  344loPI   C2A 5496  16.249   0.922   9.204 -0.2212 -0.1927  0.3175
  344loPI   C3A 5497  16.208   0.945   8.687  0.1483 -0.3492 -0.0405
  344loPI   C4A 5498  16.225   0.984   8.266  0.4085  0.3948  0.2674
  344loPI   C5A 5499  16.192   1.037   7.775  0.3243 -0.0243 -0.0430
  344loPI   C6A 5500  16.404   1.073   7.521  0.1052  0.0345 -0.1586
  344loPI   C1B 5501  15.733   0.887   9.628 -0.3376  0.3503  0.0706
  344loPI   C2B 5502  15.732   0.944   9.217  0.1882  0.3561 -0.1245
  344loPI   C3B 5503  15.675   0.854   8.782 -0.1081  0.1133  0.0245
  344loPI   C4B 5504  15.740   0.699   8.333 -0.0590  0.0801  0.0633
  345loPI    C1 5505   3.195  11.058  11.148 -0.0567  0.2144  0.1025
  345loPI    C2 5506   2.972  10.770  11.314  0.1519  0.0759  0.1455
  345loPI    C3 5507   2.972  11.138  11.470  0.1539  0.0096  0.3028
  345loPI   PO4 5508   3.187  10.955  10.852  0.0757 -0.3064 -0.0589
  345loPI   GL1 5509   3.324  10.831  10.428  0.0864  0.1407  0.1519
  345loPI   GL2 5510   3.639  10.839  10.562  0.0160 -0.2856 -0.0416
  345loPI   C1A 5511   3.296  10.787   9.958  0.1863  0.1274  0.1087
  345loPI   C2A 5512   3.241  10.762   9.436  0.5225  0.0096 -0.1999
  345loPI   C3A 5513   3.287  10.684   9.126 -0.3207  0.1102  0.2451
  345loPI   C4A 5514   3.404  10.687   8.702 -0.2235 -0.0554 -0.3913
  345loPI   C5A 5515   3.364  10.700   8.276  0.0368  0.0751 -0.3344
  345loPI   C6A 5516   3.656  10.490   8.029 -0.0768  0.1116 -0.0731
  345loPI   C1B 5517   3.764  10.917  10.104  0.3588  0.0531 -0.2258
  345loPI   C2B 5518   3.833  10.827   9.674  0.1507 -0.1016  0.0049
  345loPI   C3B 5519   3.765  10.798   9.260 -0.2667 -0.1273 -0.2554
  345loPI   C4B 5520   3.900  10.773   8.825  0.2175  0.0792  0.2707
  346loPI    C1 5521   5.110   9.339  10.593 -0.0845  0.0222 -0.0254
  346loPI    C2 5522   4.852   9.039  10.535 -0.0695  0.0067 -0.0122
  346loPI    C3 5523   4.842   9.247  10.876 -0.0311 -0.0269  0.0096
  346loPI   PO4 5524   5.383   9.274  10.480  0.1389  0.2576 -0.3502
  346loPI   GL1 5525   5.452   9.031  10.114 -0.1516 -0.3005  0.0606
  346loPI   GL2 5526   5.243   8.753  10.315 -0.0872  0.1674 -0.0152
  346loPI   C1A 5527   5.545   9.203   9.724 -0.1146  0.4409  0.0421
  346loPI   C2A 5528   5.611   9.269   9.363  0.0191  0.3262  0.0654
  346loPI   C3A 5529   5.614   9.255   8.965  0.0157  0.2758 -0.2457
  346loPI   C4A 5530   5.602   9.249   8.498 -0.0544 -0.1809  0.0317
  346loPI   C5A 5531   5.435   9.050   8.210 -0.1191 -0.4230  0.0949
  346loPI   C6A 5532   5.066   8.713   8.212 -0.0760  0.1673  0.2931
  346loPI   C1B 5533   5.299   8.650   9.870  0.1585 -0.0986  0.0356
  346loPI   C2B 5534   5.404   8.731   9.477  0.1863 -0.2569  0.3393
  346loPI   C3B 5535   5.330   8.773   8.990 -0.3808 -0.1269 -0.1574
  346loPI   C4B 5536   5.553   8.712   8.557 -0.2580 -0.1070 -0.0980
  347loPI    C1 5537   7.345   4.846  11.225 -0.1432  0.1313 -0.0445
  347loPI    C2 5538   7.402   5.114  11.516 -0.3885 -0.0728  0.1978
  347loPI    C3 5539   7.031   5.027  11.395 -0.2880  0.0242 -0.1942
  347loPI   PO4 5540   7.459   4.978  10.987 -0.1110 -0.1044  0.2559
  347loPI   GL1 5541   7.433   5.044  10.588  0.0884 -0.0899  0.1207
  347loPI   GL2 5542   7.232   4.865  10.459  0.0478  0.1278  0.0371
  347loPI   C1A 5543   7.777   5.254  10.324 -0.2807  0.1961 -0.0222
  347loPI   C2A 5544   7.764   5.437   9.879 -0.0001  0.2652 -0.2898
  347loPI   C3A 5545   7.827   5.391   9.414 -0.1821 -0.0309 -0.5781
  347loPI   C4A 5546   7.923   5.254   9.115  0.1898 -0.1857  0.0257
  347loPI   C5A 5547   7.985   5.383   8.691 -0.2874  0.0265 -0.2507
  347loPI   C6A 5548   7.950   5.116   8.401 -0.0060 -0.0532  0.2545
  347loPI   C1B 5549   7.142   4.974  10.105 -0.2587  0.2331  0.1209
  347loPI   C2B 5550   7.126   4.847   9.697 -0.0231 -0.1123  0.1852
  347loPI   C3B 5551   7.197   4.806   9.325  0.2041  0.0782  0.0354
  347loPI   C4B 5552   7.188   4.727   8.865 -0.0373  0.0421  0.0157
  348loPI    C1 5553  14.188   7.147  10.744 -0.0753 -0.1456  0.1893
  348loPI    C2 5554  13.973   7.446  10.901 -0.0823 -0.0447 -0.0095
  348loPI    C3 5555  14.292   7.305  11.097  0.0833  0.2786 -0.0398
  348loPI   PO4 5556  13.988   7.039  10.546  0.0089  0.0016  0.1188
  348loPI   GL1 5557  13.919   6.788  10.141  0.1300  0.2974 -0.1707
  348loPI   GL2 5558  14.030   7.093   9.955  0.7062 -0.1506  0.2328
  348loPI   C1A 5559  13.684   6.543   9.946 -0.0099 -0.0397 -0.1737
  348loPI   C2A 5560  13.734   6.428   9.500 -0.0966  0.4735  0.3316
  348loPI   C3A 5561  13.618   6.493   9.013  0.0902 -0.2235 -0.3379
  348loPI   C4A 5562  13.696   6.465   8.617  0.0447  0.1464 -0.0366
  348loPI   C5A 5563  13.712   6.348   8.165  0.0866 -0.0194 -0.0413
  348loPI   C6A 5564  13.824   6.508   7.703  0.3580 -0.1898  0.0413
  348loPI   C1B 5565  13.966   7.005   9.469  0.0845  0.0844 -0.1596
  348loPI   C2B 5566  13.890   7.017   9.117  0.1373 -0.0736  0.2325
  348loPI   C3B 5567  13.819   6.997   8.662  0.0013  0.1320 -0.0617
  348loPI   C4B 5568  13.784   6.902   8.234  0.0130 -0.0768 -0.0257
  349loPI    C1 5569   0.441  12.248  10.676  0.0729 -0.0175 -0.2289
  349loPI    C2 5570   0.404  12.070  11.032  0.0878  0.3442 -0.0414
  349loPI    C3 5571   0.149  12.358  10.925 -0.0010  0.1439 -0.3847
  349loPI   PO4 5572   0.417  12.019  10.485  0.0899  0.1747  0.0145
  349loPI   GL1 5573   0.430  12.030  10.044 -0.0905 -0.1708  0.0344
  349loPI   GL2 5574   0.130  11.836  10.077 -0.1069 -0.1181  0.4007
  349loPI   C1A 5575   0.345  12.099   9.685 -0.1190 -0.0460  0.0123
  349loPI   C2A 5576   0.345  12.168   9.294 -0.1046  0.1853 -0.5186
  349loPI   C3A 5577   0.398  12.179   8.933  0.1876  0.0817 -0.0757
  349loPI   C4A 5578   0.399  12.074   8.596  0.1993  0.0164  0.3086
  349loPI   C5A 5579   0.342  12.312   8.204 -0.1587 -0.2859  0.0600
  349loPI   C6A 5580   0.633  12.534   7.865 -0.2545  0.0923  0.1765
  349loPI   C1B 5581   0.127  11.682   9.594 -0.3110  0.3024  0.0110
  349loPI   C2B 5582   0.214  11.643   9.125  0.2144 -0.2246  0.0112
  349loPI   C3B 5583   0.126  11.664   8.660 -0.2872  0.2667  0.3876
  349loPI   C4B 5584   0.220  11.631   8.313  0.0179  0.2081  0.0299
  350loPI    C1 5585  14.440  17.848  11.229  0.0674  0.0536  0.2344
  350loPI    C2 5586  14.460  18.239  11.309  0.1314  0.0236  0.3685
  350loPI    C3 5587  14.316  17.986  11.583  0.0881 -0.0468  0.2813
  350loPI   PO4 5588  14.472  17.872  10.933 -0.0827  0.1236  0.0025
  350loPI   GL1 5589  14.352  17.793  10.440 -0.2337 -0.3397 -0.0430
  350loPI   GL2 5590  14.173  18.103  10.430 -0.0903 -0.4341  0.0179
  350loPI   C1A 5591  14.575  17.558  10.142  0.1950  0.2584  0.1257
  350loPI   C2A 5592  14.632  17.518   9.706 -0.3336  0.1252 -0.1100
  350loPI   C3A 5593  14.613  17.564   9.319 -0.1629  0.0477  0.0243
  350loPI   C4A 5594  14.549  17.580   8.855  0.1909  0.0008 -0.2627
  350loPI   C5A 5595  14.334  17.576   8.444 -0.1874 -0.0230 -0.0394
  350loPI   C6A 5596  14.189  17.938   8.279  0.2750  0.2013 -0.1789
  350loPI   C1B 5597  14.282  17.937  10.005 -0.3584 -0.2445 -0.1103
  350loPI   C2B 5598  14.323  17.908   9.663  0.0498 -0.1517 -0.0733
  350loPI   C3B 5599  14.343  17.951   9.150 -0.0590  0.1519 -0.3102
  350loPI   C4B 5600  14.207  17.915   8.813  0.0618  0.3103  0.0908
  351loPI    C1 5601   9.790   2.257  11.086 -0.0261  0.1953  0.2111
  351loPI    C2 5602  10.131   2.279  11.295  0.0642  0.0046  0.0868
  351loPI    C3 5603   9.793   2.167  11.476  0.0714  0.1719  0.2055
  351loPI   PO4 5604   9.843   2.329  10.804 -0.0090 -0.1902  0.0381
  351loPI   GL1 5605   9.869   2.234  10.364  0.0797  0.0039  0.1594
  351loPI   GL2 5606  10.130   2.422  10.393 -0.0588  0.0505 -0.0997
  351loPI   C1A 5607   9.704   1.892  10.084  0.1753 -0.2039 -0.5661
  351loPI   C2A 5608   9.795   1.970   9.571  0.0590 -0.2652 -0.2217
  351loPI   C3A 5609   9.911   1.949   9.200  0.0133 -0.0497  0.1920
  351loPI   C4A 5610   9.892   2.016   8.797 -0.1147  0.1528 -0.0162
  351loPI   C5A 5611   9.835   2.023   8.387 -0.2350 -0.1155  0.0401
  351loPI   C6A 5612   9.630   2.242   8.041  0.1706  0.0826 -0.1305
  351loPI   C1B 5613   9.964   2.396   9.885  0.0870 -0.0748 -0.0380
  351loPI   C2B 5614   9.979   2.443   9.418  0.1061  0.0706  0.1147
  351loPI   C3B 5615  10.045   2.436   8.929  0.1449  0.2530 -0.2253
  351loPI   C4B 5616  10.004   2.526   8.497  0.3559  0.1667 -0.0281
  352loPI    C1 5617  13.108  17.696  11.048  0.3132  0.2672  0.0710
  352loPI    C2 5618  12.737  17.828  11.120  0.1944  0.0653 -0.1575
  352loPI    C3 5619  13.003  17.806  11.418 -0.0946 -0.1582  0.0913
  352loPI   PO4 5620  13.065  17.565  10.774 -0.1350 -0.1361  0.0980
  352loPI   GL1 5621  13.235  17.875  10.349  0.0778  0.0213 -0.2640
  352loPI   GL2 5622  13.589  17.905  10.278 -0.2011  0.2422  0.3293
  352loPI   C1A 5623  13.237  17.897   9.880 -0.3132 -0.2471  0.1865
  352loPI   C2A 5624  13.275  17.847   9.395 -0.2430  0.0067  0.2346
  352loPI   C3A 5625  13.258  17.748   8.903  0.2065 -0.1763  0.1280
  352loPI   C4A 5626  13.276  17.836   8.478  0.2593 -0.1209 -0.0979
  352loPI   C5A 5627  13.289  17.963   8.195 -0.0055  0.0887 -0.0637
  352loPI   C6A 5628  13.280  18.308   7.956  0.1846  0.0648  0.0121
  352loPI   C1B 5629  13.726  17.927   9.788 -0.2807  0.1825 -0.1303
  352loPI   C2B 5630  13.861  17.821   9.369  0.1775 -0.1755 -0.1234
  352loPI   C3B 5631  13.764  17.825   8.907  0.0053  0.3320 -0.0074
  352loPI   C4B 5632  13.746  17.729   8.494 -0.0737  0.1069 -0.3315
  353loPI    C1 5633  17.291   9.083  11.069 -0.2243 -0.3478  0.0270
  353loPI    C2 5634  17.177   9.337  11.357  0.3413 -0.1372  0.0780
  353loPI    C3 5635  17.224   8.948  11.439  0.1673 -0.1374  0.1804
  353loPI   PO4 5636  17.049   9.177  10.825  0.5109  0.0349  0.0954
  353loPI   GL1 5637  16.948   9.103  10.454  0.3446 -0.2012  0.3076
  353loPI   GL2 5638  17.010   8.887  10.120  0.0405  0.3184 -0.3016
  353loPI   C1A 5639  16.755   9.365  10.109 -0.2469 -0.1855  0.1354
  353loPI   C2A 5640  16.617   9.549   9.727 -0.1973 -0.0726 -0.0865
  353loPI   C3A 5641  16.475   9.533   9.316  0.0852 -0.1491 -0.1517
  353loPI   C4A 5642  16.528   9.529   8.838  0.3226  0.1106 -0.1335
  353loPI   C5A 5643  16.492   9.571   8.429  0.0075  0.0684 -0.0373
  353loPI   C6A 5644  16.292   9.982   8.262  0.3622 -0.0834 -0.0483
  353loPI   C1B 5645  16.929   9.056   9.686 -0.1671 -0.1869  0.1885
  353loPI   C2B 5646  16.871   9.184   9.192 -0.1478  0.1853 -0.0230
  353loPI   C3B 5647  16.871   9.145   8.699  0.0908 -0.0112 -0.0847
  353loPI   C4B 5648  16.748   9.006   8.259  0.0198 -0.0256 -0.0968
  354loPI    C1 5649   7.349   8.741  10.737 -0.0570  0.0507 -0.0008
  354loPI    C2 5650   7.558   8.401  10.717 -0.0129  0.0820 -0.0789
  354loPI    C3 5651   7.454   8.552  11.073  0.0525  0.0391 -0.0412
  354loPI   PO4 5652   7.507   9.008  10.604 -0.1007  0.0472 -0.0406
  354loPI   GL1 5653   7.406   9.069  10.244 -0.0955  0.0066  0.1006
  354loPI   GL2 5654   7.607   8.689  10.214  0.1840  0.2884  0.1223
  354loPI   C1A 5655   7.363   8.976   9.760  0.1138 -0.2361  0.1176
  354loPI   C2A 5656   7.379   8.972   9.268 -0.4170  0.2400  0.1213
  354loPI   C3A 5657   7.446   8.998   8.903 -0.2044  0.2010  0.0987
  354loPI   C4A 5658   7.497   9.115   8.446  0.3279  0.1011 -0.0255
  354loPI   C5A 5659   7.655   9.428   8.247  0.4951 -0.0172  0.0265
  354loPI   C6A 5660   7.606   9.762   8.137  0.2710 -0.0714  0.1968
  354loPI   C1B 5661   7.648   8.532   9.761  0.0989  0.3054 -0.3479
  354loPI   C2B 5662   7.729   8.555   9.306  0.2888 -0.1906 -0.0579
  354loPI   C3B 5663   7.780   8.612   8.852  0.0251  0.1032  0.1938
  354loPI   C4B 5664   7.691   8.621   8.463  0.1831  0.0355  0.3468
  355loPI    C1 5665   5.059  13.620  10.777  0.1791 -0.1440  0.0529
  355loPI    C2 5666   5.229  13.377  11.046  0.0697 -0.1695  0.0998
  355loPI    C3 5667   5.018  13.693  11.168 -0.2072 -0.3326  0.0520
  355loPI   PO4 5668   4.938  13.507  10.680  0.0672  0.1243  0.0082
  355loPI   GL1 5669   4.857  13.473  10.203  0.2920 -0.2098 -0.3057
  355loPI   GL2 5670   5.230  13.487  10.071 -0.2020 -0.1999 -0.2064
  355loPI   C1A 5671   4.711  13.328   9.846  0.1395 -0.1637 -0.0921
  355loPI   C2A 5672   4.728  13.406   9.437 -0.0934  0.0941 -0.0107
  355loPI   C3A 5673   4.805  13.303   8.997  0.1530  0.0662  0.1588
  355loPI   C4A 5674   4.842  13.225   8.658  0.1183  0.1499  0.2506
  355loPI   C5A 5675   4.957  13.122   8.214 -0.1099  0.2993  0.0033
  355loPI   C6A 5676   5.182  13.059   7.783  0.0780  0.0258 -0.1953
  355loPI   C1B 5677   5.253  13.441   9.645 -0.0258 -0.1388 -0.3144
  355loPI   C2B 5678   5.226  13.429   9.230 -0.0844 -0.1760  0.0373
  355loPI   C3B 5679   5.268  13.337   8.840 -0.1351  0.0196  0.1938
  355loPI   C4B 5680   5.428  13.183   8.553  0.2425 -0.0567 -0.0700
  356loPI    C1 5681   4.948   3.151  10.936  0.0267 -0.0183  0.2190
  356loPI    C2 5682   5.267   2.928  10.841  0.0656  0.0954  0.0793
  356loPI    C3 5683   5.232   3.081  11.209 -0.0144 -0.2280  0.2093
  356loPI   PO4 5684   4.940   3.366  10.676  0.3881 -0.0644 -0.2423
  356loPI   GL1 5685   4.731   3.191  10.285 -0.0286 -0.1547  0.0578
  356loPI   GL2 5686   4.528   3.508  10.332 -0.0941  0.0779 -0.0441
  356loPI   C1A 5687   4.949   3.322  10.061 -0.0254  0.0209  0.2214
  356loPI   C2A 5688   4.923   3.411   9.630  0.2990 -0.0225  0.2085
  356loPI   C3A 5689   4.919   3.348   9.156 -0.0756 -0.2657 -0.1529
  356loPI   C4A 5690   4.844   3.300   8.718 -0.0896  0.0592 -0.1253
  356loPI   C5A 5691   4.664   3.107   8.399 -0.2760 -0.2265  0.3636
  356loPI   C6A 5692   4.526   3.173   8.026 -0.0892 -0.1684 -0.0764
  356loPI   C1B 5693   4.592   3.706   9.855 -0.2283 -0.1193 -0.1078
  356loPI   C2B 5694   4.684   3.712   9.377 -0.0693  0.0158 -0.0361
  356loPI   C3B 5695   4.627   3.711   8.926 -0.0888 -0.1344  0.4298
  356loPI   C4B 5696   4.551   3.683   8.548  0.3521  0.1568  0.3339
  357loPI    C1 5697   2.349   7.953  10.407  0.0035  0.0162 -0.0260
  357loPI    C2 5698   2.303   7.796  10.772 -0.1377 -0.0636 -0.0775
  357loPI    C3 5699   2.650   7.966  10.671 -0.1425  0.0793  0.1394
  357loPI   PO4 5700   2.102   7.839  10.320 -0.0092 -0.4093  0.3997
  357loPI   GL1 5701   1.999   7.612   9.950  0.3139 -0.0963 -0.0955
  357loPI   GL2 5702   1.983   7.926   9.810  0.2421  0.4767  0.1603
  357loPI   C1A 5703   1.839   7.452   9.613 -0.0992  0.2462 -0.0307
  357loPI   C2A 5704   1.900   7.346   9.271  0.4348 -0.1998 -0.0482
  357loPI   C3A 5705   1.787   7.361   8.873  0.5080 -0.0648 -0.0805
  357loPI   C4A 5706   1.735   7.342   8.434  0.1606  0.1550  0.2584
  357loPI   C5A 5707   1.588   7.089   8.007  0.1212  0.2152 -0.0689
  357loPI   C6A 5708   1.252   6.911   7.740 -0.0353  0.1695  0.0938
  357loPI   C1B 5709   2.003   7.840   9.316 -0.0134 -0.2661 -0.1118
  357loPI   C2B 5710   2.018   7.849   8.886 -0.1355  0.3085  0.1203
  357loPI   C3B 5711   1.977   7.751   8.481 -0.1343 -0.2250 -0.1752
  357loPI   C4B 5712   2.120   8.032   8.164 -0.0391  0.0937  0.0249
  358loPI    C1 5713  16.316   4.190  10.631 -0.0796 -0.0246 -0.1062
  358loPI    C2 5714  15.928   4.214  10.722 -0.0523 -0.2553  0.0789
  358loPI    C3 5715  16.197   4.413  10.940 -0.0487 -0.2573  0.0762
  358loPI   PO4 5716  16.344   4.246  10.388  0.1032 -0.3158  0.1571
  358loPI   GL1 5717  16.276   4.105  10.085 -0.0167 -0.3486  0.0997
  358loPI   GL2 5718  16.461   4.012   9.868 -0.2378 -0.1612  0.0994
  358loPI   C1A 5719  15.853   4.044   9.862  0.0293  0.0690 -0.1042
  358loPI   C2A 5720  15.446   3.959   9.612  0.1896  0.0883 -0.1313
  358loPI   C3A 5721  15.530   4.071   9.213  0.0399  0.2089  0.0442
  358loPI   C4A 5722  15.468   4.008   8.715  0.0315  0.0128 -0.0848
  358loPI   C5A 5723  15.500   4.035   8.295 -0.1060 -0.0541  0.3269
  358loPI   C6A 5724  15.651   3.856   7.901 -0.0310  0.1658 -0.1290
  358loPI   C1B 5725  16.220   4.167   9.488 -0.2349 -0.0477 -0.3943
  358loPI   C2B 5726  16.033   4.401   9.136 -0.3850 -0.2374  0.1631
  358loPI   C3B 5727  16.068   4.507   8.677 -0.1153 -0.0545  0.0641
  358loPI   C4B 5728  16.273   4.631   8.421 -0.0929 -0.1619 -0.2901
  359loPI    C1 5729   8.714  14.097  10.939  0.0082  0.0370  0.0812
  359loPI    C2 5730   8.817  13.747  11.103 -0.1159 -0.0983 -0.1253
  359loPI    C3 5731   9.086  13.957  10.894 -0.1248 -0.2202 -0.2607
  359loPI   PO4 5732   8.510  14.133  10.738  0.0349 -0.1187  0.1378
  359loPI   GL1 5733   8.455  14.439  10.404  0.1454 -0.2865  0.2001
  359loPI   GL2 5734   8.087  14.375  10.321  0.0159  0.3905  0.0738
  359loPI   C1A 5735   8.321  14.705   9.934  0.3027 -0.2779 -0.1920
  359loPI   C2A 5736   8.308  14.463   9.586  0.2455  0.0040  0.3598
  359loPI   C3A 5737   8.333  14.494   9.131 -0.1887 -0.0972  0.2391
  359loPI   C4A 5738   8.413  14.484   8.699 -0.0618  0.5334 -0.2883
  359loPI   C5A 5739   8.596  14.452   8.301 -0.0385  0.1273  0.1839
  359loPI   C6A 5740   8.916  14.206   8.203  0.0831  0.2967 -0.2095
  359loPI   C1B 5741   8.125  14.178   9.933  0.0032 -0.0477 -0.0940
  359loPI   C2B 5742   8.139  13.982   9.533 -0.1689  0.3633  0.0583
  359loPI   C3B 5743   8.134  14.013   9.094  0.0356 -0.0740 -0.0471
  359loPI   C4B 5744   8.267  13.959   8.666 -0.2563  0.1301  0.0649
  360loPI    C1 5745  10.086  13.732  10.951  0.0665 -0.1056 -0.1497
  360loPI    C2 5746  10.066  14.045  11.199  0.2323 -0.1643 -0.0605
  360loPI    C3 5747   9.834  13.726  11.261  0.0066 -0.0293 -0.1966
  360loPI   PO4 5748  10.045  13.755  10.708  0.0901 -0.1107 -0.0687
  360loPI   GL1 5749   9.918  14.105  10.412 -0.0463 -0.2001 -0.0606
  360loPI   GL2 5750  10.030  13.800  10.207 -0.0132  0.0076  0.0431
  360loPI   C1A 5751   9.722  14.276  10.046 -0.1302  0.1305  0.0306
  360loPI   C2A 5752   9.688  14.331   9.677  0.0788  0.0005  0.2727
  360loPI   C3A 5753   9.576  14.215   9.262 -0.0613 -0.0258  0.1219
  360loPI   C4A 5754   9.679  14.245   8.771 -0.3639  0.1367 -0.1488
  360loPI   C5A 5755   9.454  14.181   8.333 -0.2808 -0.1531 -0.3484
  360loPI   C6A 5756   9.380  14.297   7.920 -0.2506  0.0992  0.1351
  360loPI   C1B 5757  10.017  13.944   9.811  0.2633 -0.0510 -0.0771
  360loPI   C2B 5758   9.985  13.914   9.299 -0.0604 -0.1103  0.0067
  360loPI   C3B 5759  10.081  13.906   8.851  0.3877  0.1924 -0.1869
  360loPI   C4B 5760  10.132  13.933   8.402 -0.0305  0.0608 -0.2803
  361loPI    C1 5761   5.302  11.246  11.124  0.0939  0.3060  0.1005
  361loPI    C2 5762   5.300  10.887  11.301 -0.0371  0.1433 -0.2229
  361loPI    C3 5763   5.058  11.177  11.433 -0.4081 -0.0942 -0.3647
  361loPI   PO4 5764   5.356  11.085  10.884  0.1988 -0.2595  0.0286
  361loPI   GL1 5765   5.610  10.874  10.614  0.0165 -0.0347  0.0165
  361loPI   GL2 5766   5.634  10.551  10.563 -0.1071  0.3615  0.1022
  361loPI   C1A 5767   5.479  11.151  10.179 -0.0218 -0.2114 -0.0553
  361loPI   C2A 5768   5.333  11.065   9.757 -0.0533  0.3326  0.0234
  361loPI   C3A 5769   5.344  11.025   9.393  0.1273 -0.1432  0.0171
  361loPI   C4A 5770   5.441  10.957   8.943 -0.0109  0.0372  0.1487
  361loPI   C5A 5771   5.370  11.084   8.506  0.1292 -0.1788  0.4998
  361loPI   C6A 5772   5.373  11.115   8.078  0.2611  0.0365 -0.0377
  361loPI   C1B 5773   5.675  10.661  10.164  0.0039  0.1245 -0.3215
  361loPI   C2B 5774   5.652  10.683   9.670 -0.1497 -0.2586 -0.1897
  361loPI   C3B 5775   5.661  10.644   9.298  0.1687  0.2583 -0.1762
  361loPI   C4B 5776   5.696  10.544   8.939  0.0884 -0.0129 -0.1452
  362loPI    C1 5777  17.263  17.329  10.593 -0.0820 -0.0693  0.0160
  362loPI    C2 5778  17.010  17.487  10.860 -0.3969 -0.4890 -0.0222
  362loPI    C3 5779  17.378  17.378  10.973 -0.1707  0.2455  0.0051
  362loPI   PO4 5780  17.295  17.478  10.363 -0.0828  0.0184  0.1451
  362loPI   GL1 5781  17.243  17.587   9.907  0.2814 -0.2120  0.1321
  362loPI   GL2 5782  17.432  17.776   9.627 -0.0428 -0.0732  0.2821
  362loPI   C1A 5783  17.366  17.307   9.682 -0.0014  0.1409 -0.0315
  362loPI   C2A 5784  17.288  16.932   9.452 -0.3111 -0.2422 -0.2163
  362loPI   C3A 5785  17.238  17.131   9.082  0.0591 -0.0470 -0.0188
  362loPI   C4A 5786  17.364  17.140   8.692  0.0044  0.0970  0.0109
  362loPI   C5A 5787  17.632  16.929   8.398 -0.1270 -0.0704  0.0176
  362loPI   C6A 5788  17.775  16.834   7.984 -0.1104  0.0047 -0.0485
  362loPI   C1B 5789  17.105  17.638   9.346 -0.0196  0.0969  0.1034
  362loPI   C2B 5790  17.076  17.602   8.917 -0.1052 -0.1851  0.0727
  362loPI   C3B 5791  17.117  17.458   8.400  0.0009  0.3677  0.2490
  362loPI   C4B 5792  16.902  17.430   7.964 -0.0496  0.0194  0.0824
  363loPI    C1 5793   8.073   3.707  11.076  0.1543  0.0462 -0.0151
  363loPI    C2 5794   8.324   3.763  11.382  0.0028 -0.1604  0.1501
  363loPI    C3 5795   8.080   3.446  11.379 -0.2283  0.0155 -0.0277
  363loPI   PO4 5796   8.309   3.762  10.800  0.3330 -0.2664 -0.1560
  363loPI   GL1 5797   8.199   3.880  10.436 -0.1772 -0.1785 -0.0618
  363loPI   GL2 5798   8.044   3.614  10.238  0.5147 -0.2651 -0.2081
  363loPI   C1A 5799   8.302   4.017  10.015  0.1003  0.1272  0.1074
  363loPI   C2A 5800   8.303   3.979   9.571  0.0543 -0.0510 -0.2936
  363loPI   C3A 5801   8.302   4.085   9.173  0.0024  0.2557  0.0823
  363loPI   C4A 5802   8.344   3.998   8.737  0.1503  0.0992  0.0292
  363loPI   C5A 5803   8.440   4.074   8.292 -0.1611  0.0743  0.1939
  363loPI   C6A 5804   8.724   4.407   8.081  0.3136  0.1479  0.0243
  363loPI   C1B 5805   7.964   3.562   9.744 -0.2285  0.0241 -0.1168
  363loPI   C2B 5806   8.063   3.560   9.303 -0.3000 -0.1346 -0.1881
  363loPI   C3B 5807   8.052   3.541   8.911  0.1967  0.0595  0.0109
  363loPI   C4B 5808   8.268   3.546   8.500 -0.0555  0.0905 -0.2390
  364loPI    C1 5809   6.425   6.517  11.116  0.0188 -0.0363 -0.0038
  364loPI    C2 5810   6.762   6.697  11.235 -0.0579  0.1895 -0.1229
  364loPI    C3 5811   6.412   6.796  11.402 -0.0711 -0.0230 -0.0208
  364loPI   PO4 5812   6.492   6.331  10.985  0.0808  0.0290 -0.0515
  364loPI   GL1 5813   6.482   6.262  10.539  0.0257 -0.0487 -0.0307
  364loPI   GL2 5814   6.724   6.533  10.477 -0.1683  0.0943  0.0072
  364loPI   C1A 5815   6.639   6.178  10.098 -0.3562 -0.2670  0.0611
  364loPI   C2A 5816   6.683   6.191   9.699  0.0765  0.1710 -0.2063
  364loPI   C3A 5817   6.763   6.203   9.251  0.3229 -0.0426 -0.0192
  364loPI   C4A 5818   6.777   6.116   8.814  0.0905  0.2390 -0.0939
  364loPI   C5A 5819   6.873   6.090   8.344 -0.1557  0.2612 -0.1163
  364loPI   C6A 5820   7.339   6.177   8.096 -0.2497 -0.0666  0.2725
  364loPI   C1B 5821   6.916   6.646  10.098  0.1268 -0.0225  0.2866
  364loPI   C2B 5822   7.000   6.619   9.560  0.0922 -0.1641 -0.0170
  364loPI   C3B 5823   6.955   6.670   9.206 -0.2599  0.1807  0.0987
  364loPI   C4B 5824   7.020   6.682   8.707  0.1543 -0.0675  0.2668
  365loPI    C1 5825   6.430  14.888  10.737 -0.2562  0.0414  0.0501
  365loPI    C2 5826   6.510  15.197  10.977 -0.1002 -0.1132  0.1998
  365loPI    C3 5827   6.139  15.143  10.839 -0.1060  0.2013  0.0835
  365loPI   PO4 5828   6.723  14.869  10.575  0.2610  0.0174 -0.2977
  365loPI   GL1 5829   7.018  14.981  10.206  0.1896  0.0903 -0.2449
  365loPI   GL2 5830   6.597  14.975  10.116  0.1271  0.1536 -0.0768
  365loPI   C1A 5831   7.005  15.032   9.773  0.2423  0.0612  0.0973
  365loPI   C2A 5832   6.995  14.982   9.305  0.1046 -0.2207  0.0931
  365loPI   C3A 5833   7.031  14.866   8.857 -0.1828 -0.4270 -0.0618
  365loPI   C4A 5834   6.988  14.761   8.388  0.0447 -0.0628 -0.1650
  365loPI   C5A 5835   7.241  14.804   8.026 -0.0298  0.1676 -0.0332
  365loPI   C6A 5836   7.570  14.634   7.773 -0.0063 -0.1070  0.2291
  365loPI   C1B 5837   6.576  15.279   9.767 -0.1755 -0.1305  0.0815
  365loPI   C2B 5838   6.768  15.390   9.389  0.2280  0.4795 -0.1286
  365loPI   C3B 5839   6.792  15.328   8.978  0.3504 -0.4449  0.2296
  365loPI   C4B 5840   6.772  15.156   8.599  0.1949  0.0578  0.0582
  366loPI    C1 5841   4.028   1.504  10.799  0.0037  0.1569  0.0564
  366loPI    C2 5842   3.853   1.680  11.113 -0.0499  0.1667  0.0213
  366loPI    C3 5843   3.810   1.287  11.054 -0.0466  0.1663  0.0217
  366loPI   PO4 5844   4.003   1.813  10.629  0.1420  0.1151 -0.0869
  366loPI   GL1 5845   4.131   1.770  10.287  0.2243 -0.0870  0.0129
  366loPI   GL2 5846   4.326   2.067  10.334 -0.2338 -0.2328  0.6477
  366loPI   C1A 5847   4.174   1.856   9.841 -0.2055 -0.1273  0.0158
  366loPI   C2A 5848   4.344   1.867   9.426  0.0968  0.2104  0.0676
  366loPI   C3A 5849   4.307   1.886   8.975 -0.1433 -0.1750  0.1708
  366loPI   C4A 5850   4.393   1.974   8.607 -0.1111 -0.3132 -0.1791
  366loPI   C5A 5851   4.453   2.131   8.211  0.0393  0.0827 -0.2230
  366loPI   C6A 5852   4.791   2.355   7.923  0.2202 -0.1071 -0.1811
  366loPI   C1B 5853   4.312   2.334  10.039  0.0871  0.1577 -0.0345
  366loPI   C2B 5854   4.483   2.310   9.784 -0.0039  0.0296  0.1036
  366loPI   C3B 5855   4.512   2.283   9.369 -0.4190 -0.0490 -0.0952
  366loPI   C4B 5856   4.588   2.329   9.026 -0.2037 -0.1055 -0.0122
  367loPI    C1 5857   2.857  11.810  10.666  0.1560 -0.1765  0.0393
  367loPI    C2 5858   2.955  11.889  11.046  0.1562 -0.0833  0.0200
  367loPI    C3 5859   2.582  11.774  10.955  0.1004  0.0923  0.0224
  367loPI   PO4 5860   3.151  11.929  10.541  0.0371 -0.1373  0.0794
  367loPI   GL1 5861   3.254  12.130  10.079  0.1297 -0.0547 -0.3996
  367loPI   GL2 5862   3.065  11.796  10.059 -0.0547 -0.0839  0.0359
  367loPI   C1A 5863   3.315  12.234   9.805  0.2754  0.1688  0.0996
  367loPI   C2A 5864   3.323  12.225   9.281 -0.1569  0.0884 -0.1638
  367loPI   C3A 5865   3.254  12.204   8.882 -0.3125 -0.1390  0.2914
  367loPI   C4A 5866   3.407  12.076   8.502  0.0019  0.1248 -0.0101
  367loPI   C5A 5867   3.463  11.747   8.128 -0.2020 -0.0100 -0.1327
  367loPI   C6A 5868   3.716  11.532   8.148 -0.0625 -0.0682 -0.0896
  367loPI   C1B 5869   3.077  11.643   9.677  0.0584 -0.1611  0.0644
  367loPI   C2B 5870   3.139  11.705   9.318 -0.0891  0.1607 -0.0812
  367loPI   C3B 5871   3.175  11.451   8.918  0.2664 -0.5085 -0.1492
  367loPI   C4B 5872   3.231  11.464   8.515  0.0172  0.2378 -0.3344
  368loPI    C1 5873  18.186  17.662  10.548  0.0328 -0.1166 -0.0094
  368loPI    C2 5874  18.203  17.276  10.651 -0.1306 -0.0783  0.1670
  368loPI    C3 5875  18.464  17.537  10.807  0.0821 -0.1431 -0.0749
  368loPI   PO4 5876  18.031  17.602  10.313  0.3182  0.1484  0.0332
  368loPI   GL1 5877  18.155  17.488   9.787  0.1054 -0.0296  0.1659
  368loPI   GL2 5878  18.354  17.274   9.664  0.3528 -0.2502  0.1397
  368loPI   C1A 5879  17.827  17.419   9.560  0.1951 -0.1000  0.1452
  368loPI   C2A 5880  17.595  17.529   9.210  0.1652  0.0888 -0.1735
  368loPI   C3A 5881  17.538  17.658   8.827 -0.1263  0.1321  0.1715
  368loPI   C4A 5882  17.528  17.691   8.402  0.1190  0.0906 -0.2750
  368loPI   C5A 5883  17.246  17.735   8.024 -0.2205 -0.1985 -0.2972
  368loPI   C6A 5884  16.946  17.909   7.836 -0.0115  0.0554  0.5139
  368loPI   C1B 5885  18.381  17.352   9.229 -0.3067  0.0077  0.3230
  368loPI   C2B 5886  18.373  17.430   8.761 -0.0227  0.1955  0.2881
  368loPI   C3B 5887  18.440  17.389   8.374 -0.2404  0.3393 -0.1836
  368loPI   C4B 5888  18.635  17.186   8.029  0.0597  0.3514 -0.0469
  369loPI    C1 5889   8.904  16.863  10.930 -0.2927  0.1929 -0.0829
  369loPI    C2 5890   8.881  17.210  11.129  0.0138  0.0440  0.2239
  369loPI    C3 5891   8.915  16.866  11.330  0.1496 -0.1283 -0.0851
  369loPI   PO4 5892   8.858  16.999  10.668 -0.1041  0.2722  0.2983
  369loPI   GL1 5893   8.655  16.921  10.233 -0.1296  0.0519 -0.0595
  369loPI   GL2 5894   8.739  16.578  10.089 -0.1092  0.3195 -0.0810
  369loPI   C1A 5895   8.815  16.980   9.810 -0.3161 -0.0032 -0.0166
  369loPI   C2A 5896   8.931  16.920   9.399  0.0825 -0.1860  0.1121
  369loPI   C3A 5897   8.972  16.947   8.993 -0.1675  0.3153 -0.1989
  369loPI   C4A 5898   9.005  16.817   8.738 -0.1729 -0.2393 -0.1906
  369loPI   C5A 5899   8.966  16.975   8.433  0.2575  0.2735  0.1419
  369loPI   C6A 5900   8.816  16.850   7.997 -0.0127  0.2827 -0.0268
  369loPI   C1B 5901   8.625  16.553   9.640 -0.0894 -0.0477  0.1103
  369loPI   C2B 5902   8.793  16.494   9.193  0.3175  0.3122 -0.0704
  369loPI   C3B 5903   8.691  16.390   8.727 -0.3694  0.3640 -0.3056
  369loPI   C4B 5904   8.797  16.486   8.325  0.1280 -0.1856  0.1979
  370loPI    C1 5905   8.660  12.804  11.198 -0.1950 -0.0650 -0.1994
  370loPI    C2 5906   8.956  12.590  11.035  0.0213 -0.0102  0.1102
  370loPI    C3 5907   9.037  12.936  11.217 -0.2346  0.0042  0.2018
  370loPI   PO4 5908   8.500  12.803  11.028 -0.1771  0.0475 -0.3917
  370loPI   GL1 5909   8.497  12.844  10.639 -0.5683 -0.2186  0.0518
  370loPI   GL2 5910   8.627  13.194  10.475  0.1036  0.0095  0.0148
  370loPI   C1A 5911   8.531  12.736  10.205 -0.0892  0.0085  0.2651
  370loPI   C2A 5912   8.577  12.695   9.785  0.0658 -0.0285 -0.0410
  370loPI   C3A 5913   8.557  12.793   9.335 -0.0901 -0.0475 -0.0003
  370loPI   C4A 5914   8.549  12.766   8.980 -0.1153  0.2804  0.1309
  370loPI   C5A 5915   8.767  12.703   8.647 -0.0258  0.1540 -0.0568
  370loPI   C6A 5916   9.261  12.733   8.691  0.0425 -0.0681  0.2753
  370loPI   C1B 5917   8.691  13.202   9.996 -0.1540 -0.0542 -0.0948
  370loPI   C2B 5918   8.711  13.216   9.588  0.1008 -0.3819  0.1994
  370loPI   C3B 5919   8.772  13.217   9.152 -0.1375 -0.1103 -0.1902
  370loPI   C4B 5920   8.810  13.150   8.795 -0.1868  0.2913 -0.1754
  371loPI    C1 5921   7.973   1.433  10.912 -0.0818 -0.0773  0.2360
  371loPI    C2 5922   7.892   1.756  11.132  0.1731  0.3516 -0.2767
  371loPI    C3 5923   8.271   1.640  11.079  0.0882  0.0130 -0.1667
  371loPI   PO4 5924   7.792   1.447  10.727 -0.1572  0.3569  0.0956
  371loPI   GL1 5925   7.833   1.490  10.335  0.2226 -0.4974  0.1789
  371loPI   GL2 5926   7.989   1.268  10.170 -0.0799  0.2973 -0.1252
  371loPI   C1A 5927   7.755   1.708   9.933  0.2972  0.0926 -0.2245
  371loPI   C2A 5928   7.720   1.695   9.486  0.0122  0.1443  0.1204
  371loPI   C3A 5929   7.778   1.651   9.057  0.0570 -0.0848  0.0971
  371loPI   C4A 5930   7.730   1.638   8.594  0.0268 -0.2155  0.0382
  371loPI   C5A 5931   7.988   1.671   8.244 -0.0527  0.1550  0.1274
  371loPI   C6A 5932   8.359   1.783   8.170  0.0094  0.3377 -0.1717
  371loPI   C1B 5933   7.960   1.336   9.701  0.0482 -0.1976 -0.0913
  371loPI   C2B 5934   8.081   1.206   9.362 -0.0527  0.0588  0.1947
  371loPI   C3B 5935   8.017   1.222   8.912 -0.0967  0.2770  0.1560
  371loPI   C4B 5936   8.147   1.358   8.560  0.1091  0.3176 -0.4248
  372loPI    C1 5937   4.741   0.991  10.622 -0.1633 -0.1248  0.0510
  372loPI    C2 5938   4.707   0.797  10.970  0.0397 -0.1489  0.0589
  372loPI    C3 5939   4.661   1.194  10.957 -0.0939 -0.1628  0.0910
  372loPI   PO4 5940   4.647   0.810  10.438 -0.2544 -0.3192  0.0129
  372loPI   GL1 5941   4.831   0.705  10.006  0.1709 -0.0173  0.0929
  372loPI   GL2 5942   5.171   0.608   9.937 -0.0628 -0.2007 -0.1318
  372loPI   C1A 5943   4.817   0.961   9.629  0.1416 -0.2910  0.0659
  372loPI   C2A 5944   4.932   0.964   9.227  0.0729 -0.1461  0.0187
  372loPI   C3A 5945   4.966   1.002   8.861  0.1564 -0.2017 -0.2035
  372loPI   C4A 5946   4.965   1.124   8.413 -0.0639 -0.2667  0.2203
  372loPI   C5A 5947   4.907   0.898   8.048  0.1356  0.0111  0.4429
  372loPI   C6A 5948   4.621   0.745   7.747  0.0787 -0.1309  0.0567
  372loPI   C1B 5949   5.099   0.604   9.558  0.0503 -0.2366 -0.0484
  372loPI   C2B 5950   5.279   0.646   9.255 -0.3517  0.0701 -0.2632
  372loPI   C3B 5951   5.258   0.578   8.859 -0.0736 -0.1302 -0.0380
  372loPI   C4B 5952   5.220   0.618   8.462 -0.0958 -0.0736  0.2815
  373loPI    C1 5953   2.628  16.515  10.426  0.0922  0.2363 -0.3247
  373loPI    C2 5954   2.894  16.777  10.569 -0.0970  0.2266  0.0595
  373loPI    C3 5955   2.813  16.443  10.773 -0.2042  0.0956 -0.1919
  373loPI   PO4 5956   2.631  16.586  10.176  0.1606 -0.1433 -0.1632
  373loPI   GL1 5957   2.844  16.668   9.821  0.2296  0.3798 -0.0835
  373loPI   GL2 5958   2.532  16.858   9.716 -0.2809 -0.1558 -0.0218
  373loPI   C1A 5959   3.055  16.495   9.538 -0.0983 -0.2292 -0.2248
  373loPI   C2A 5960   3.132  16.400   9.136 -0.1130 -0.3577 -0.4124
  373loPI   C3A 5961   3.181  16.307   8.631 -0.2143 -0.1253 -0.0515
  373loPI   C4A 5962   3.355  16.359   8.287 -0.2851 -0.3024 -0.3026
  373loPI   C5A 5963   3.191  16.344   7.895  0.2394 -0.2606  0.1006
  373loPI   C6A 5964   2.774  16.543   7.685  0.0332  0.0157 -0.0048
  373loPI   C1B 5965   2.628  16.706   9.313 -0.1991 -0.0942  0.0879
  373loPI   C2B 5966   2.714  16.643   8.874 -0.3898 -0.0640  0.1206
  373loPI   C3B 5967   2.943  16.670   8.468 -0.0334 -0.1020 -0.2741
  373loPI   C4B 5968   2.933  16.720   8.141  0.1126 -0.0255  0.0698
  374loPI    C1 5969   5.652  18.187  10.613  0.0050  0.0032 -0.0063
  374loPI    C2 5970   5.302  18.289  10.778 -0.0508  0.0139 -0.1305
  374loPI    C3 5971   5.468  17.935  10.864 -0.0436  0.0496  0.0048
  374loPI   PO4 5972   5.621  18.277  10.346 -0.1150  0.2457  0.2778
  374loPI   GL1 5973   5.847  18.338  10.017  0.1195  0.2672 -0.2490
  374loPI   GL2 5974   5.708  18.639   9.933  0.0682 -0.0779 -0.1231
  374loPI   C1A 5975   5.805  18.282   9.576 -0.2628 -0.2863  0.2445
  374loPI   C2A 5976   6.024  18.290   9.130  0.1384 -0.0547 -0.0388
  374loPI   C3A 5977   6.052  18.346   8.703  0.0454 -0.2682 -0.0950
  374loPI   C4A 5978   6.191  18.402   8.226 -0.0817 -0.1501 -0.2399
  374loPI   C5A 5979   6.227  18.146   7.751  0.3452  0.0686 -0.0102
  374loPI   C6A 5980   6.569  17.831   7.581  0.0084 -0.4918 -0.0689
  374loPI   C1B 5981   5.654  18.800   9.607 -0.3987  0.0444 -0.0406
  374loPI   C2B 5982   5.760  18.762   9.118  0.0508  0.1075  0.0601
  374loPI   C3B 5983   5.703  18.822   8.642 -0.1243  0.3710 -0.0762
  374loPI   C4B 5984   5.982  18.828   8.332  0.0925  0.2578 -0.3650
  375loPI    C1 5985   3.791   7.156  10.911  0.0011 -0.1304  0.0205
  375loPI    C2 5986   4.007   7.160  11.248  0.0354 -0.2498  0.0004
  375loPI    C3 5987   3.611   7.216  11.263  0.0417 -0.2206  0.0570
  375loPI   PO4 5988   3.902   7.332  10.759  0.1543 -0.0119 -0.0900
  375loPI   GL1 5989   3.837   7.470  10.251 -0.2942 -0.2414 -0.1125
  375loPI   GL2 5990   4.058   7.135  10.177 -0.3094  0.2036  0.3325
  375loPI   C1A 5991   3.855   7.659   9.889  0.1069  0.1825 -0.3551
  375loPI   C2A 5992   3.967   7.753   9.527  0.0705 -0.1642  0.1364
  375loPI   C3A 5993   3.898   7.725   9.168 -0.1869  0.0182  0.1987
  375loPI   C4A 5994   3.898   7.624   8.723  0.1290  0.1161 -0.0559
  375loPI   C5A 5995   4.154   7.658   8.250 -0.0916  0.1978  0.0118
  375loPI   C6A 5996   4.146   7.843   7.870  0.0063 -0.1671 -0.4011
  375loPI   C1B 5997   4.124   7.248   9.836  0.0320  0.2032 -0.2306
  375loPI   C2B 5998   4.245   7.347   9.383  0.2220  0.2587 -0.1038
  375loPI   C3B 5999   4.173   7.235   8.936  0.2026  0.0680 -0.1368
  375loPI   C4B 6000   4.109   7.191   8.462  0.1222  0.0474 -0.1785
  376loPI    C1 6001   0.431   8.798  10.563 -0.1188 -0.1320 -0.2470
  376loPI    C2 6002   0.599   8.633  10.886  0.1087 -0.0876 -0.3408
  376loPI    C3 6003   0.403   8.980  10.918  0.4816  0.1262 -0.3201
  376loPI   PO4 6004   0.596   8.705  10.378  0.0766  0.0634 -0.1410
  376loPI   GL1 6005   0.805   8.811   9.966  0.2442 -0.4453  0.4570
  376loPI   GL2 6006   0.581   8.990   9.964 -0.0251 -0.1787 -0.1568
  376loPI   C1A 6007   0.900   8.676   9.569 -0.0230  0.0819 -0.2995
  376loPI   C2A 6008   0.870   8.653   9.164  0.0882 -0.1015  0.1048
  376loPI   C3A 6009   0.885   8.563   8.810 -0.0518  0.0490  0.3386
  376loPI   C4A 6010   0.844   8.457   8.387 -0.4495  0.1054 -0.2328
  376loPI   C5A 6011   0.633   8.578   8.019 -0.2625 -0.1416 -0.2538
  376loPI   C6A 6012   0.890   8.643   7.617 -0.0853  0.0052 -0.1278
  376loPI   C1B 6013   0.597   9.038   9.446  0.0738  0.1214 -0.0026
  376loPI   C2B 6014   0.572   8.987   8.957 -0.1950 -0.2870  0.0652
  376loPI   C3B 6015   0.437   9.000   8.584  0.0271  0.1513 -0.0139
  376loPI   C4B 6016   0.364   8.969   8.186  0.0704 -0.1243  0.0684
  377loPI    C1 6017   4.115  17.265  10.794 -0.0700  0.1679 -0.0683
  377loPI    C2 6018   4.394  17.413  11.039  0.0693 -0.1236 -0.0455
  377loPI    C3 6019   4.062  17.249  11.190  0.0263 -0.0531 -0.0627
  377loPI   PO4 6020   4.390  17.282  10.533 -0.3227  0.1711 -0.4469
  377loPI   GL1 6021   4.627  17.430  10.216 -0.1710 -0.1710 -0.1345
  377loPI   GL2 6022   4.466  17.758  10.195  0.1220 -0.0329 -0.0071
  377loPI   C1A 6023   4.664  17.320   9.707  0.1277 -0.1443 -0.2467
  377loPI   C2A 6024   4.635  17.304   9.333  0.0937  0.3677 -0.0745
  377loPI   C3A 6025   4.716  17.328   8.900 -0.0191  0.3086  0.1498
  377loPI   C4A 6026   4.699  17.404   8.444  0.0267  0.0796 -0.1660
  377loPI   C5A 6027   4.703  17.405   8.041  0.0377  0.1448  0.1683
  377loPI   C6A 6028   4.584  17.242   7.617  0.0290  0.2680  0.0407
  377loPI   C1B 6029   4.327  17.729   9.763 -0.2488  0.0857  0.1568
  377loPI   C2B 6030   4.351  17.697   9.273 -0.0696 -0.0897  0.2055
  377loPI   C3B 6031   4.379  17.728   8.811 -0.1775  0.1437  0.0803
  377loPI   C4B 6032   4.375  17.819   8.265 -0.1411  0.3426  0.1980
  378loPI    C1 6033  13.498  12.038  11.119  0.1482 -0.0103 -0.0663
  378loPI    C2 6034  13.757  11.940  11.408  0.1349  0.2640  0.0409
  378loPI    C3 6035  13.605  12.310  11.392  0.0692  0.2263 -0.2675
  378loPI   PO4 6036  13.527  12.009  10.803 -0.1465  0.2682 -0.4082
  378loPI   GL1 6037  13.714  11.932  10.530 -0.1540  0.2407  0.0237
  378loPI   GL2 6038  14.016  11.876  10.516 -0.0160  0.1281 -0.0141
  378loPI   C1A 6039  13.616  11.999  10.174 -0.1411  0.0047 -0.0005
  378loPI   C2A 6040  13.668  12.109   9.709  0.0131 -0.0970 -0.2070
  378loPI   C3A 6041  13.568  11.965   9.322  0.0355 -0.0224  0.0774
  378loPI   C4A 6042  13.725  11.921   8.913  0.1352 -0.0880  0.1216
  378loPI   C5A 6043  13.737  11.990   8.446  0.0414 -0.0785  0.0157
  378loPI   C6A 6044  13.703  12.308   8.060  0.1211  0.0025  0.2221
  378loPI   C1B 6045  14.104  12.076  10.088  0.0190  0.2122 -0.0389
  378loPI   C2B 6046  14.113  11.987   9.663  0.0433 -0.1194  0.0823
  378loPI   C3B 6047  14.092  11.909   9.245  0.1358 -0.0603  0.2738
  378loPI   C4B 6048  14.216  11.915   8.742 -0.1760  0.1242  0.3336
  379loPI    C1 6049   7.355  17.783  10.773  0.1471  0.4031  0.1208
  379loPI    C2 6050   7.590  17.497  10.925  0.0080  0.1760 -0.0846
  379loPI    C3 6051   7.315  17.673  11.156 -0.0635 -0.0221 -0.0168
  379loPI   PO4 6052   7.513  17.871  10.580 -0.0629  0.3442 -0.1238
  379loPI   GL1 6053   7.686  17.805  10.234 -0.2031  0.2732  0.0405
  379loPI   GL2 6054   7.929  17.762  10.300  0.0604 -0.3699  0.2933
  379loPI   C1A 6055   7.710  17.776   9.870  0.0044  0.0019  0.3023
  379loPI   C2A 6056   7.713  17.789   9.383  0.2130 -0.0834 -0.1118
  379loPI   C3A 6057   7.716  17.648   8.942  0.0269  0.0909 -0.1982
  379loPI   C4A 6058   7.770  17.663   8.470 -0.0824 -0.1456 -0.2004
  379loPI   C5A 6059   7.766  17.636   8.073 -0.4750 -0.2036 -0.1547
  379loPI   C6A 6060   7.732  17.524   7.705 -0.2714  0.3659  0.0518
  379loPI   C1B 6061   8.208  17.808   9.962 -0.0108 -0.1889 -0.0933
  379loPI   C2B 6062   8.175  17.848   9.557 -0.0227 -0.0974 -0.0161
  379loPI   C3B 6063   8.150  17.925   9.090 -0.0491  0.1162  0.1432
  379loPI   C4B 6064   8.290  17.703   8.670  0.0874 -0.0491 -0.0952
  380loPI    C1 6065  16.786   8.235  10.882  0.1439 -0.0770  0.0921
  380loPI    C2 6066  16.418   8.367  10.798  0.1615 -0.0801  0.0091
  380loPI    C3 6067  16.590   8.464  11.146  0.0629 -0.1198  0.0695
  380loPI   PO4 6068  17.001   8.252  10.751  0.0477  0.1382  0.1780
  380loPI   GL1 6069  16.996   8.235  10.340  0.1489 -0.3158  0.0794
  380loPI   GL2 6070  16.668   8.488  10.282 -0.1302  0.0881  0.4159
  380loPI   C1A 6071  17.029   8.275   9.970  0.1250  0.5807  0.0846
  380loPI   C2A 6072  17.021   8.291   9.502 -0.1969 -0.0878  0.0911
  380loPI   C3A 6073  17.064   8.343   9.139 -0.0320 -0.1632 -0.0282
  380loPI   C4A 6074  16.965   8.310   8.712 -0.0103 -0.0501  0.1790
  380loPI   C5A 6075  16.891   8.289   8.276  0.0972  0.0186  0.0785
  380loPI   C6A 6076  17.097   8.220   7.956 -0.1985 -0.0506  0.2668
  380loPI   C1B 6077  16.739   8.619   9.784  0.0680 -0.2973 -0.0986
  380loPI   C2B 6078  16.695   8.712   9.381 -0.0708  0.0894  0.2296
  380loPI   C3B 6079  16.654   8.650   8.894  0.1899 -0.2438 -0.1047
  380loPI   C4B 6080  16.563   8.615   8.496  0.1416 -0.2206  0.0006
  381loPI    C1 6081  18.196  12.230  10.468 -0.0159 -0.1366 -0.1257
  381loPI    C2 6082  17.988  12.556  10.568  0.2546  0.0730 -0.2343
  381loPI    C3 6083  17.928  12.213  10.765 -0.0175  0.1915 -0.1049
  381loPI   PO4 6084  18.220  12.338  10.218  0.0407 -0.0618  0.1149
  381loPI   GL1 6085  18.211  12.522   9.825  0.3319 -0.0931 -0.5665
  381loPI   GL2 6086  18.124  12.847   9.666 -0.0760 -0.0417 -0.0174
  381loPI   C1A 6087  18.251  12.490   9.384  0.1129 -0.1434  0.0393
  381loPI   C2A 6088  18.197  12.468   8.959 -0.1726 -0.2157  0.2855
  381loPI   C3A 6089  18.380  12.583   8.521 -0.3239  0.2459  0.0093
  381loPI   C4A 6090  18.379  12.798   8.083 -0.0356  0.0893  0.0816
  381loPI   C5A 6091  18.339  13.101   7.757  0.0668 -0.0639 -0.0337
  381loPI   C6A 6092  18.501  13.626   7.730  0.3319  0.0613  0.2388
  381loPI   C1B 6093  17.977  12.965   9.259  0.0063 -0.1904  0.3203
  381loPI   C2B 6094  17.995  12.887   8.781  0.0432 -0.0205 -0.0965
  381loPI   C3B 6095  17.959  12.920   8.299  0.1559 -0.0794 -0.1880
  381loPI   C4B 6096  17.849  12.803   7.955  0.0858 -0.1312  0.4949
  382loPI    C1 6097  12.208  13.688  11.057  0.1544 -0.0756 -0.1015
  382loPI    C2 6098  11.953  13.574  11.343  0.1765 -0.0438 -0.0689
  382loPI    C3 6099  12.347  13.546  11.404  0.1816 -0.0066 -0.0839
  382loPI   PO4 6100  12.146  13.967  10.982  0.1237  0.0616  0.0268
  382loPI   GL1 6101  12.142  13.992  10.586 -0.0586 -0.0698  0.3004
  382loPI   GL2 6102  12.297  13.747  10.524 -0.1130 -0.4174  0.1134
  382loPI   C1A 6103  12.065  14.104  10.135 -0.0707 -0.1903 -0.0661
  382loPI   C2A 6104  12.118  14.061   9.713 -0.2666 -0.0460 -0.1878
  382loPI   C3A 6105  12.104  13.999   9.183  0.0434  0.0657  0.0719
  382loPI   C4A 6106  12.094  14.201   8.809  0.0215 -0.1734 -0.1552
  382loPI   C5A 6107  12.146  14.311   8.388 -0.0645  0.2358 -0.1805
  382loPI   C6A 6108  12.430  14.465   8.177 -0.1448  0.4204 -0.0026
  382loPI   C1B 6109  12.373  13.724  10.140 -0.0951  0.2106  0.3625
  382loPI   C2B 6110  12.407  13.637   9.717 -0.0183  0.0726 -0.1255
  382loPI   C3B 6111  12.453  13.657   9.359  0.1609 -0.5473 -0.2742
  382loPI   C4B 6112  12.481  13.558   9.034 -0.2415 -0.0187  0.0289
  383loPI    C1 6113   2.948   0.816  10.342 -0.0183 -0.0491  0.2507
  383loPI    C2 6114   2.773   0.988  10.657 -0.4440 -0.2011  0.1045
  383loPI    C3 6115   2.931   0.623  10.692 -0.1369 -0.0587  0.2403
  383loPI   PO4 6116   2.793   0.766  10.098  0.0155 -0.2251  0.2066
  383loPI   GL1 6117   2.785   1.110   9.792  0.0178  0.3078  0.0883
  383loPI   GL2 6118   2.669   0.867   9.657  0.1614  0.0226 -0.0400
  383loPI   C1A 6119   3.002   1.243   9.488  0.0311 -0.0763  0.2138
  383loPI   C2A 6120   3.013   1.226   9.118 -0.0565  0.2310  0.1414
  383loPI   C3A 6121   3.074   1.266   8.669  0.0911 -0.2663  0.0654
  383loPI   C4A 6122   3.196   1.290   8.250 -0.1472 -0.2216 -0.3288
  383loPI   C5A 6123   3.082   1.531   7.881 -0.4099  0.1591  0.2691
  383loPI   C6A 6124   3.233   1.840   7.670  0.2023 -0.1552 -0.0130
  383loPI   C1B 6125   2.777   0.774   9.170 -0.0781 -0.0782  0.0910
  383loPI   C2B 6126   2.865   0.847   8.706 -0.0314 -0.0392  0.1992
  383loPI   C3B 6127   2.964   0.840   8.208  0.0786 -0.0936  0.2569
  383loPI   C4B 6128   3.101   0.634   7.842  0.0747 -0.1803  0.2157
  384loPI    C1 6129   4.475   8.906  10.907  0.2720  0.0760 -0.0491
  384loPI    C2 6130   4.186   8.863  11.180  0.0523  0.0886 -0.2755
  384loPI    C3 6131   4.489   9.116  11.247 -0.0556  0.1711 -0.0911
  384loPI   PO4 6132   4.385   8.909  10.671  0.1414 -0.0009  0.1203
  384loPI   GL1 6133   4.380   8.969  10.244 -0.4897 -0.0143  0.0809
  384loPI   GL2 6134   4.329   8.769  10.049 -0.3642  0.0404  0.1473
  384loPI   C1A 6135   4.499   9.224   9.828 -0.2016 -0.0162  0.1393
  384loPI   C2A 6136   4.465   9.188   9.508 -0.0250 -0.2768  0.2977
  384loPI   C3A 6137   4.491   9.077   9.055 -0.1002 -0.3123  0.1085
  384loPI   C4A 6138   4.543   9.113   8.571 -0.0265 -0.0181  0.1947
  384loPI   C5A 6139   4.422   9.174   8.131  0.0543 -0.3300  0.0503
  384loPI   C6A 6140   4.492   9.352   7.724  0.1555  0.1647  0.2666
  384loPI   C1B 6141   4.279   8.770   9.764  0.2754  0.0181  0.1068
  384loPI   C2B 6142   4.293   8.685   9.381 -0.2753 -0.0544  0.2362
  384loPI   C3B 6143   4.362   8.583   8.928 -0.1172 -0.0113  0.2073
  384loPI   C4B 6144   4.305   8.586   8.585  0.0339  0.2427 -0.3319
  385loPI    C1 6145  17.541  16.081  10.195  0.0397 -0.0568 -0.1368
  385loPI    C2 6146  17.246  16.136  10.461  0.0739 -0.2103 -0.0660
  385loPI    C3 6147  17.592  15.972  10.577  0.1553 -0.1120 -0.1678
  385loPI   PO4 6148  17.498  16.264  10.020  0.1736 -0.5642 -0.1963
  385loPI   GL1 6149  17.846  16.442   9.659  0.0019  0.2868 -0.0531
  385loPI   GL2 6150  18.107  16.472   9.456  0.1533  0.0200  0.1810
  385loPI   C1A 6151  17.643  16.580   9.428  0.2716 -0.3210  0.1512
  385loPI   C2A 6152  17.381  16.668   9.049 -0.0025  0.2709  0.0244
  385loPI   C3A 6153  17.320  16.602   8.530  0.0790  0.0739 -0.0442
  385loPI   C4A 6154  17.302  16.549   8.093  0.0068  0.0903 -0.1701
  385loPI   C5A 6155  17.224  16.670   7.808  0.0022  0.1509 -0.0599
  385loPI   C6A 6156  17.577  16.759   7.494  0.1739  0.3105 -0.5094
  385loPI   C1B 6157  18.022  16.571   9.052  0.0742  0.1828  0.4595
  385loPI   C2B 6158  18.056  16.685   8.675 -0.1707  0.2573 -0.1402
  385loPI   C3B 6159  18.141  16.851   8.351  0.7357  0.2143 -0.0923
  385loPI   C4B 6160  18.270  16.884   7.874 -0.1772 -0.1395  0.0526
  386loPI    C1 6161  10.013   0.639  11.053 -0.1843  0.0089 -0.1078
  386loPI    C2 6162   9.715   0.842  11.225 -0.1948 -0.1697  0.0884
  386loPI    C3 6163   9.782   0.461  11.326 -0.0392 -0.1988 -0.1179
  386loPI   PO4 6164   9.962   0.757  10.746  0.2440  0.3227 -0.0215
  386loPI   GL1 6165   9.725   0.628  10.366 -0.0092  0.0056 -0.0577
  386loPI   GL2 6166   9.575   0.958  10.322 -0.1162  0.2322 -0.0201
  386loPI   C1A 6167   9.584   0.595   9.940  0.3759  0.2992  0.0677
  386loPI   C2A 6168   9.631   0.569   9.573  0.1499  0.1006  0.1551
  386loPI   C3A 6169   9.712   0.490   9.199 -0.3228 -0.2448  0.0705
  386loPI   C4A 6170   9.753   0.587   8.788  0.5476 -0.2790 -0.0048
  386loPI   C5A 6171   9.848   0.840   8.359  0.0153 -0.0119 -0.1481
  386loPI   C6A 6172   9.609   1.230   8.165 -0.2200  0.2534 -0.2896
  386loPI   C1B 6173   9.305   1.003   9.884 -0.0113  0.0703 -0.1211
  386loPI   C2B 6174   9.321   0.964   9.438  0.1373  0.0071  0.1567
  386loPI   C3B 6175   9.525   0.961   9.058 -0.3385 -0.1282 -0.1770
  386loPI   C4B 6176   9.432   1.022   8.628 -0.4656  0.0318  0.0476
  387loPI    C1 6177  14.319   2.855  10.644  0.0034  0.2796  0.1582
  387loPI    C2 6178  14.053   2.589  10.782  0.1271  0.0179 -0.0981
  387loPI    C3 6179  14.342   2.725  11.022 -0.1215  0.1601  0.1258
  387loPI   PO4 6180  14.454   2.781  10.456  0.0934 -0.0344  0.0792
  387loPI   GL1 6181  14.359   2.674  10.128 -0.0675  0.2581  0.1652
  387loPI   GL2 6182  14.351   2.356  10.195  0.1560 -0.1454 -0.2646
  387loPI   C1A 6183  14.389   2.565   9.744 -0.0098 -0.3130 -0.1408
  387loPI   C2A 6184  14.392   2.536   9.310 -0.1465 -0.0220  0.3398
  387loPI   C3A 6185  14.413   2.484   8.844 -0.0768 -0.2475  0.2713
  387loPI   C4A 6186  14.486   2.458   8.433 -0.0189 -0.1416  0.0582
  387loPI   C5A 6187  14.323   2.246   8.068  0.1270 -0.0012 -0.2475
  387loPI   C6A 6188  13.893   2.241   8.120 -0.1829  0.1247 -0.0197
  387loPI   C1B 6189  14.228   2.054   9.860  0.1738 -0.2057  0.0326
  387loPI   C2B 6190  14.245   1.998   9.378  0.0136  0.3112 -0.1125
  387loPI   C3B 6191  14.275   1.924   9.010  0.1419  0.2003  0.2187
  387loPI   C4B 6192  14.290   1.978   8.573  0.1037 -0.1617 -0.1367
  388loPI    C1 6193  11.956  16.858  11.077  0.1106  0.2096  0.1036
  388loPI    C2 6194  11.692  16.762  11.362 -0.3119  0.0860 -0.3158
  388loPI    C3 6195  11.817  17.140  11.324 -0.1001  0.0692  0.1484
  388loPI   PO4 6196  11.816  16.665  10.823  0.0393  0.1200  0.1716
  388loPI   GL1 6197  11.917  16.820  10.360 -0.0354 -0.1440  0.2878
  388loPI   GL2 6198  12.235  16.945  10.214  0.1949 -0.0153  0.0394
  388loPI   C1A 6199  11.776  16.784   9.981  0.1058 -0.1240  0.1822
  388loPI   C2A 6200  11.821  16.715   9.623 -0.1708 -0.2704 -0.0419
  388loPI   C3A 6201  11.879  16.702   9.166  0.3293  0.0897 -0.0740
  388loPI   C4A 6202  11.913  16.729   8.698 -0.0820 -0.2655  0.2032
  388loPI   C5A 6203  11.759  16.494   8.350  0.2971  0.0480 -0.1950
  388loPI   C6A 6204  11.371  16.346   8.183  0.3680 -0.3037  0.0017
  388loPI   C1B 6205  12.279  16.847   9.780 -0.1437 -0.1046  0.1983
  388loPI   C2B 6206  12.289  16.867   9.413 -0.4998 -0.2740  0.1003
  388loPI   C3B 6207  12.372  16.755   9.011 -0.1587 -0.0697 -0.1564
  388loPI   C4B 6208  12.386  16.808   8.588  0.1166  0.4813  0.2755
  389loPI    C1 6209   4.131   6.800  10.863  0.0578  0.2496  0.0822
  389loPI    C2 6210   4.397   6.545  11.019  0.0541  0.1121 -0.1329
  389loPI    C3 6211   4.044   6.601  11.199 -0.0305 -0.1961 -0.1964
  389loPI   PO4 6212   4.084   6.758  10.577  0.1581 -0.0066  0.0933
  389loPI   GL1 6213   4.209   6.648  10.241 -0.2456  0.2468  0.0983
  389loPI   GL2 6214   3.990   6.635  10.120  0.4359  0.0197 -0.1259
  389loPI   C1A 6215   4.429   6.867   9.922  0.0028  0.0686 -0.0040
  389loPI   C2A 6216   4.567   6.944   9.488  0.1332 -0.2362  0.0820
  389loPI   C3A 6217   4.498   6.914   9.030  0.0424 -0.0545  0.2116
  389loPI   C4A 6218   4.427   6.835   8.597 -0.0443  0.1118 -0.0609
  389loPI   C5A 6219   4.320   6.852   8.133 -0.0310  0.1076  0.2934
  389loPI   C6A 6220   4.389   6.695   7.762 -0.0035  0.0299 -0.0246
  389loPI   C1B 6221   3.957   6.776   9.790  0.3465 -0.2178 -0.2196
  389loPI   C2B 6222   3.999   6.858   9.379 -0.2498  0.2531  0.3536
  389loPI   C3B 6223   3.988   6.786   8.961  0.0569 -0.0996  0.1164
  389loPI   C4B 6224   3.927   6.635   8.512 -0.2208  0.0609 -0.3054
  390loPI    C1 6225  18.030   8.111  10.579  0.1263 -0.0202 -0.0577
  390loPI    C2 6226  17.825   7.767  10.584 -0.2684  0.2087 -0.0568
  390loPI    C3 6227  17.806   8.016  10.897 -0.1718  0.3391 -0.1537
  390loPI   PO4 6228  17.968   8.159  10.324  0.0755 -0.3124 -0.1417
  390loPI   GL1 6229  17.965   8.176   9.864 -0.0363  0.0647  0.2116
  390loPI   GL2 6230  18.024   8.479   9.943 -0.2018 -0.2884 -0.0279
  390loPI   C1A 6231  17.804   7.982   9.456 -0.0316 -0.0647  0.0604
  390loPI   C2A 6232  17.774   7.918   9.015  0.0239 -0.0001  0.3402
  390loPI   C3A 6233  17.718   7.945   8.470 -0.0733 -0.0248  0.2998
  390loPI   C4A 6234  17.543   7.980   8.016 -0.2973  0.1822 -0.0355
  390loPI   C5A 6235  17.646   7.779   7.679 -0.0465  0.2527 -0.0845
  390loPI   C6A 6236  17.549   7.583   7.419  0.2415  0.0810  0.3186
  390loPI   C1B 6237  18.092   8.434   9.486 -0.1063  0.2405 -0.1223
  390loPI   C2B 6238  18.085   8.432   9.008 -0.0978 -0.1994 -0.3568
  390loPI   C3B 6239  18.007   8.328   8.546 -0.2321 -0.1338 -0.1037
  390loPI   C4B 6240  17.939   8.278   8.111 -0.0973  0.0996 -0.2132
  391loPI    C1 6241   5.828  10.996  11.231  0.4094  0.1006 -0.2639
  391loPI    C2 6242   6.036  11.259  11.449 -0.0733  0.1711  0.1307
  391loPI    C3 6243   5.640  11.299  11.413 -0.0721 -0.1538 -0.3232
  391loPI   PO4 6244   5.917  11.000  10.984  0.2686 -0.0721  0.0819
  391loPI   GL1 6245   6.096  11.097  10.653  0.3617  0.0043  0.2346
  391loPI   GL2 6246   6.148  10.798  10.425 -0.1528 -0.3018  0.0893
  391loPI   C1A 6247   5.969  11.235  10.160 -0.1335  0.0430 -0.1804
  391loPI   C2A 6248   5.838  11.153   9.765  0.5102 -0.2039 -0.0708
  391loPI   C3A 6249   5.852  11.105   9.316 -0.0409  0.3796  0.2877
  391loPI   C4A 6250   5.888  11.074   8.905 -0.2339 -0.0829 -0.0384
  391loPI   C5A 6251   5.930  11.260   8.573 -0.0618 -0.2439  0.2111
  391loPI   C6A 6252   6.013  11.036   8.257  0.2067 -0.5012  0.3862
  391loPI   C1B 6253   6.149  10.725   9.982  0.0617 -0.3967  0.0605
  391loPI   C2B 6254   6.186  10.628   9.543  0.1089  0.2334 -0.0780
  391loPI   C3B 6255   6.173  10.717   9.032 -0.1119 -0.1970  0.2763
  391loPI   C4B 6256   6.203  10.552   8.607 -0.0819  0.1626  0.0547
  392loPI    C1 6257  11.220   6.151  11.065  0.0678  0.0742  0.1429
  392loPI    C2 6258  11.233   5.773  11.195  0.2319  0.0055 -0.0670
  392loPI    C3 6259  10.910   5.999  11.267  0.0187 -0.2594 -0.1734
  392loPI   PO4 6260  11.161   6.178  10.839 -0.3399 -0.0488 -0.0599
  392loPI   GL1 6261  11.257   6.118  10.424  0.0601 -0.0796 -0.0540
  392loPI   GL2 6262  11.511   5.949  10.414 -0.2503  0.0636  0.1390
  392loPI   C1A 6263  11.089   6.206   9.931  0.2997 -0.1442 -0.4535
  392loPI   C2A 6264  11.067   6.089   9.446  0.0756  0.2554  0.1461
  392loPI   C3A 6265  11.168   6.129   8.963 -0.2299 -0.1127 -0.2351
  392loPI   C4A 6266  11.302   6.173   8.572  0.0684  0.0761 -0.1532
  392loPI   C5A 6267  11.352   5.989   8.213  0.1677 -0.0247 -0.2343
  392loPI   C6A 6268  11.576   6.110   7.773  0.0430 -0.4976 -0.0511
  392loPI   C1B 6269  11.422   5.845   9.948 -0.0227  0.2175  0.1037
  392loPI   C2B 6270  11.473   5.805   9.489  0.0795  0.1547  0.1077
  392loPI   C3B 6271  11.480   5.744   9.071 -0.3245 -0.3430 -0.1493
  392loPI   C4B 6272  11.606   5.760   8.609  0.0761 -0.1636 -0.1745
  393loPI    C1 6273  12.263   2.467  10.937  0.3711 -0.0048  0.0753
  393loPI    C2 6274  12.258   2.125  11.143  0.4104 -0.0150  0.0594
  393loPI    C3 6275  12.443   2.446  11.294  0.0100  0.1232  0.2695
  393loPI   PO4 6276  12.241   2.388  10.691 -0.1455  0.1601 -0.3288
  393loPI   GL1 6277  12.351   2.196  10.321 -0.3901  0.0247  0.3989
  393loPI   GL2 6278  11.969   2.294  10.275  0.0578  0.3019  0.2083
  393loPI   C1A 6279  12.328   2.343   9.873  0.3131  0.3902 -0.2596
  393loPI   C2A 6280  12.481   2.176   9.465 -0.2820  0.0022  0.0573
  393loPI   C3A 6281  12.436   2.140   9.053 -0.0211  0.1123  0.0665
  393loPI   C4A 6282  12.432   2.051   8.618 -0.0860  0.1863 -0.3790
  393loPI   C5A 6283  12.349   2.287   8.335  0.0085  0.1309 -0.1135
  393loPI   C6A 6284  12.226   2.644   8.171  0.2721 -0.0738 -0.0553
  393loPI   C1B 6285  11.843   2.212   9.834  0.0497  0.0217 -0.0093
  393loPI   C2B 6286  11.871   2.171   9.405 -0.0132  0.3529  0.0864
  393loPI   C3B 6287  11.953   2.055   8.975  0.1872  0.0676 -0.0306
  393loPI   C4B 6288  11.862   2.037   8.536  0.0546  0.2421 -0.3594
  394loPI    C1 6289   9.871   7.974  11.081  0.0186  0.1488  0.0292
  394loPI    C2 6290  10.226   8.110  11.206  0.1338 -0.2983  0.2072
  394loPI    C3 6291   9.904   8.149  11.440  0.0511  0.1398  0.0307
  394loPI   PO4 6292   9.880   8.085  10.726 -0.1620 -0.1131 -0.1393
  394loPI   GL1 6293  10.128   7.985  10.318  0.0668 -0.2026  0.4364
  394loPI   GL2 6294   9.881   7.759  10.259  0.1394 -0.2860  0.0974
  394loPI   C1A 6295  10.365   7.914   9.901 -0.0123  0.1168  0.4311
  394loPI   C2A 6296  10.364   7.996   9.465  0.1153 -0.0028 -0.0177
  394loPI   C3A 6297  10.374   8.000   9.085 -0.2621  0.2016 -0.2364
  394loPI   C4A 6298  10.524   7.900   8.683  0.0912 -0.0772 -0.2748
  394loPI   C5A 6299  10.710   7.872   8.307 -0.1488 -0.1932  0.1952
  394loPI   C6A 6300  10.553   7.600   7.951  0.3083  0.2915  0.0163
  394loPI   C1B 6301   9.850   7.871   9.825 -0.1012 -0.0500  0.1459
  394loPI   C2B 6302   9.886   7.895   9.407 -0.0679 -0.0570  0.0454
  394loPI   C3B 6303   9.855   7.923   9.011  0.1319 -0.1365  0.1838
  394loPI   C4B 6304   9.964   7.948   8.629  0.0013  0.0326 -0.4403
  395loPI    C1 6305  11.513  12.087  11.306 -0.3959  0.0432 -0.1686
  395loPI    C2 6306  11.733  11.832  11.522 -0.0795  0.2454 -0.2464
  395loPI    C3 6307  11.370  11.942  11.651 -0.1248 -0.0653 -0.0995
  395loPI   PO4 6308  11.545  12.032  11.051  0.1953  0.2254  0.0478
  395loPI   GL1 6309  11.819  12.081  10.739  0.2874 -0.2514 -0.0008
  395loPI   GL2 6310  12.092  11.970  10.686 -0.1782  0.0324 -0.1096
  395loPI   C1A 6311  11.686  12.269  10.389 -0.0837 -0.0653 -0.3894
  395loPI   C2A 6312  11.727  12.187  10.021  0.1559 -0.2955 -0.0537
  395loPI   C3A 6313  11.872  12.214   9.668  0.3365 -0.2223  0.2598
  395loPI   C4A 6314  11.811  12.226   9.268 -0.2041 -0.0399  0.1716
  395loPI   C5A 6315  11.893  12.235   8.858  0.2152  0.1317  0.1060
  395loPI   C6A 6316  12.065  11.920   8.649 -0.0325 -0.0240  0.0008
  395loPI   C1B 6317  11.983  11.865  10.334  0.1849  0.0961 -0.0505
  395loPI   C2B 6318  12.029  11.796   9.933 -0.0509  0.4258 -0.0007
  395loPI   C3B 6319  12.085  11.810   9.460  0.1035 -0.1499  0.0417
  395loPI   C4B 6320  12.064  11.762   9.117 -0.4305 -0.2074 -0.0661
  396loPI    C1 6321   1.295   0.748  10.416 -0.1271 -0.0139  0.0798
  396loPI    C2 6322   1.030   0.454  10.474 -0.2947  0.1336  0.0720
  396loPI    C3 6323   1.233   0.603  10.784 -0.1015 -0.0882  0.0550
  396loPI   PO4 6324   1.385   0.714  10.245 -0.0299 -0.0792 -0.4863
  396loPI   GL1 6325   1.689   0.482   9.975  0.1577 -0.1623 -0.1282
  396loPI   GL2 6326   1.632   0.205   9.782  0.1859  0.0412  0.2196
  396loPI   C1A 6327   1.800   0.585   9.558  0.2183 -0.4292  0.1404
  396loPI   C2A 6328   1.769   0.563   9.226 -0.1940  0.1691 -0.0676
  396loPI   C3A 6329   1.814   0.614   8.867 -0.1576  0.0669 -0.0079
  396loPI   C4A 6330   1.917   0.713   8.469 -0.2178  0.2016  0.0977
  396loPI   C5A 6331   1.959   0.762   8.068 -0.0825  0.1161  0.0277
  396loPI   C6A 6332   2.187   0.790   7.681  0.1915 -0.0208  0.1901
  396loPI   C1B 6333   1.557   0.089   9.313  0.1173 -0.1629  0.2699
  396loPI   C2B 6334   1.583   0.143   8.901 -0.2402  0.0816  0.0680
  396loPI   C3B 6335   1.680   0.132   8.495 -0.1936  0.0414 -0.1249
  396loPI   C4B 6336   1.705   0.376   8.122 -0.3416  0.2767  0.0935
  397loPI    C1 6337  13.805  10.758  11.011  0.1046 -0.0829  0.0070
  397loPI    C2 6338  13.679  10.575  11.343  0.2302 -0.1282  0.0302
  397loPI    C3 6339  13.836  10.942  11.365  0.2168 -0.1218  0.0179
  397loPI   PO4 6340  13.825  10.545  10.862 -0.1545  0.1565  0.1862
  397loPI   GL1 6341  13.904  10.393  10.460 -0.1168  0.1079 -0.1805
  397loPI   GL2 6342  13.622  10.633  10.378 -0.0425 -0.0452  0.1170
  397loPI   C1A 6343  13.914  10.256  10.056 -0.2891  0.1712 -0.0108
  397loPI   C2A 6344  13.760  10.178   9.587 -0.4235 -0.1582  0.2878
  397loPI   C3A 6345  13.884  10.155   9.199  0.0293 -0.3109 -0.1317
  397loPI   C4A 6346  13.940  10.153   8.777 -0.1407  0.1488 -0.0940
  397loPI   C5A 6347  13.791  10.128   8.407  0.1914 -0.1938 -0.3752
  397loPI   C6A 6348  13.937  10.006   7.994 -0.1687  0.5121 -0.1667
  397loPI   C1B 6349  13.582  10.716   9.957  0.0151 -0.0813 -0.0297
  397loPI   C2B 6350  13.529  10.600   9.490  0.0001 -0.0087  0.1124
  397loPI   C3B 6351  13.585  10.526   9.078  0.0433  0.1035 -0.5045
  397loPI   C4B 6352  13.533  10.536   8.724 -0.2187 -0.0698 -0.0924
  398loPI    C1 6353  10.075   8.581  11.250  0.2076 -0.2741 -0.1458
  398loPI    C2 6354  10.336   8.881  11.293 -0.0900 -0.0488  0.1540
  398loPI    C3 6355  10.093   8.783  11.595 -0.2949 -0.3111 -0.0896
  398loPI   PO4 6356  10.067   8.583  11.018 -0.1489  0.2858  0.1512
  398loPI   GL1 6357  10.211   8.470  10.575 -0.3430  0.0255 -0.0995
  398loPI   GL2 6358   9.954   8.546  10.558 -0.1532 -0.0870 -0.3973
  398loPI   C1A 6359  10.536   8.231  10.289  0.0234  0.4421  0.0072
  398loPI   C2A 6360  10.534   8.425   9.789  0.2424 -0.0326 -0.1031
  398loPI   C3A 6361  10.585   8.463   9.400 -0.0435  0.1545 -0.3012
  398loPI   C4A 6362  10.661   8.428   8.973  0.3725  0.0194  0.0809
  398loPI   C5A 6363  10.735   8.370   8.595 -0.0855  0.0443 -0.1108
  398loPI   C6A 6364  11.062   8.323   8.257  0.1136  0.5599 -0.3495
  398loPI   C1B 6365  10.121   8.434  10.110  0.0765  0.5510  0.3581
  398loPI   C2B 6366  10.073   8.347   9.671 -0.0463  0.0631 -0.0032
  398loPI   C3B 6367  10.120   8.353   9.274  0.2304  0.1139  0.0209
  398loPI   C4B 6368  10.081   8.370   8.866 -0.1295  0.0813 -0.1099
  399loPI    C1 6369  14.394  10.515  10.884 -0.1141 -0.2925  0.0874
  399loPI    C2 6370  14.338  10.290  11.210 -0.0917 -0.2615  0.1128
  399loPI    C3 6371  14.253  10.680  11.220 -0.1654 -0.2757  0.0576
  399loPI   PO4 6372  14.636  10.378  10.809  0.1628  0.0480  0.3028
  399loPI   GL1 6373  14.667  10.443  10.402 -0.2922  0.0874 -0.1028
  399loPI   GL2 6374  14.476  10.652  10.383  0.3303 -0.0048  0.3840
  399loPI   C1A 6375  14.414  10.215  10.072  0.0009 -0.3677  0.0940
  399loPI   C2A 6376  14.357  10.285   9.659 -0.0647  0.0734  0.0870
  399loPI   C3A 6377  14.341  10.181   9.178 -0.0827 -0.1427 -0.1272
  399loPI   C4A 6378  14.427  10.250   8.741  0.2859 -0.0456  0.2718
  399loPI   C5A 6379  14.169  10.440   8.388  0.4830 -0.0924 -0.0186
  399loPI   C6A 6380  13.787  10.598   8.091 -0.0459 -0.0417 -0.1618
  399loPI   C1B 6381  14.158  10.700  10.089 -0.0283 -0.0007  0.2070
  399loPI   C2B 6382  14.024  10.738   9.714 -0.4014 -0.2207 -0.1717
  399loPI   C3B 6383  14.089  10.643   9.338 -0.1822  0.0517 -0.1224
  399loPI   C4B 6384  14.089  10.602   8.900 -0.1845  0.0158 -0.1265
  400loPI    C1 6385   9.211  12.205  11.264 -0.0901 -0.0931 -0.0936
  400loPI    C2 6386   9.425  12.191  11.601 -0.3223  0.2818  0.0755
  400loPI    C3 6387   9.439  12.517  11.369 -0.2202  0.0544 -0.2441
  400loPI   PO4 6388   9.384  11.996  11.148  0.2188 -0.0169 -0.1204
  400loPI   GL1 6389   9.538  11.933  10.743  0.0302 -0.2671  0.4024
  400loPI   GL2 6390   9.496  11.653  10.585  0.2458 -0.0581 -0.1795
  400loPI   C1A 6391   9.628  12.018  10.333 -0.1847 -0.1027  0.4393
  400loPI   C2A 6392   9.653  11.932   9.831  0.1871  0.1654  0.1173
  400loPI   C3A 6393   9.730  11.944   9.408 -0.1732 -0.2955 -0.0107
  400loPI   C4A 6394   9.726  11.981   8.955  0.3236 -0.1598 -0.1883
  400loPI   C5A 6395   9.675  11.830   8.477  0.1122  0.1083  0.0101
  400loPI   C6A 6396   9.571  11.833   8.015  0.3355 -0.1275  0.0418
  400loPI   C1B 6397   9.517  11.542  10.140 -0.3257  0.0970 -0.0260
  400loPI   C2B 6398   9.424  11.494   9.706  0.1846  0.1692  0.1089
  400loPI   C3B 6399   9.421  11.513   9.261  0.1100  0.0438 -0.2824
  400loPI   C4B 6400   9.402  11.542   8.824 -0.3482  0.2501  0.2635
  401loPI    C1 6401  17.043   7.212  10.308 -0.1834 -0.0081  0.1615
  401loPI    C2 6402  17.148   6.935  10.577  0.1552 -0.0376  0.0043
  401loPI    C3 6403  17.126   7.320  10.684 -0.0500 -0.0894  0.1559
  401loPI   PO4 6404  17.108   7.131  10.102  0.1546 -0.1992 -0.0436
  401loPI   GL1 6405  17.011   6.940   9.728 -0.0519 -0.1484 -0.0873
  401loPI   GL2 6406  17.189   6.719   9.764 -0.0497  0.2144 -0.2200
  401loPI   C1A 6407  16.911   6.921   9.320 -0.0268 -0.1834  0.2207
  401loPI   C2A 6408  16.820   6.922   8.947 -0.0066 -0.0578 -0.0780
  401loPI   C3A 6409  16.787   6.897   8.506  0.3438  0.0138 -0.0176
  401loPI   C4A 6410  16.777   6.857   8.073 -0.0972 -0.0087  0.2573
  401loPI   C5A 6411  16.413   6.693   7.777  0.3520  0.4029  0.3078
  401loPI   C6A 6412  16.206   6.402   7.464  0.1759 -0.2173  0.0597
  401loPI   C1B 6413  17.109   6.420   9.508  0.0826 -0.1550  0.1426
  401loPI   C2B 6414  17.109   6.458   9.109  0.2278  0.0321 -0.0578
  401loPI   C3B 6415  17.169   6.567   8.700  0.2352  0.5673 -0.2216
  401loPI   C4B 6416  17.150   6.504   8.233  0.2400  0.1911  0.0621
  402loPI    C1 6417  11.210   1.763  10.959  0.2384 -0.1621  0.2461
  402loPI    C2 6418  11.438   2.053  11.114  0.1935 -0.1099  0.2151
  402loPI    C3 6419  11.075   1.981  11.265  0.0080  0.1704 -0.0849
  402loPI   PO4 6420  11.337   1.588  10.761  0.2836 -0.0800 -0.2937
  402loPI   GL1 6421  11.367   1.426  10.341  0.1204  0.2019  0.1241
  402loPI   GL2 6422  11.335   1.712  10.152  0.0076  0.0519 -0.0249
  402loPI   C1A 6423  11.426   1.225   9.980 -0.1596 -0.3649 -0.0727
  402loPI   C2A 6424  11.522   1.204   9.656 -0.0393 -0.0055  0.0987
  402loPI   C3A 6425  11.566   1.117   9.169 -0.1153 -0.2918  0.2860
  402loPI   C4A 6426  11.526   1.144   8.669 -0.3382  0.2503 -0.2159
  402loPI   C5A 6427  11.540   0.999   8.176  0.0236 -0.0523  0.2938
  402loPI   C6A 6428  11.400   1.297   7.761  0.1007 -0.2472  0.2938
  402loPI   C1B 6429  11.099   1.674   9.859  0.4998 -0.1559  0.2174
  402loPI   C2B 6430  11.125   1.550   9.491  0.0105 -0.0572 -0.1932
  402loPI   C3B 6431  11.276   1.465   9.132  0.1870  0.0562  0.0189
  402loPI   C4B 6432  11.139   1.579   8.737  0.0507 -0.0315  0.1030
  403loPI    C1 6433   1.405   2.770  10.555 -0.0260 -0.0227 -0.0868
  403loPI    C2 6434   1.599   2.466  10.728 -0.0478  0.0875  0.1347
  403loPI    C3 6435   1.201   2.495  10.762 -0.0680  0.0369 -0.0486
  403loPI   PO4 6436   1.579   2.797  10.307  0.0695 -0.2330 -0.0366
  403loPI   GL1 6437   1.579   2.927   9.907  0.1944 -0.2455 -0.1400
  403loPI   GL2 6438   1.248   2.740   9.869  0.1867  0.0397  0.0469
  403loPI   C1A 6439   1.760   2.833   9.587 -0.0522 -0.3963 -0.1137
  403loPI   C2A 6440   1.766   2.901   9.224  0.0328 -0.3210 -0.1500
  403loPI   C3A 6441   1.822   2.950   8.879 -0.1016 -0.2267 -0.1998
  403loPI   C4A 6442   1.848   2.904   8.535 -0.1694 -0.0805 -0.2005
  403loPI   C5A 6443   1.829   2.989   8.110  0.0866  0.1330  0.0323
  403loPI   C6A 6444   1.703   3.153   7.771  0.2359  0.2342  0.1087
  403loPI   C1B 6445   1.264   2.834   9.448  0.5233 -0.3191 -0.0146
  403loPI   C2B 6446   1.303   2.880   9.111 -0.0852  0.2984 -0.1812
  403loPI   C3B 6447   1.379   2.832   8.696 -0.0644 -0.4076 -0.0167
  403loPI   C4B 6448   1.335   3.060   8.279 -0.0377 -0.0258  0.0250
  404loPI    C1 6449   1.325  11.569  10.503 -0.1367 -0.2287 -0.0857
  404loPI    C2 6450   1.129  11.499  10.844 -0.2357  0.2321 -0.0410
  404loPI    C3 6451   1.347  11.832  10.803  0.0667  0.0091 -0.3030
  404loPI   PO4 6452   1.114  11.544  10.333 -0.1973 -0.0143 -0.3286
  404loPI   GL1 6453   1.024  11.479   9.832 -0.0202  0.0953  0.0639
  404loPI   GL2 6454   0.927  11.210  10.025  0.0585 -0.1361 -0.0875
  404loPI   C1A 6455   1.018  11.386   9.487 -0.0104  0.0028  0.1826
  404loPI   C2A 6456   1.094  11.322   8.978  0.4704  0.2695  0.2238
  404loPI   C3A 6457   0.928  11.318   8.549 -0.1686 -0.4496  0.1547
  404loPI   C4A 6458   0.761  11.625   8.289  0.0654  0.2206  0.0610
  404loPI   C5A 6459   0.978  11.976   8.157  0.1320 -0.2777 -0.1931
  404loPI   C6A 6460   1.069  12.114   7.849  0.0382  0.2289  0.2029
  404loPI   C1B 6461   0.842  10.918   9.694  0.0279 -0.1422  0.2588
  404loPI   C2B 6462   0.817  10.892   9.232  0.1399  0.0058  0.0594
  404loPI   C3B 6463   0.776  10.820   8.755 -0.2860 -0.0326  0.1670
  404loPI   C4B 6464   0.802  10.824   8.284 -0.0600  0.0673  0.1012
  405loPI    C1 6465  15.795  14.576  10.717 -0.0160 -0.3310  0.0441
  405loPI    C2 6466  15.456  14.592  10.928 -0.1005  0.2683 -0.1176
  405loPI    C3 6467  15.795  14.473  11.103 -0.3289 -0.0432  0.1261
  405loPI   PO4 6468  15.761  14.543  10.510 -0.0005  0.0025  0.1298
  405loPI   GL1 6469  15.848  14.568  10.086 -0.3072  0.2956 -0.1485
  405loPI   GL2 6470  15.582  14.448  10.033  0.4544  0.0724  0.1981
  405loPI   C1A 6471  15.861  14.449   9.624  0.0586 -0.0813 -0.1451
  405loPI   C2A 6472  15.783  14.367   9.181  0.0640  0.5257  0.2947
  405loPI   C3A 6473  15.699  14.363   8.744  0.1372  0.0066 -0.1962
  405loPI   C4A 6474  15.701  14.135   8.304  0.2556  0.0336  0.0469
  405loPI   C5A 6475  15.720  14.083   7.943  0.0548  0.0884 -0.0405
  405loPI   C6A 6476  15.989  13.947   7.655 -0.1194  0.1404  0.0109
  405loPI   C1B 6477  15.203  14.484   9.752 -0.2310  0.0615  0.2607
  405loPI   C2B 6478  15.242  14.354   9.331  0.2500  0.2347  0.0382
  405loPI   C3B 6479  15.226  14.347   8.906  0.1205 -0.0811 -0.0488
  405loPI   C4B 6480  15.192  14.302   8.432 -0.4314 -0.2904 -0.3745
  406loPI    C1 6481  12.042   4.839  10.961  0.1272  0.0156 -0.0779
  406loPI    C2 6482  12.051   4.700  11.336  0.1782  0.0927 -0.0503
  406loPI    C3 6483  11.732   4.632  11.105  0.2369 -0.1418 -0.0650
  406loPI   PO4 6484  12.128   4.668  10.776 -0.2748 -0.2109  0.0965
  406loPI   GL1 6485  12.109   4.384  10.380 -0.0274  0.0621  0.1510
  406loPI   GL2 6486  11.947   4.587  10.260  0.1434 -0.0369  0.2246
  406loPI   C1A 6487  12.422   4.528  10.007  0.1084 -0.1637  0.2033
  406loPI   C2A 6488  12.398   4.559   9.550 -0.1755  0.0976 -0.0730
  406loPI   C3A 6489  12.337   4.533   9.087  0.0692 -0.0310  0.0093
  406loPI   C4A 6490  12.331   4.458   8.670 -0.0492 -0.3527 -0.1879
  406loPI   C5A 6491  12.212   4.195   8.265  0.3999  0.0857  0.1000
  406loPI   C6A 6492  12.260   4.310   7.905  0.0071 -0.0362 -0.0314
  406loPI   C1B 6493  11.936   4.568   9.745 -0.3235 -0.3361  0.1210
  406loPI   C2B 6494  11.906   4.438   9.297  0.2293  0.0323 -0.0185
  406loPI   C3B 6495  11.862   4.388   8.844 -0.1487 -0.0215 -0.0178
  406loPI   C4B 6496  11.854   4.567   8.392  0.1771  0.1827  0.0946
  407loPI    C1 6497  15.609   9.593  11.306 -0.0700 -0.0195  0.1146
  407loPI    C2 6498  15.685   9.354  11.617 -0.0390 -0.2030 -0.0320
  407loPI    C3 6499  15.919   9.670  11.547 -0.0657 -0.1415  0.1493
  407loPI   PO4 6500  15.573   9.553  11.038 -0.2595  0.2063 -0.1111
  407loPI   GL1 6501  15.691   9.536  10.639  0.0136 -0.0405 -0.1268
  407loPI   GL2 6502  15.770   9.814  10.418  0.5053  0.3850 -0.0233
  407loPI   C1A 6503  15.594   9.333  10.269 -0.1738  0.1776 -0.1385
  407loPI   C2A 6504  15.525   9.387   9.931  0.1088 -0.2544 -0.0328
  407loPI   C3A 6505  15.471   9.486   9.441 -0.1209 -0.0525 -0.0732
  407loPI   C4A 6506  15.436   9.417   9.046 -0.1599 -0.1207 -0.1916
  407loPI   C5A 6507  15.426   9.451   8.640 -0.1686 -0.0718 -0.2016
  407loPI   C6A 6508  15.429   9.379   8.182  0.2293 -0.0415 -0.0533
  407loPI   C1B 6509  15.769   9.773  10.027 -0.0660 -0.0959  0.1319
  407loPI   C2B 6510  15.736   9.942   9.582  0.0916  0.1372 -0.1097
  407loPI   C3B 6511  15.601   9.892   9.169 -0.0611 -0.1453  0.4050
  407loPI   C4B 6512  15.610   9.837   8.800  0.0087 -0.1827  0.0477
  408loPI    C1 6513   6.866  17.874  10.853 -0.2401  0.0080 -0.1069
  408loPI    C2 6514   6.740  17.723  11.202 -0.1631 -0.0437 -0.1012
  408loPI    C3 6515   6.627  18.090  11.091 -0.0788  0.0262  0.0414
  408loPI   PO4 6516   6.849  17.800  10.676 -0.0062 -0.1005 -0.0500
  408loPI   GL1 6517   6.641  17.867  10.335  0.0341 -0.0879  0.1667
  408loPI   GL2 6518   6.404  17.635  10.313 -0.3801 -0.1982  0.1017
  408loPI   C1A 6519   6.715  18.061   9.897  0.1721  0.1409 -0.2159
  408loPI   C2A 6520   6.814  18.028   9.450 -0.1017 -0.4828 -0.1494
  408loPI   C3A 6521   6.768  18.165   8.998 -0.1392  0.1145 -0.1322
  408loPI   C4A 6522   6.894  17.972   8.505 -0.5068  0.1085  0.2935
  408loPI   C5A 6523   7.231  17.636   8.274 -0.1020 -0.0976  0.1955
  408loPI   C6A 6524   7.375  17.299   8.046  0.2199  0.1009 -0.0076
  408loPI   C1B 6525   6.541  17.557   9.961  0.3089 -0.0553  0.0150
  408loPI   C2B 6526   6.653  17.601   9.566  0.0377  0.0306 -0.2001
  408loPI   C3B 6527   6.709  17.635   9.142  0.3559  0.2880  0.1387
  408loPI   C4B 6528   6.728  17.515   8.599 -0.1339 -0.1220  0.1132
  409loPI    C1 6529   8.289   7.063  11.101 -0.1169 -0.0551  0.0286
  409loPI    C2 6530   8.282   6.723  11.311  0.0702 -0.0392  0.0623
  409loPI    C3 6531   8.385   7.066  11.489 -0.1471  0.0418  0.0356
  409loPI   PO4 6532   8.087   7.074  11.034  0.1580  0.3001  0.0686
  409loPI   GL1 6533   7.864   6.916  10.748  0.1693  0.2223  0.0966
  409loPI   GL2 6534   7.588   6.978  10.757  0.4311  0.0513  0.2717
  409loPI   C1A 6535   7.879   6.712  10.410 -0.1092 -0.1633 -0.2060
  409loPI   C2A 6536   7.872   6.712   9.987  0.1076 -0.0362  0.0626
  409loPI   C3A 6537   7.868   6.741   9.504 -0.1824  0.1328  0.1765
  409loPI   C4A 6538   7.969   6.653   9.125 -0.0255  0.1153 -0.3686
  409loPI   C5A 6539   8.095   6.532   8.681 -0.2921  0.1592  0.0055
  409loPI   C6A 6540   7.833   6.226   8.354 -0.1535 -0.2013  0.0655
  409loPI   C1B 6541   7.639   7.208  10.375 -0.0324 -0.2983 -0.0157
  409loPI   C2B 6542   7.583   7.184   9.915  0.3083  0.2816 -0.0085
  409loPI   C3B 6543   7.650   7.149   9.486  0.1317 -0.1269 -0.1606
  409loPI   C4B 6544   7.663   7.076   9.136  0.1552 -0.0778  0.1484
  410loPI    C1 6545  10.437   6.269  11.219  0.0743 -0.0644 -0.3008
  410loPI    C2 6546  10.365   5.896  11.344  0.0389 -0.0585 -0.3040
  410loPI    C3 6547  10.087   6.180  11.390  0.1020 -0.0110 -0.2162
  410loPI   PO4 6548  10.577   6.232  11.006  0.1139  0.5070 -0.0044
  410loPI   GL1 6549  10.437   6.230  10.601 -0.0139 -0.0520  0.2868
  410loPI   GL2 6550  10.736   6.076  10.555 -0.2237  0.5034  0.0834
  410loPI   C1A 6551  10.584   6.150  10.092 -0.0914 -0.0057 -0.3041
  410loPI   C2A 6552  10.640   6.166   9.646 -0.1459  0.2234 -0.0922
  410loPI   C3A 6553  10.586   6.193   9.194  0.0963 -0.2403  0.0343
  410loPI   C4A 6554  10.691   6.064   8.839 -0.2994 -0.1768  0.0214
  410loPI   C5A 6555  10.835   6.034   8.401 -0.1424 -0.2734 -0.0366
  410loPI   C6A 6556  10.936   5.758   8.078 -0.0861  0.3232  0.2213
  410loPI   C1B 6557  10.887   5.825  10.191 -0.2170  0.1680 -0.1571
  410loPI   C2B 6558  10.897   5.747   9.750  0.0025  0.0378  0.1435
  410loPI   C3B 6559  10.954   5.655   9.164 -0.0692 -0.0339 -0.2057
  410loPI   C4B 6560  11.031   5.675   8.678 -0.1686  0.0370 -0.2030
  411loPI    C1 6561  13.619   9.918  10.814  0.1565 -0.0151  0.0473
  411loPI    C2 6562  13.482  10.209  11.052 -0.1876 -0.1770  0.0527
  411loPI    C3 6563  13.842  10.048  11.121 -0.1331  0.0216  0.2460
  411loPI   PO4 6564  13.591  10.002  10.626  0.0830  0.1479 -0.1502
  411loPI   GL1 6565  13.515   9.857  10.256 -0.2159  0.1664 -0.3312
  411loPI   GL2 6566  13.447  10.160  10.118 -0.3992  0.0330 -0.0491
  411loPI   C1A 6567  13.630   9.784   9.850  0.0917 -0.3061 -0.0337
  411loPI   C2A 6568  13.677   9.707   9.404  0.3067 -0.3019 -0.2969
  411loPI   C3A 6569  13.666   9.652   8.980  0.0661 -0.1747 -0.0027
  411loPI   C4A 6570  13.548   9.687   8.519 -0.2146  0.0405 -0.2162
  411loPI   C5A 6571  13.706   9.389   8.201 -0.0455 -0.0620  0.0814
  411loPI   C6A 6572  13.743   9.028   8.049 -0.0987 -0.0874  0.3548
  411loPI   C1B 6573  13.236  10.148   9.733 -0.1156  0.3417  0.0282
  411loPI   C2B 6574  13.379  10.115   9.310  0.3552  0.2519  0.0071
  411loPI   C3B 6575  13.444  10.073   8.864  0.3673 -0.0609 -0.0230
  411loPI   C4B 6576  13.316  10.150   8.390 -0.0177 -0.0072  0.0178
  412loPI    C1 6577  14.104   6.239  10.882  0.0653 -0.0611  0.2011
  412loPI    C2 6578  13.784   5.998  10.869  0.0144  0.0138  0.0367
  412loPI    C3 6579  13.983   6.049  11.212 -0.1107 -0.0846  0.1246
  412loPI   PO4 6580  14.213   6.095  10.592 -0.1632 -0.0566 -0.0291
  412loPI   GL1 6581  14.085   5.912  10.312  0.2655 -0.2571 -0.0349
  412loPI   GL2 6582  14.175   6.261  10.147 -0.1611 -0.3741 -0.4256
  412loPI   C1A 6583  13.799   5.726  10.019 -0.0824 -0.0060 -0.0346
  412loPI   C2A 6584  13.715   5.651   9.564 -0.0645 -0.2011  0.1446
  412loPI   C3A 6585  13.811   5.605   9.116  0.3688 -0.1273  0.0650
  412loPI   C4A 6586  13.767   5.629   8.634  0.1227  0.1072  0.1165
  412loPI   C5A 6587  13.817   5.405   8.365 -0.1830  0.2493  0.1969
  412loPI   C6A 6588  13.847   5.086   8.195 -0.3448  0.0901  0.2446
  412loPI   C1B 6589  14.046   6.094   9.779 -0.2085  0.3076 -0.1508
  412loPI   C2B 6590  13.976   6.028   9.323 -0.0254  0.0838  0.0221
  412loPI   C3B 6591  13.976   6.150   8.935  0.1945 -0.0143 -0.3127
  412loPI   C4B 6592  14.008   6.063   8.509 -0.1081  0.2457 -0.0568
  413loPI    C1 6593   9.839  12.121  11.275 -0.1044  0.1592  0.1301
  413loPI    C2 6594   9.948  12.441  11.489  0.2933  0.1023  0.0206
  413loPI    C3 6595  10.123  12.087  11.555  0.1618  0.0031 -0.1520
  413loPI   PO4 6596   9.842  12.144  11.039 -0.1221 -0.2313 -0.2565
  413loPI   GL1 6597   9.927  12.241  10.734  0.1203 -0.0514  0.0379
  413loPI   GL2 6598   9.865  12.480  10.543 -0.1297  0.0785  0.3458
  413loPI   C1A 6599  10.165  12.080  10.413  0.0708 -0.0252  0.3484
  413loPI   C2A 6600  10.204  11.994   9.970 -0.2102 -0.1305  0.0552
  413loPI   C3A 6601  10.248  11.999   9.572 -0.0201  0.0273  0.0205
  413loPI   C4A 6602  10.248  12.024   9.151 -0.0393 -0.0456  0.0922
  413loPI   C5A 6603  10.279  12.166   8.769 -0.2066  0.2330  0.0002
  413loPI   C6A 6604  10.541  12.168   8.361 -0.0777  0.2103  0.1811
  413loPI   C1B 6605   9.789  12.439  10.150  0.0246  0.0518  0.0767
  413loPI   C2B 6606   9.870  12.375   9.710  0.5733  0.1231  0.0842
  413loPI   C3B 6607   9.880  12.442   9.316  0.0478  0.0634  0.0154
  413loPI   C4B 6608   9.783  12.515   8.907 -0.2686 -0.0015  0.3719
  414loPI    C1 6609   0.820   2.709  10.328 -0.1540 -0.2106 -0.0348
  414loPI    C2 6610   0.519   2.812  10.570  0.0160  0.1001  0.0486
  414loPI    C3 6611   0.885   2.964  10.629  0.0795  0.1120 -0.3496
  414loPI   PO4 6612   0.764   2.754  10.036  0.0765  0.0674 -0.1297
  414loPI   GL1 6613   0.740   2.779   9.611 -0.0223  0.1452 -0.0480
  414loPI   GL2 6614   0.461   2.680   9.618 -0.2204  0.1352 -0.1660
  414loPI   C1A 6615   0.841   2.877   9.109  0.2853  0.0127 -0.0294
  414loPI   C2A 6616   0.795   2.911   8.696  0.0508 -0.0041 -0.3069
  414loPI   C3A 6617   0.830   2.901   8.268 -0.0080  0.0861  0.0240
  414loPI   C4A 6618   0.570   2.924   7.837  0.0962  0.0479 -0.0217
  414loPI   C5A 6619   0.373   2.990   7.339 -0.0118  0.0707  0.0585
  414loPI   C6A 6620   0.505   3.025   6.901 -0.2342 -0.0281 -0.0392
  414loPI   C1B 6621   0.408   2.414   9.290  0.2573 -0.0586  0.2352
  414loPI   C2B 6622   0.517   2.512   8.844 -0.2490 -0.0694  0.1064
  414loPI   C3B 6623   0.654   2.369   8.431  0.1082 -0.2728 -0.0824
  414loPI   C4B 6624   0.643   2.393   8.003  0.0433 -0.0951 -0.0591
  415loPI    C1 6625  17.916  14.373  10.492 -0.0524 -0.0791 -0.0662
  415loPI    C2 6626  18.032  14.197  10.832 -0.3942 -0.0664  0.0608
  415loPI    C3 6627  18.005  14.596  10.812 -0.0113 -0.0444 -0.1016
  415loPI   PO4 6628  17.984  14.252  10.261  0.0324  0.0841  0.0915
  415loPI   GL1 6629  17.916  14.145   9.835  0.3306 -0.1359 -0.0509
  415loPI   GL2 6630  17.967  13.794   9.601  0.0187 -0.2882 -0.1264
  415loPI   C1A 6631  17.797  14.269   9.412 -0.1606 -0.1953 -0.0753
  415loPI   C2A 6632  17.983  14.422   8.970  0.0646  0.2403 -0.0765
  415loPI   C3A 6633  17.889  14.635   8.517 -0.1905 -0.0556  0.2272
  415loPI   C4A 6634  17.724  14.573   8.106  0.2264 -0.0073 -0.3186
  415loPI   C5A 6635  17.475  14.304   7.858  0.1277  0.0799 -0.0181
  415loPI   C6A 6636  17.461  13.906   7.571 -0.0043  0.0097  0.0254
  415loPI   C1B 6637  18.094  13.578   9.190 -0.1509 -0.0266  0.1202
  415loPI   C2B 6638  18.127  13.484   8.821 -0.3163  0.1541  0.0750
  415loPI   C3B 6639  17.876  13.431   8.440  0.5308 -0.0276  0.0695
  415loPI   C4B 6640  17.486  13.690   8.501  0.0155 -0.0608  0.2335
  416loPI    C1 6641  16.003   8.653  11.112  0.0468  0.0052  0.0958
  416loPI    C2 6642  15.850   8.943  11.342  0.1317  0.1144  0.0157
  416loPI    C3 6643  15.797   8.559  11.442 -0.0275  0.1556  0.0931
  416loPI   PO4 6644  15.885   8.624  10.844 -0.0426 -0.1202  0.1841
  416loPI   GL1 6645  15.659   8.396  10.610  0.0491 -0.0602 -0.1782
  416loPI   GL2 6646  16.074   8.277  10.442  0.3287  0.1319  0.0411
  416loPI   C1A 6647  15.492   8.498  10.207  0.2717  0.0422 -0.2882
  416loPI   C2A 6648  15.628   8.587   9.787 -0.0576  0.0980 -0.5513
  416loPI   C3A 6649  15.721   8.643   9.419  0.0961 -0.1899 -0.0031
  416loPI   C4A 6650  15.551   8.570   8.964  0.2672  0.2721 -0.2499
  416loPI   C5A 6651  15.498   8.532   8.557 -0.2700 -0.1263  0.0264
  416loPI   C6A 6652  15.427   8.510   8.208 -0.0774  0.2748 -0.1412
  416loPI   C1B 6653  16.040   8.172   9.969 -0.0865  0.0158 -0.1510
  416loPI   C2B 6654  15.990   8.212   9.564 -0.3618  0.0042  0.0185
  416loPI   C3B 6655  15.855   8.223   9.073 -0.0093  0.2537 -0.0844
  416loPI   C4B 6656  15.738   8.131   8.742  0.2752  0.0573  0.1221
  417loPI    C1 6657   3.139   0.227  10.351 -0.1361 -0.1166  0.0776
  417loPI    C2 6658   2.892   0.154  10.657  0.0305 -0.0048  0.2411
  417loPI    C3 6659   3.288   0.152  10.715  0.0571  0.3091  0.0925
  417loPI   PO4 6660   3.046   0.350  10.208 -0.1132  0.1648  0.2125
  417loPI   GL1 6661   2.996   0.456   9.769  0.0164  0.1528 -0.1754
  417loPI   GL2 6662   2.729   0.321   9.745 -0.1330  0.2326 -0.2143
  417loPI   C1A 6663   3.104   0.349   9.377 -0.3800  0.0372  0.2896
  417loPI   C2A 6664   3.154   0.365   8.948  0.0519  0.1540  0.0369
  417loPI   C3A 6665   3.218   0.422   8.510  0.1532 -0.1109  0.0529
  417loPI   C4A 6666   3.288   0.231   8.213 -0.0200 -0.0830  0.3552
  417loPI   C5A 6667   3.476   0.258   7.815 -0.2951  0.4679 -0.1279
  417loPI   C6A 6668   3.711   0.148   7.451 -0.2714 -0.2148 -0.0433
  417loPI   C1B 6669   2.587   0.224   9.399 -0.4872 -0.1773  0.1214
  417loPI   C2B 6670   2.581   0.344   8.981 -0.0796  0.0529 -0.0283
  417loPI   C3B 6671   2.665   0.320   8.590  0.0164 -0.2546  0.3692
  417loPI   C4B 6672   2.801   0.317   8.229 -0.0100  0.3077 -0.3409
  418loPI    C1 6673   9.174  13.368  10.969  0.0089 -0.3908  0.0052
  418loPI    C2 6674   9.331  13.655  11.200 -0.2690 -0.0986 -0.1611
  418loPI    C3 6675   9.092  13.377  11.360  0.1800 -0.3785  0.0414
  418loPI   PO4 6676   9.097  13.483  10.712  0.1032 -0.4526  0.1072
  418loPI   GL1 6677   8.999  13.784  10.302 -0.0057  0.2596  0.2076
  418loPI   GL2 6678   8.812  13.986  10.333  0.1800 -0.2109 -0.0259
  418loPI   C1A 6679   8.967  13.658   9.861 -0.1092 -0.0169  0.2450
  418loPI   C2A 6680   8.932  13.660   9.446 -0.0223 -0.0762  0.1257
  418loPI   C3A 6681   9.046  13.730   8.938  0.3228 -0.1103  0.0365
  418loPI   C4A 6682   9.283  13.765   8.494  0.1697  0.1437  0.1314
  418loPI   C5A 6683   9.656  13.720   8.365 -0.0573 -0.0860 -0.1232
  418loPI   C6A 6684   9.895  13.412   8.271 -0.2565 -0.0404 -0.0325
  418loPI   C1B 6685   8.597  14.197  10.022 -0.1310  0.3550  0.0247
  418loPI   C2B 6686   8.641  14.085   9.581 -0.1776  0.1994 -0.0802
  418loPI   C3B 6687   8.630  14.055   9.077  0.2040  0.0699  0.0591
  418loPI   C4B 6688   8.758  14.047   8.638  0.0147 -0.0322 -0.0424
  419loPI    C1 6689   5.158  11.747  11.049  0.1643  0.2360  0.0487
  419loPI    C2 6690   4.804  11.750  10.863  0.1684  0.0978  0.0378
  419loPI    C3 6691   4.849  11.546  11.204  0.2779 -0.0129 -0.0424
  419loPI   PO4 6692   5.385  11.700  10.809  0.0750  0.2314  0.2296
  419loPI   GL1 6693   5.522  11.756  10.405 -0.1243  0.0786  0.1133
  419loPI   GL2 6694   5.797  11.560  10.447  0.1286  0.0191  0.0916
  419loPI   C1A 6695   5.593  11.595   9.936 -0.1435 -0.3416  0.0069
  419loPI   C2A 6696   5.534  11.502   9.511 -0.2290 -0.0069 -0.1002
  419loPI   C3A 6697   5.501  11.508   9.196  0.1681  0.0608 -0.2331
  419loPI   C4A 6698   5.613  11.535   8.794  0.3501 -0.0481  0.1791
  419loPI   C5A 6699   5.564  11.559   8.380  0.1165 -0.0134  0.3266
  419loPI   C6A 6700   5.468  11.910   8.151  0.1016 -0.1189 -0.1668
  419loPI   C1B 6701   6.142  11.664  10.204  0.2013 -0.0103  0.0340
  419loPI   C2B 6702   6.135  11.570   9.856  0.1668 -0.1147 -0.2425
  419loPI   C3B 6703   6.011  11.571   9.484 -0.0584  0.3736  0.0353
  419loPI   C4B 6704   6.071  11.532   9.000  0.1093  0.0043 -0.0026
  420loPI    C1 6705  13.915  11.259  10.979  0.1240 -0.0997 -0.1662
  420loPI    C2 6706  14.287  11.146  11.072  0.1061 -0.0112  0.0188
  420loPI    C3 6707  14.102  11.424  11.292 -0.1463 -0.2033  0.0553
  420loPI   PO4 6708  13.971  11.355  10.724 -0.0775 -0.2874  0.2044
  420loPI   GL1 6709  13.840  11.407  10.359 -0.1394  0.0991 -0.1623
  420loPI   GL2 6710  13.711  11.196  10.144  0.1401 -0.1547 -0.2403
  420loPI   C1A 6711  13.924  11.582   9.926 -0.2280  0.2820 -0.2040
  420loPI   C2A 6712  13.886  11.546   9.493 -0.0092  0.0584  0.1119
  420loPI   C3A 6713  13.880  11.479   9.070  0.1859 -0.2899 -0.0360
  420loPI   C4A 6714  14.059  11.410   8.701  0.0362 -0.1476  0.0659
  420loPI   C5A 6715  14.136  11.415   8.300 -0.2586 -0.1828 -0.1082
  420loPI   C6A 6716  14.079  11.322   7.921  0.2379  0.0833  0.0193
  420loPI   C1B 6717  13.747  11.133   9.734 -0.0406  0.0661 -0.0136
  420loPI   C2B 6718  13.742  11.028   9.257  0.1747 -0.2742  0.2723
  420loPI   C3B 6719  13.723  11.054   8.798  0.0078 -0.1777  0.1290
  420loPI   C4B 6720  13.827  11.051   8.310  0.1330 -0.1170 -0.0490
  421loPI    C1 6721  16.830  17.071  10.720  0.0459  0.0696 -0.1357
  421loPI    C2 6722  17.008  16.722  10.802 -0.1428  0.0352  0.1418
  421loPI    C3 6723  17.059  17.035  11.046  0.0802  0.2258 -0.1419
  421loPI   PO4 6724  16.834  17.114  10.448 -0.0558  0.0060 -0.1641
  421loPI   GL1 6725  17.002  17.176  10.073 -0.0624 -0.2318  0.1607
  421loPI   GL2 6726  16.583  17.202  10.023 -0.0955 -0.0949 -0.0006
  421loPI   C1A 6727  16.910  17.187   9.634  0.0125 -0.0580  0.1140
  421loPI   C2A 6728  16.737  17.194   9.184 -0.0578 -0.1088 -0.0842
  421loPI   C3A 6729  16.720  17.249   8.741 -0.0248 -0.0435 -0.1196
  421loPI   C4A 6730  16.602  17.179   8.275 -0.0739 -0.3374 -0.3204
  421loPI   C5A 6731  16.634  16.869   7.985 -0.2207  0.2392 -0.1911
  421loPI   C6A 6732  16.424  16.512   7.825 -0.3352 -0.1521  0.1133
  421loPI   C1B 6733  16.444  17.354   9.727 -0.2193  0.1003 -0.0857
  421loPI   C2B 6734  16.316  17.387   9.337 -0.2169 -0.0396  0.1298
  421loPI   C3B 6735  16.336  17.456   8.905  0.1323 -0.0795 -0.1213
  421loPI   C4B 6736  16.283  17.427   8.549 -0.0233  0.1151 -0.0807
  422loPI    C1 6737   8.313   9.050  10.720  0.2010  0.1503  0.0547
  422loPI    C2 6738   8.218   9.076  11.107 -0.0321 -0.1507  0.0217
  422loPI    C3 6739   8.531   9.279  10.964 -0.1051  0.1755  0.3106
  422loPI   PO4 6740   8.440   8.753  10.655 -0.0074 -0.2600  0.2695
  422loPI   GL1 6741   8.343   8.525  10.278 -0.2530  0.1447  0.3759
  422loPI   GL2 6742   8.380   8.186  10.164  0.0386  0.0602 -0.1510
  422loPI   C1A 6743   8.132   8.638   9.990 -0.3935  0.0421 -0.1740
  422loPI   C2A 6744   8.135   8.599   9.539 -0.0231  0.0938 -0.1619
  422loPI   C3A 6745   8.206   8.656   9.162 -0.0807 -0.1714 -0.3718
  422loPI   C4A 6746   8.349   8.667   8.712 -0.0277  0.1449 -0.3220
  422loPI   C5A 6747   8.176   8.637   8.352 -0.2582  0.2289  0.3295
  422loPI   C6A 6748   7.899   8.862   7.945  0.1129  0.1359  0.1286
  422loPI   C1B 6749   8.553   8.231   9.763  0.0202 -0.2034  0.0405
  422loPI   C2B 6750   8.572   8.295   9.353  0.0524  0.0546  0.1947
  422loPI   C3B 6751   8.467   8.201   9.009 -0.0338  0.2039  0.2308
  422loPI   C4B 6752   8.586   8.106   8.647  0.0641 -0.0515 -0.0515
  423loPI    C1 6753  12.861   3.363  10.895 -0.2926  0.3934 -0.0428
  423loPI    C2 6754  12.532   3.345  11.121 -0.1446 -0.4117  0.1376
  423loPI    C3 6755  12.892   3.374  11.293 -0.0848 -0.0264 -0.0422
  423loPI   PO4 6756  12.845   3.554  10.686  0.0603 -0.1700 -0.2533
  423loPI   GL1 6757  13.021   3.753  10.379 -0.0165 -0.0723  0.0137
  423loPI   GL2 6758  13.185   3.587  10.218  0.1428 -0.0330  0.0495
  423loPI   C1A 6759  12.677   3.627  10.134  0.0019 -0.1919 -0.1345
  423loPI   C2A 6760  12.553   3.644   9.720  0.1614  0.4222  0.2039
  423loPI   C3A 6761  12.452   3.666   9.284  0.1057 -0.0147  0.1726
  423loPI   C4A 6762  12.477   3.484   8.851  0.0385  0.1188 -0.3327
  423loPI   C5A 6763  12.387   3.353   8.576 -0.2032 -0.0350  0.1471
  423loPI   C6A 6764  12.062   3.233   8.281 -0.0276  0.0019  0.0235
  423loPI   C1B 6765  13.069   3.636   9.702  0.0834  0.2398  0.0614
  423loPI   C2B 6766  12.967   3.690   9.337  0.0035 -0.3064  0.1286
  423loPI   C3B 6767  12.938   3.609   8.900 -0.1957 -0.2484 -0.2100
  423loPI   C4B 6768  12.919   3.400   8.602  0.2716 -0.1181  0.1379
  424loPI    C1 6769   5.402   9.684  10.764 -0.1459 -0.1194  0.0073
  424loPI    C2 6770   5.530   9.351  10.946 -0.3098 -0.2217 -0.0625
  424loPI    C3 6771   5.292   9.606  11.141  0.0343 -0.0056  0.0851
  424loPI   PO4 6772   5.614   9.676  10.544  0.3276 -0.0207 -0.0926
  424loPI   GL1 6773   5.690   9.803  10.099  0.0845 -0.1556  0.0694
  424loPI   GL2 6774   5.819   9.481  10.040  0.2839  0.0983 -0.2412
  424loPI   C1A 6775   5.782   9.713   9.625 -0.0922  0.0446  0.3502
  424loPI   C2A 6776   5.799   9.744   9.106  0.0643  0.3014 -0.1642
  424loPI   C3A 6777   5.738   9.681   8.710  0.2264  0.3170  0.3138
  424loPI   C4A 6778   5.934   9.791   8.318  0.2412 -0.1284  0.0638
  424loPI   C5A 6779   6.326  10.021   8.318  0.1586 -0.0536  0.0753
  424loPI   C6A 6780   6.260  10.530   8.111 -0.0206 -0.1648 -0.0549
  424loPI   C1B 6781   6.046   9.306   9.687  0.1532 -0.0757  0.0281
  424loPI   C2B 6782   6.123   9.306   9.261 -0.2232 -0.1175 -0.0637
  424loPI   C3B 6783   6.104   9.248   8.835  0.2805 -0.1202 -0.1663
  424loPI   C4B 6784   6.100   9.262   8.393 -0.1149 -0.0575 -0.1030
  425loPI    C1 6785  16.684  15.393  10.382 -0.0846  0.1487 -0.0459
  425loPI    C2 6786  16.419  15.635  10.559 -0.2842 -0.0987 -0.0005
  425loPI    C3 6787  16.393  15.239  10.609 -0.0315 -0.1390 -0.1687
  425loPI   PO4 6788  16.713  15.488  10.139 -0.0851 -0.0795  0.0702
  425loPI   GL1 6789  16.684  15.241   9.783  0.3726  0.0575 -0.1757
  425loPI   GL2 6790  16.378  15.353   9.670 -0.1758  0.0498  0.2391
  425loPI   C1A 6791  16.494  14.885   9.470 -0.1060 -0.2898  0.1441
  425loPI   C2A 6792  16.581  14.777   9.000  0.1744 -0.3557  0.0146
  425loPI   C3A 6793  16.492  14.810   8.590  0.2202  0.0232 -0.1109
  425loPI   C4A 6794  16.645  14.695   8.105  0.1622  0.1291  0.1488
  425loPI   C5A 6795  16.857  14.241   7.992 -0.0067  0.1091  0.2649
  425loPI   C6A 6796  16.810  13.746   7.971 -0.3854 -0.3040  0.0641
  425loPI   C1B 6797  16.295  15.257   9.252  0.1260 -0.0726 -0.0969
  425loPI   C2B 6798  16.157  15.296   8.858 -0.2650 -0.0181 -0.0165
  425loPI   C3B 6799  16.018  15.519   8.554  0.1139 -0.0072 -0.0411
  425loPI   C4B 6800  15.628  15.488   8.265  0.3495 -0.1035 -0.1519
  426loPI    C1 6801  14.698   6.392  11.101  0.0813  0.1708  0.2336
  426loPI    C2 6802  14.465   6.091  11.223  0.1629 -0.0416 -0.1236
  426loPI    C3 6803  14.399   6.461  11.358 -0.1969 -0.1482  0.0034
  426loPI   PO4 6804  14.607   6.390  10.819  0.2981 -0.0146 -0.3848
  426loPI   GL1 6805  14.665   6.425  10.412  0.0166  0.0948 -0.0302
  426loPI   GL2 6806  14.665   6.071  10.344 -0.2606 -0.3524  0.1970
  426loPI   C1A 6807  15.080   6.302  10.076 -0.1714 -0.1057 -0.0244
  426loPI   C2A 6808  15.119   6.297   9.622  0.1281 -0.0269  0.0988
  426loPI   C3A 6809  15.005   6.229   9.192 -0.1325  0.1838  0.2297
  426loPI   C4A 6810  15.023   6.192   8.723 -0.3219 -0.0827 -0.1891
  426loPI   C5A 6811  15.096   6.259   8.327  0.0451 -0.0660  0.4471
  426loPI   C6A 6812  14.763   6.209   7.934  0.0462 -0.3360 -0.0844
  426loPI   C1B 6813  14.630   6.149   9.880 -0.2351 -0.1411 -0.2940
  426loPI   C2B 6814  14.547   6.147   9.473 -0.0256  0.1440 -0.0438
  426loPI   C3B 6815  14.514   6.180   9.005 -0.1639  0.0162 -0.2624
  426loPI   C4B 6816  14.481   6.084   8.489  0.0310 -0.2076  0.1030
  427loPI    C1 6817   8.269  10.825  10.941  0.1850  0.0904  0.0882
  427loPI    C2 6818   8.089  10.765  11.293  0.0264 -0.1085 -0.0250
  427loPI    C3 6819   7.876  10.890  10.979  0.1183 -0.1780 -0.1155
  427loPI   PO4 6820   8.359  10.555  10.863  0.0495 -0.0696  0.2962
  427loPI   GL1 6821   8.369  10.334  10.490 -0.0877 -0.1401 -0.1217
  427loPI   GL2 6822   8.113  10.073  10.618 -0.0711 -0.3459 -0.0953
  427loPI   C1A 6823   8.607  10.444  10.190  0.0961  0.1986  0.1041
  427loPI   C2A 6824   8.546  10.454   9.700  0.1736 -0.1175  0.4893
  427loPI   C3A 6825   8.657  10.495   9.281 -0.1238  0.1416  0.2121
  427loPI   C4A 6826   8.462  10.537   8.816 -0.1734  0.2525 -0.0062
  427loPI   C5A 6827   8.426  10.353   8.329 -0.1634  0.0750  0.3679
  427loPI   C6A 6828   8.183  10.268   7.944  0.0595  0.2575  0.0019
  427loPI   C1B 6829   8.278  10.007  10.165  0.0017  0.1692 -0.0716
  427loPI   C2B 6830   8.265   9.939   9.730 -0.1909 -0.4361  0.3289
  427loPI   C3B 6831   8.382  10.015   9.324  0.1825  0.2944 -0.2252
  427loPI   C4B 6832   8.300  10.104   8.892 -0.1096  0.4860  0.0090
  428loPI    C1 6833  14.443  16.299  10.912 -0.1562 -0.0733 -0.1382
  428loPI    C2 6834  14.724  16.554  11.039  0.0704 -0.2754 -0.2266
  428loPI    C3 6835  14.433  16.438  11.287  0.2312 -0.2899 -0.0414
  428loPI   PO4 6836  14.381  16.387  10.618  0.0373  0.0539  0.1220
  428loPI   GL1 6837  14.133  16.544  10.249  0.1177  0.0549  0.0927
  428loPI   GL2 6838  13.793  16.477  10.140  0.0664 -0.0134  0.3496
  428loPI   C1A 6839  14.288  16.572   9.814 -0.0041  0.2279  0.0477
  428loPI   C2A 6840  14.301  16.561   9.412 -0.2591 -0.0857 -0.0194
  428loPI   C3A 6841  14.265  16.559   8.972  0.2409 -0.0864  0.4473
  428loPI   C4A 6842  14.274  16.581   8.492 -0.0180  0.0813 -0.2376
  428loPI   C5A 6843  14.274  16.654   7.919 -0.0057  0.0374  0.2306
  428loPI   C6A 6844  14.540  16.398   7.735 -0.1607  0.3021 -0.1523
  428loPI   C1B 6845  13.782  16.561   9.766 -0.0826 -0.2152  0.0856
  428loPI   C2B 6846  13.693  16.526   9.301 -0.0282  0.0196  0.1801
  428loPI   C3B 6847  13.723  16.504   8.906  0.2468  0.0414 -0.1982
  428loPI   C4B 6848  13.718  16.596   8.353 -0.4371 -0.0053  0.1042
  429loPI    C1 6849  15.736   5.868  10.765  0.0131 -0.0277  0.0156
  429loPI    C2 6850  15.517   6.074  11.028  0.1584  0.0108  0.1082
  429loPI    C3 6851  15.907   6.151  10.991  0.1861 -0.1560  0.0474
  429loPI   PO4 6852  15.526   5.880  10.527 -0.1953  0.1493  0.2433
  429loPI   GL1 6853  15.404   5.944  10.175 -0.1200 -0.0101  0.3029
  429loPI   GL2 6854  15.743   5.992  10.107 -0.3811 -0.0194 -0.0902
  429loPI   C1A 6855  15.385   5.816   9.759 -0.0943  0.2206  0.2745
  429loPI   C2A 6856  15.321   5.800   9.283 -0.0149  0.1302  0.0425
  429loPI   C3A 6857  15.307   5.760   8.919  0.1820  0.2518  0.0220
  429loPI   C4A 6858  15.328   5.825   8.490  0.1286  0.1410  0.0537
  429loPI   C5A 6859  15.400   5.915   8.089 -0.0280 -0.1156 -0.1368
  429loPI   C6A 6860  15.116   5.922   7.758 -0.3737  0.2305 -0.0345
  429loPI   C1B 6861  15.899   5.892   9.633 -0.1292 -0.0205 -0.0307
  429loPI   C2B 6862  15.840   5.783   9.200  0.1085  0.1369 -0.4575
  429loPI   C3B 6863  15.836   5.837   8.685  0.1566  0.1589  0.1613
  429loPI   C4B 6864  15.959   5.862   8.313 -0.0635  0.0636 -0.2667
  430loPI    C1 6865   1.759   4.729  10.528  0.0237  0.0308 -0.0465
  430loPI    C2 6866   1.959   4.432  10.350  0.2405  0.1420  0.0082
  430loPI    C3 6867   1.714   4.352  10.656  0.0533 -0.0188 -0.1802
  430loPI   PO4 6868   1.753   4.899  10.395  0.0651 -0.1591  0.2002
  430loPI   GL1 6869   1.768   4.868  10.039  0.1109  0.0393  0.1171
  430loPI   GL2 6870   1.930   4.714   9.926 -0.2750  0.2031 -0.2322
  430loPI   C1A 6871   1.676   5.131   9.609 -0.1543 -0.2012 -0.4150
  430loPI   C2A 6872   1.660   5.126   9.279 -0.2788 -0.0978  0.0339
  430loPI   C3A 6873   1.699   5.274   8.920 -0.0270 -0.1136 -0.2293
  430loPI   C4A 6874   1.480   5.459   8.563 -0.0558 -0.0907  0.2917
  430loPI   C5A 6875   1.346   5.307   8.042  0.1316  0.0384  0.1828
  430loPI   C6A 6876   1.338   5.219   7.641  0.1255  0.1860 -0.0502
  430loPI   C1B 6877   1.990   4.763   9.476  0.0607 -0.0637  0.2253
  430loPI   C2B 6878   2.062   4.857   9.072 -0.2868  0.1502  0.5620
  430loPI   C3B 6879   2.141   4.695   8.759  0.1513 -0.1496 -0.3244
  430loPI   C4B 6880   2.091   4.634   8.344  0.1776 -0.1952 -0.0861
  431loPI    C1 6881   6.155   0.966  10.765 -0.0533  0.0089 -0.0044
  431loPI    C2 6882   6.351   0.626  10.841 -0.0709  0.0265  0.1223
  431loPI    C3 6883   6.142   0.806  11.131  0.1056  0.2535  0.1117
  431loPI   PO4 6884   6.313   1.107  10.573 -0.1972 -0.1005  0.0684
  431loPI   GL1 6885   6.332   1.250  10.152  0.0765 -0.0992 -0.1824
  431loPI   GL2 6886   6.257   1.566  10.262 -0.0010  0.4065  0.4059
  431loPI   C1A 6887   6.490   1.138   9.617 -0.0941  0.0267  0.2524
  431loPI   C2A 6888   6.397   1.191   9.154  0.0033 -0.1394 -0.0455
  431loPI   C3A 6889   6.470   1.240   8.728 -0.1610 -0.2487  0.0148
  431loPI   C4A 6890   6.490   0.924   8.382  0.0222  0.1130  0.0153
  431loPI   C5A 6891   6.570   0.469   8.245  0.1556 -0.1699  0.0799
  431loPI   C6A 6892   6.632  -0.020   8.143 -0.0156  0.0004 -0.0082
  431loPI   C1B 6893   6.208   1.557   9.845  0.3183 -0.0975  0.3001
  431loPI   C2B 6894   6.090   1.523   9.381  0.0385 -0.0117 -0.1827
  431loPI   C3B 6895   6.189   1.579   8.909 -0.0515 -0.0011 -0.0789
  431loPI   C4B 6896   6.198   1.564   8.440 -0.1392 -0.0542 -0.0694
  432loPI    C1 6897  11.532   7.914  11.402 -0.1699 -0.0103  0.0255
  432loPI    C2 6898  11.235   7.679  11.531  0.1157 -0.2631  0.2374
  432loPI    C3 6899  11.443   7.901  11.792  0.0855 -0.0516  0.0846
  432loPI   PO4 6900  11.545   7.716  11.112  0.2117  0.2380 -0.0092
  432loPI   GL1 6901  11.433   7.664  10.688  0.3067  0.0383 -0.1701
  432loPI   GL2 6902  11.139   7.566  10.577 -0.0537 -0.0912  0.0969
  432loPI   C1A 6903  11.689   7.730  10.265 -0.1221  0.0758  0.2079
  432loPI   C2A 6904  11.749   7.702   9.717 -0.2091 -0.1830 -0.2366
  432loPI   C3A 6905  11.748   7.711   9.293 -0.0669 -0.1222 -0.0958
  432loPI   C4A 6906  11.774   7.681   8.838  0.1583 -0.3550 -0.1394
  432loPI   C5A 6907  11.866   7.556   8.509 -0.1192  0.1058  0.2483
  432loPI   C6A 6908  11.966   7.413   8.015 -0.1499 -0.2368  0.0289
  432loPI   C1B 6909  11.255   7.461  10.210  0.0751 -0.4501 -0.0954
  432loPI   C2B 6910  11.235   7.598   9.719  0.0416  0.3345 -0.1195
  432loPI   C3B 6911  11.185   7.591   9.278  0.4122  0.1350 -0.1243
  432loPI   C4B 6912  11.199   7.535   8.849  0.0378 -0.4406  0.0210
  433loPI    C1 6913   9.307  10.258  10.896 -0.0032  0.0230  0.0958
  433loPI    C2 6914   9.363  10.634  10.774 -0.0178 -0.0386 -0.1045
  433loPI    C3 6915   9.391  10.544  11.163  0.0183  0.1625 -0.0591
  433loPI   PO4 6916   9.181  10.110  10.780  0.0440 -0.0350  0.2083
  433loPI   GL1 6917   8.888  10.092  10.416 -0.0947  0.1761 -0.0549
  433loPI   GL2 6918   8.724   9.875  10.321  0.3348 -0.0849  0.2870
  433loPI   C1A 6919   9.224  10.073  10.122 -0.2917  0.0324 -0.2906
  433loPI   C2A 6920   9.346  10.086   9.680 -0.0204 -0.1451 -0.1018
  433loPI   C3A 6921   9.379  10.043   9.252  0.1302 -0.1641 -0.1528
  433loPI   C4A 6922   9.312  10.155   8.801 -0.0769 -0.3326 -0.0295
  433loPI   C5A 6923   9.370  10.185   8.361 -0.3211 -0.0990 -0.1304
  433loPI   C6A 6924   9.362  10.629   8.195  0.1190  0.0919  0.3901
  433loPI   C1B 6925   8.717   9.995   9.854 -0.0519 -0.3506 -0.1622
  433loPI   C2B 6926   8.884  10.068   9.412 -0.0620  0.1373 -0.1902
  433loPI   C3B 6927   8.887  10.087   8.938  0.0315 -0.3880 -0.1194
  433loPI   C4B 6928   8.865  10.099   8.554  0.1704 -0.1017  0.2147
  434loPI    C1 6929  11.005   1.231  10.936  0.0304  0.1495 -0.1651
  434loPI    C2 6930  10.653   1.194  11.124  0.1279 -0.0584 -0.0203
  434loPI    C3 6931  10.922   1.460  11.253  0.0996 -0.0332 -0.0135
  434loPI   PO4 6932  10.886   1.120  10.686 -0.1500  0.2750  0.3084
  434loPI   GL1 6933  10.563   1.169  10.274  0.2406 -0.2499 -0.1261
  434loPI   GL2 6934  10.891   1.267  10.213 -0.5439  0.1664 -0.1461
  434loPI   C1A 6935  10.480   1.085   9.820  0.0073 -0.0889 -0.1828
  434loPI   C2A 6936  10.429   1.029   9.395  0.0750  0.1256  0.1426
  434loPI   C3A 6937  10.452   0.978   8.934  0.0086  0.1590 -0.0108
  434loPI   C4A 6938  10.406   1.098   8.536  0.0208 -0.1599 -0.2818
  434loPI   C5A 6939  10.507   1.118   8.060 -0.0577 -0.1801  0.1565
  434loPI   C6A 6940  10.455   0.906   7.712  0.3947 -0.0750  0.1487
  434loPI   C1B 6941  10.980   1.177   9.842  0.0983  0.4226 -0.0127
  434loPI   C2B 6942  10.932   1.070   9.447 -0.0174  0.3618 -0.1718
  434loPI   C3B 6943  11.040   1.008   9.064  0.2690  0.0182  0.2996
  434loPI   C4B 6944  11.010   1.126   8.660 -0.0569 -0.0133 -0.0021
  435loPI    C1 6945  11.880   0.767  11.135 -0.2224 -0.1152  0.1321
  435loPI    C2 6946  12.257   0.857  11.235 -0.2635  0.0414  0.1481
  435loPI    C3 6947  11.985   0.788  11.520 -0.2319 -0.1381  0.1359
  435loPI   PO4 6948  11.851   0.838  10.899 -0.0396  0.0976  0.0825
  435loPI   GL1 6949  11.935   0.910  10.471 -0.1828 -0.1297  0.0393
  435loPI   GL2 6950  11.735   0.843  10.346  0.1497 -0.1462  0.2614
  435loPI   C1A 6951  11.935   1.315  10.144  0.0353  0.1289  0.1018
  435loPI   C2A 6952  12.060   1.353   9.640 -0.1148  0.1946 -0.0264
  435loPI   C3A 6953  12.076   1.203   9.177  0.3331  0.1462  0.1257
  435loPI   C4A 6954  12.097   1.196   8.728  0.1770 -0.3676 -0.3833
  435loPI   C5A 6955  12.005   1.188   8.306  0.1961 -0.0360  0.0868
  435loPI   C6A 6956  11.834   1.295   7.914 -0.3453  0.4268  0.3233
  435loPI   C1B 6957  11.837   0.800   9.881  0.0839  0.3437 -0.1808
  435loPI   C2B 6958  11.818   0.831   9.446 -0.1201  0.1874 -0.0131
  435loPI   C3B 6959  11.860   0.781   8.928 -0.4937  0.0886 -0.1376
  435loPI   C4B 6960  11.902   0.760   8.418 -0.0085 -0.0797 -0.0681
  436loPI    C1 6961   8.908  10.724  11.110  0.0329 -0.3166  0.0585
  436loPI    C2 6962   8.598  10.646  11.350 -0.2159 -0.0132 -0.1561
  436loPI    C3 6963   8.960  10.713  11.507 -0.3340 -0.0075  0.1206
  436loPI   PO4 6964   8.905  10.531  10.950 -0.0624 -0.1417  0.3303
  436loPI   GL1 6965   8.833  10.587  10.579 -0.0988 -0.3298  0.1437
  436loPI   GL2 6966   8.676  10.859  10.576 -0.2500  0.0166 -0.2795
  436loPI   C1A 6967   9.125  10.548  10.326  0.0874  0.1171  0.2929
  436loPI   C2A 6968   9.126  10.572  10.020  0.0611 -0.0283  0.0941
  436loPI   C3A 6969   9.145  10.520   9.481 -0.1986  0.3154  0.0899
  436loPI   C4A 6970   9.104  10.538   9.063  0.2213  0.0127 -0.2576
  436loPI   C5A 6971   9.064  10.586   8.652 -0.1097  0.2804 -0.0054
  436loPI   C6A 6972   8.741  10.740   8.384 -0.1863  0.2546 -0.1526
  436loPI   C1B 6973   8.799  10.945  10.175  0.0012 -0.2225 -0.2916
  436loPI   C2B 6974   8.802  10.958   9.710  0.0705  0.0336 -0.1271
  436loPI   C3B 6975   8.803  10.955   9.263 -0.0192  0.0135  0.1435
  436loPI   C4B 6976   8.690  10.979   8.879  0.1162  0.0075 -0.0124
  437loPI    C1 6977   7.295   3.190  11.044  0.1347 -0.2211  0.2919
  437loPI    C2 6978   7.063   3.419  11.275 -0.0679 -0.1442  0.0177
  437loPI    C3 6979   7.057   3.021  11.317 -0.0091 -0.1243  0.2275
  437loPI   PO4 6980   7.377   3.366  10.733  0.0644 -0.0565 -0.0259
  437loPI   GL1 6981   7.426   3.462  10.364  0.0834 -0.1953  0.0338
  437loPI   GL2 6982   7.059   3.551  10.346 -0.2191  0.1956 -0.0251
  437loPI   C1A 6983   7.549   3.425   9.903  0.0122 -0.4142  0.0833
  437loPI   C2A 6984   7.519   3.395   9.443 -0.3158  0.0561 -0.1886
  437loPI   C3A 6985   7.593   3.478   9.049 -0.1374 -0.1103  0.1483
  437loPI   C4A 6986   7.602   3.512   8.628  0.0807  0.4696  0.1021
  437loPI   C5A 6987   7.381   3.850   8.423 -0.2016 -0.1536  0.2075
  437loPI   C6A 6988   7.008   3.918   8.362  0.1208  0.1110  0.1774
  437loPI   C1B 6989   7.076   3.401   9.891 -0.1230 -0.1927  0.1579
  437loPI   C2B 6990   7.024   3.420   9.517 -0.3366 -0.0545  0.0787
  437loPI   C3B 6991   7.047   3.450   9.148  0.1985  0.1112 -0.4034
  437loPI   C4B 6992   6.993   3.452   8.731  0.2963 -0.1039  0.0105
  438loPI    C1 6993  12.814  16.632  10.825  0.1679  0.2240 -0.1970
  438loPI    C2 6994  12.991  16.362  11.061 -0.1298  0.0424 -0.1758
  438loPI    C3 6995  12.973  16.745  11.174  0.0183  0.0161 -0.0587
  438loPI   PO4 6996  12.920  16.681  10.555 -0.1514 -0.1598  0.0334
  438loPI   GL1 6997  12.544  16.553  10.313  0.1848  0.0496 -0.0201
  438loPI   GL2 6998  12.936  16.368  10.141  0.3020  0.1259  0.0815
  438loPI   C1A 6999  12.544  16.105  10.186  0.0633 -0.0080 -0.1168
  438loPI   C2A 7000  12.525  15.899   9.854  0.0347 -0.1944  0.0051
  438loPI   C3A 7001  12.527  15.925   9.427  0.0392  0.1185 -0.2601
  438loPI   C4A 7002  12.431  15.819   9.037 -0.1621 -0.0565 -0.0738
  438loPI   C5A 7003  12.483  15.861   8.538 -0.1948 -0.2496 -0.3225
  438loPI   C6A 7004  12.740  15.848   8.233  0.0488 -0.2687  0.0084
  438loPI   C1B 7005  12.649  16.433   9.771 -0.2336  0.2887  0.1757
  438loPI   C2B 7006  12.747  16.416   9.406  0.0451  0.2731  0.0332
  438loPI   C3B 7007  12.686  16.357   9.037 -0.0060 -0.0307  0.2217
  438loPI   C4B 7008  12.670  16.302   8.544  0.0047 -0.1383 -0.1499
  439loPI    C1 7009   5.834   8.942  10.861 -0.0442  0.0375  0.1227
  439loPI    C2 7010   5.666   8.587  10.939 -0.1242  0.0663  0.0820
  439loPI    C3 7011   6.001   8.696  11.129  0.0683 -0.1585 -0.1234
  439loPI   PO4 7012   5.769   8.890  10.499  0.0524  0.0618 -0.0307
  439loPI   GL1 7013   6.016   8.726  10.170 -0.0247  0.3852  0.0684
  439loPI   GL2 7014   6.161   8.567  10.161  0.1758 -0.0929  0.2007
  439loPI   C1A 7015   5.910   8.855   9.755 -0.0951  0.2260  0.1595
  439loPI   C2A 7016   5.853   8.870   9.277  0.1818  0.0413 -0.1820
  439loPI   C3A 7017   5.939   8.770   8.890 -0.1208 -0.1199 -0.0135
  439loPI   C4A 7018   6.013   8.733   8.386 -0.2412  0.0087 -0.0804
  439loPI   C5A 7019   6.292   8.576   7.934  0.0730  0.0730  0.2245
  439loPI   C6A 7020   6.545   8.778   7.599  0.3045 -0.0055 -0.2008
  439loPI   C1B 7021   6.185   8.371   9.788 -0.0973 -0.0593 -0.3783
  439loPI   C2B 7022   6.099   8.469   9.323 -0.0176 -0.1033  0.0548
  439loPI   C3B 7023   6.215   8.352   8.925  0.0339  0.1882 -0.0544
  439loPI   C4B 7024   6.389   8.324   8.555 -0.1852  0.3095 -0.3158
  440loPI    C1 7025  15.034  16.776  10.719  0.1469  0.1921  0.1327
  440loPI    C2 7026  15.410  16.875  10.813  0.2476 -0.0536 -0.0025
  440loPI    C3 7027  15.156  16.759  11.100  0.2962  0.0425  0.0796
  440loPI   PO4 7028  14.897  16.674  10.528 -0.2239  0.2341 -0.0287
  440loPI   GL1 7029  14.803  16.599  10.164 -0.0634  0.0771  0.2138
  440loPI   GL2 7030  14.578  16.292  10.168  0.1842  0.2550 -0.3405
  440loPI   C1A 7031  14.821  16.628   9.807 -0.1562 -0.0812  0.1378
  440loPI   C2A 7032  14.829  16.577   9.347  0.0311 -0.3032 -0.0685
  440loPI   C3A 7033  14.770  16.650   8.955  0.0627 -0.2455  0.2421
  440loPI   C4A 7034  14.730  16.719   8.573 -0.2342  0.0390  0.0879
  440loPI   C5A 7035  14.775  16.690   8.133 -0.0950  0.1196  0.4096
  440loPI   C6A 7036  14.706  16.844   7.776 -0.2827 -0.3187  0.2141
  440loPI   C1B 7037  14.628  16.181   9.710 -0.0488  0.1490  0.1248
  440loPI   C2B 7038  14.570  16.178   9.264 -0.2271  0.0922 -0.0434
  440loPI   C3B 7039  14.563  16.210   8.791  0.0693  0.2660  0.4268
  440loPI   C4B 7040  14.538  16.231   8.285 -0.3673  0.2624 -0.0613
  441loPI    C1 7041   1.770  10.160  10.992  0.2777 -0.1382  0.3108
  441loPI    C2 7042   1.560   9.875  11.179  0.0988 -0.0876  0.1891
  441loPI    C3 7043   1.575  10.245  11.332  0.1206 -0.0979  0.2116
  441loPI   PO4 7044   1.750  10.041  10.720 -0.0274  0.0548 -0.2868
  441loPI   GL1 7045   1.959  10.134  10.376  0.2005  0.1232  0.0599
  441loPI   GL2 7046   1.957   9.799  10.279  0.1305  0.0868  0.0503
  441loPI   C1A 7047   2.007  10.161   9.984  0.0338  0.0984 -0.2616
  441loPI   C2A 7048   1.986  10.140   9.592 -0.2903 -0.0738 -0.1465
  441loPI   C3A 7049   2.004  10.096   9.087 -0.2067 -0.1808  0.3043
  441loPI   C4A 7050   1.886  10.153   8.655  0.3420  0.1629 -0.1688
  441loPI   C5A 7051   2.032  10.073   8.230 -0.2066 -0.2760 -0.0288
  441loPI   C6A 7052   2.316   9.875   8.005  0.0455  0.5219 -0.5088
  441loPI   C1B 7053   1.796   9.740   9.894  0.2102 -0.0850 -0.0843
  441loPI   C2B 7054   1.824   9.674   9.452 -0.2712  0.2398 -0.1361
  441loPI   C3B 7055   1.895   9.627   9.047 -0.0948  0.0125 -0.1909
  441loPI   C4B 7056   1.773   9.679   8.558 -0.1060  0.0559 -0.2093
  442loPI    C1 7057  17.525   4.497  10.105 -0.1437  0.0871 -0.4369
  442loPI    C2 7058  17.167   4.615  10.238 -0.0483 -0.0958 -0.0004
  442loPI    C3 7059  17.488   4.646  10.474  0.1840 -0.1509 -0.3032
  442loPI   PO4 7060  17.546   4.514   9.907 -0.0002  0.2468 -0.1213
  442loPI   GL1 7061  17.529   4.629   9.486  0.0248  0.0117  0.2473
  442loPI   GL2 7062  17.777   4.598   9.240 -0.0400 -0.0379  0.1204
  442loPI   C1A 7063  17.315   4.803   9.119 -0.0493  0.5596  0.0976
  442loPI   C2A 7064  17.142   4.631   8.773  0.0187  0.0279 -0.0001
  442loPI   C3A 7065  16.960   4.648   8.336  0.2158 -0.0255  0.2269
  442loPI   C4A 7066  16.739   4.673   7.917  0.1615  0.2185 -0.2318
  442loPI   C5A 7067  16.920   4.819   7.610  0.1161  0.3040 -0.0543
  442loPI   C6A 7068  17.050   4.998   7.283 -0.3036 -0.4211 -0.4608
  442loPI   C1B 7069  17.848   4.672   8.803 -0.0041  0.2223  0.4376
  442loPI   C2B 7070  17.564   4.746   8.419  0.0425  0.0726  0.0051
  442loPI   C3B 7071  17.614   5.007   8.063 -0.0286  0.2418 -0.1416
  442loPI   C4B 7072  17.841   5.345   8.004 -0.1399  0.5272 -0.1727
  443loPI    C1 7073   1.685   9.384  10.680  0.0694  0.0308 -0.0911
  443loPI    C2 7074   1.326   9.211  10.716  0.1649 -0.2155 -0.2891
  443loPI    C3 7075   1.513   9.354  11.039 -0.2698  0.2488 -0.2296
  443loPI   PO4 7076   1.654   9.501  10.515 -0.0172  0.1484 -0.1675
  443loPI   GL1 7077   1.283   9.476  10.225  0.1113  0.1211  0.1997
  443loPI   GL2 7078   1.052   9.195  10.093 -0.3178 -0.2412 -0.0011
  443loPI   C1A 7079   1.378   9.549   9.749  0.1486 -0.0267  0.3045
  443loPI   C2A 7080   1.342   9.532   9.305  0.0789 -0.0947  0.1702
  443loPI   C3A 7081   1.379   9.503   8.920 -0.1891  0.1771  0.1909
  443loPI   C4A 7082   1.286   9.688   8.475  0.0177  0.1000 -0.0559
  443loPI   C5A 7083   1.119   9.894   8.033 -0.1599  0.1760 -0.2110
  443loPI   C6A 7084   0.987  10.182   7.826 -0.2318  0.1065 -0.2092
  443loPI   C1B 7085   1.226   9.109   9.660 -0.2978  0.1579 -0.0788
  443loPI   C2B 7086   1.077   9.137   9.187  0.1263 -0.0915  0.0686
  443loPI   C3B 7087   1.011   9.218   8.740  0.1011 -0.1470  0.1727
  443loPI   C4B 7088   1.050   9.286   8.299 -0.0859 -0.1416  0.2673
  444loPI    C1 7089  10.347  15.594  10.854  0.0514 -0.2047  0.0105
  444loPI    C2 7090  10.363  15.875  11.139  0.0685  0.0572 -0.2447
  444loPI    C3 7091  10.224  15.510  11.226  0.1744  0.1008  0.1236
  444loPI   PO4 7092  10.605  15.536  10.763  0.0177 -0.0712  0.2639
  444loPI   GL1 7093  10.777  15.487  10.423 -0.2848  0.4245 -0.3296
  444loPI   GL2 7094  11.000  15.267  10.418  0.2618 -0.1955 -0.0687
  444loPI   C1A 7095  10.690  15.298  10.038 -0.1253 -0.2621 -0.1689
  444loPI   C2A 7096  10.705  15.215   9.548  0.0916  0.1358 -0.4583
  444loPI   C3A 7097  10.706  15.198   9.064  0.3050  0.4179 -0.2519
  444loPI   C4A 7098  10.675  15.280   8.631 -0.2270 -0.0245 -0.0485
  444loPI   C5A 7099  10.440  15.503   8.364  0.0556  0.0081 -0.0670
  444loPI   C6A 7100  10.486  15.575   8.003  0.1106 -0.1175  0.1023
  444loPI   C1B 7101  11.285  15.323  10.088 -0.2221  0.2919  0.0753
  444loPI   C2B 7102  11.202  15.238   9.652 -0.0633  0.1153 -0.1071
  444loPI   C3B 7103  11.226  15.299   9.332 -0.2004  0.0119  0.3583
  444loPI   C4B 7104  11.229  15.281   8.887  0.2579  0.0628 -0.1252
  445loPI    C1 7105  16.225   1.458  10.768  0.2885  0.0951  0.1280
  445loPI    C2 7106  16.240   1.062  10.822 -0.0449  0.0804  0.1386
  445loPI    C3 7107  16.315   1.309  11.128  0.1573  0.0270  0.1335
  445loPI   PO4 7108  16.132   1.470  10.562  0.0600 -0.0585 -0.1187
  445loPI   GL1 7109  16.069   1.407  10.100 -0.2060  0.0144 -0.2557
  445loPI   GL2 7110  16.235   1.670  10.103  0.2853  0.0401  0.5546
  445loPI   C1A 7111  15.893   1.394   9.613  0.1987  0.2553  0.2548
  445loPI   C2A 7112  15.876   1.386   9.072 -0.0570 -0.1149 -0.0488
  445loPI   C3A 7113  15.832   1.409   8.618 -0.3229 -0.2094  0.1088
  445loPI   C4A 7114  15.704   1.350   8.219 -0.0803  0.0230 -0.1529
  445loPI   C5A 7115  15.351   0.946   8.107  0.3638 -0.0017  0.3364
  445loPI   C6A 7116  14.978   0.644   7.897 -0.3116 -0.0807  0.0338
  445loPI   C1B 7117  16.228   1.815   9.628 -0.0108  0.1547  0.1294
  445loPI   C2B 7118  16.098   1.874   9.180 -0.0599 -0.0699  0.1909
  445loPI   C3B 7119  16.023   1.906   8.695 -0.2900  0.1624  0.2061
  445loPI   C4B 7120  15.981   1.844   8.311 -0.1115  0.0142 -0.0359
  446loPI    C1 7121  13.706   6.456  11.102  0.1898  0.0407  0.1780
  446loPI    C2 7122  13.570   6.677  11.406  0.2694 -0.1346  0.3434
  446loPI    C3 7123  13.934   6.511  11.426  0.3282 -0.0409  0.0960
  446loPI   PO4 7124  13.639   6.605  10.920 -0.0564 -0.1383  0.3204
  446loPI   GL1 7125  13.589   6.615  10.501 -0.0753  0.0662  0.4135
  446loPI   GL2 7126  13.765   6.353  10.504  0.1289  0.0873  0.3202
  446loPI   C1A 7127  13.242   6.619  10.204  0.1186  0.1519 -0.2891
  446loPI   C2A 7128  13.182   6.513   9.783  0.2826  0.0285 -0.1141
  446loPI   C3A 7129  13.166   6.524   9.328 -0.1763 -0.2938  0.5750
  446loPI   C4A 7130  13.172   6.358   8.809  0.1273  0.1500 -0.1766
  446loPI   C5A 7131  13.317   6.167   8.455 -0.3330 -0.2646 -0.0924
  446loPI   C6A 7132  13.607   5.873   8.164  0.1829  0.3938  0.0313
  446loPI   C1B 7133  13.632   6.139  10.178 -0.4082  0.0427 -0.1263
  446loPI   C2B 7134  13.498   6.050   9.813  0.2861  0.0495 -0.0136
  446loPI   C3B 7135  13.462   6.001   9.345 -0.3200 -0.1081  0.0023
  446loPI   C4B 7136  13.457   5.989   8.892 -0.0377 -0.1969 -0.1205
  447loPI    C1 7137  13.666   1.233  10.449 -0.1801 -0.1558 -0.0209
  447loPI    C2 7138  13.987   0.997  10.484 -0.0022  0.0671 -0.1299
  447loPI    C3 7139  13.891   1.249  10.779  0.0015  0.0964 -0.1537
  447loPI   PO4 7140  13.494   1.045  10.305 -0.2334 -0.1153 -0.0732
  447loPI   GL1 7141  13.427   0.927   9.954  0.1106  0.0682  0.0787
  447loPI   GL2 7142  13.524   0.618  10.070 -0.0452  0.4295  0.1551
  447loPI   C1A 7143  13.371   0.967   9.481 -0.2260 -0.0818  0.1696
  447loPI   C2A 7144  13.426   0.885   9.033 -0.5977 -0.2339 -0.2323
  447loPI   C3A 7145  13.335   0.884   8.638 -0.1373 -0.2330 -0.0091
  447loPI   C4A 7146  13.303   0.854   8.223 -0.2427  0.0303  0.1750
  447loPI   C5A 7147  13.479   0.611   7.903 -0.2445  0.0193 -0.1106
  447loPI   C6A 7148  13.689   0.291   7.836  0.0149  0.1541 -0.0084
  447loPI   C1B 7149  13.672   0.545   9.643 -0.0553 -0.1716 -0.3337
  447loPI   C2B 7150  13.736   0.591   9.235  0.2580  0.0899 -0.2454
  447loPI   C3B 7151  13.658   0.507   8.805  0.1119 -0.1558  0.2592
  447loPI   C4B 7152  13.693   0.552   8.374  0.1828  0.0537 -0.1495
  448loPI    C1 7153   9.592   7.542  11.065  0.0951  0.1605 -0.3882
  448loPI    C2 7154   9.204   7.503  11.153  0.1287  0.1971 -0.2210
  448loPI    C3 7155   9.475   7.271  11.335  0.1777  0.1106 -0.4021
  448loPI   PO4 7156   9.584   7.601  10.798 -0.0706  0.3685  0.3277
  448loPI   GL1 7157   9.475   7.452  10.412 -0.0884 -0.3133 -0.0421
  448loPI   GL2 7158   9.730   7.223  10.467  0.1152 -0.1055  0.2791
  448loPI   C1A 7159   9.692   7.337   9.929 -0.0166 -0.0231 -0.3357
  448loPI   C2A 7160   9.654   7.389   9.458  0.0198  0.1877 -0.1346
  448loPI   C3A 7161   9.572   7.462   9.066 -0.2389 -0.1081 -0.1057
  448loPI   C4A 7162   9.779   7.338   8.753 -0.2421  0.0311  0.1177
  448loPI   C5A 7163   9.454   7.237   8.415  0.0432 -0.0581 -0.1850
  448loPI   C6A 7164   9.087   7.361   8.187  0.3078  0.0626  0.0689
  448loPI   C1B 7165   9.540   6.891  10.150 -0.1738 -0.2712  0.0248
  448loPI   C2B 7166   9.496   6.930   9.759 -0.1033  0.0894  0.1031
  448loPI   C3B 7167   9.423   6.991   9.287 -0.0883 -0.1889  0.1896
  448loPI   C4B 7168   9.553   6.924   8.892  0.0124  0.0630  0.2085
  449loPI    C1 7169   2.818   8.438  10.574 -0.2311 -0.0287 -0.0966
  449loPI    C2 7170   3.192   8.301  10.530 -0.2495 -0.1316  0.0617
  449loPI    C3 7171   3.084   8.484  10.869 -0.2222  0.2900 -0.1513
  449loPI   PO4 7172   2.702   8.383  10.351  0.2196 -0.2352 -0.0440
  449loPI   GL1 7173   2.893   8.299   9.936 -0.0343  0.4271 -0.3926
  449loPI   GL2 7174   3.042   7.986   9.772 -0.2187  0.3008  0.2236
  449loPI   C1A 7175   2.876   8.533   9.571  0.1343 -0.1512 -0.0624
  449loPI   C2A 7176   2.848   8.512   9.152  0.0351  0.1940 -0.1191
  449loPI   C3A 7177   2.691   8.477   8.732  0.1220  0.3482  0.1747
  449loPI   C4A 7178   2.564   8.426   8.266  0.1844  0.0740  0.1063
  449loPI   C5A 7179   2.431   8.413   7.982  0.2758 -0.1332 -0.1609
  449loPI   C6A 7180   2.374   8.184   7.626 -0.1792 -0.0378 -0.1081
  449loPI   C1B 7181   3.104   8.072   9.365 -0.1327 -0.0198 -0.0547
  449loPI   C2B 7182   3.090   8.043   8.931 -0.1561 -0.1398 -0.2611
  449loPI   C3B 7183   3.068   7.902   8.478  0.3973 -0.4001 -0.1394
  449loPI   C4B 7184   2.912   7.863   7.966  0.1015  0.0324  0.1460
  450loPI    C1 7185   8.898   9.643  10.855 -0.1468 -0.1600 -0.0028
  450loPI    C2 7186   9.106   9.761  11.176 -0.1863 -0.2793  0.0675
  450loPI    C3 7187   8.979   9.383  11.148  0.1944 -0.3880 -0.2923
  450loPI   PO4 7188   8.967   9.655  10.652  0.1368  0.3949  0.0002
  450loPI   GL1 7189   9.118   9.503  10.309 -0.0258  0.1244 -0.1052
  450loPI   GL2 7190   8.937   9.267  10.139  0.1263  0.1402 -0.4340
  450loPI   C1A 7191   9.094   9.636   9.860 -0.2352  0.0022 -0.1707
  450loPI   C2A 7192   9.164   9.599   9.410 -0.0692  0.3961  0.1067
  450loPI   C3A 7193   9.150   9.676   8.986 -0.4390 -0.0930 -0.0337
  450loPI   C4A 7194   9.236   9.647   8.529  0.4016 -0.0736 -0.1759
  450loPI   C5A 7195   9.279   9.827   8.075 -0.0491  0.0861 -0.1120
  450loPI   C6A 7196   9.051   9.869   7.774  0.0426 -0.0803 -0.1777
  450loPI   C1B 7197   8.855   9.188   9.685 -0.2249  0.0377 -0.2038
  450loPI   C2B 7198   8.930   9.184   9.195 -0.2410  0.0733  0.0835
  450loPI   C3B 7199   8.960   9.290   8.738 -0.3272 -0.0535 -0.1210
  450loPI   C4B 7200   8.833   9.435   8.328 -0.1978 -0.0524  0.0822
  451loPI    C1 7201   1.654   6.058  10.613 -0.0345 -0.1766  0.1160
  451loPI    C2 7202   1.478   6.206  10.286 -0.0168  0.2599  0.2971
  451loPI    C3 7203   1.362   5.853  10.433  0.0878 -0.0220 -0.2689
  451loPI   PO4 7204   1.909   6.088  10.568 -0.3845  0.0622 -0.1227
  451loPI   GL1 7205   2.033   5.993  10.034  0.0567 -0.1412 -0.2039
  451loPI   GL2 7206   1.785   5.816  10.157  0.0155  0.1592 -0.2176
  451loPI   C1A 7207   2.162   6.128   9.541 -0.2443  0.1017 -0.1825
  451loPI   C2A 7208   2.257   6.095   9.056 -0.2083  0.6705 -0.2743
  451loPI   C3A 7209   2.308   5.986   8.604  0.2067  0.0268  0.0578
  451loPI   C4A 7210   2.181   6.017   8.219 -0.1713  0.4071  0.1740
  451loPI   C5A 7211   2.245   5.957   7.706 -0.0960 -0.1635  0.2596
  451loPI   C6A 7212   2.583   5.952   7.523  0.0279 -0.1313  0.0141
  451loPI   C1B 7213   1.694   6.027   9.734  0.1092  0.2120 -0.0273
  451loPI   C2B 7214   1.789   6.116   9.190 -0.3134  0.0641  0.2390
  451loPI   C3B 7215   1.692   6.035   8.659 -0.2167  0.3560  0.0142
  451loPI   C4B 7216   1.727   6.124   8.288 -0.0060 -0.0465  0.1156
  452loPI    C1 7217  12.783  17.290  11.051  0.0314  0.2340  0.1381
  452loPI    C2 7218  12.705  17.138  11.413 -0.0987  0.2310  0.1093
  452loPI    C3 7219  13.064  17.297  11.336  0.0507 -0.0887  0.1311
  452loPI   PO4 7220  12.714  17.072  10.853  0.2790 -0.1496 -0.0762
  452loPI   GL1 7221  12.717  17.051  10.394  0.0574  0.1794  0.0836
  452loPI   GL2 7222  12.822  17.408  10.379  0.2191  0.0936  0.0464
  452loPI   C1A 7223  12.802  16.897   9.918 -0.0303  0.1938 -0.2293
  452loPI   C2A 7224  12.820  16.881   9.532 -0.3801 -0.1881  0.1161
  452loPI   C3A 7225  12.815  16.901   9.226  0.1507  0.0173 -0.1368
  452loPI   C4A 7226  12.825  16.871   8.760  0.0616 -0.2733 -0.0305
  452loPI   C5A 7227  13.002  16.694   8.386 -0.1015 -0.1828  0.2003
  452loPI   C6A 7228  13.337  16.681   8.035  0.0793  0.0120 -0.0284
  452loPI   C1B 7229  12.937  17.413   9.985  0.2394  0.0668  0.2065
  452loPI   C2B 7230  13.000  17.401   9.493  0.0150  0.2722  0.1321
  452loPI   C3B 7231  13.084  17.253   9.022 -0.0433  0.0782 -0.3280
  452loPI   C4B 7232  13.066  17.336   8.565 -0.0846  0.0318 -0.2261
  453loPI    C1 7233  13.469   1.579  10.916 -0.0298 -0.2637  0.1867
  453loPI    C2 7234  13.832   1.726  10.995 -0.0354 -0.1968  0.0898
  453loPI    C3 7235  13.528   1.798  11.245 -0.0230 -0.0991  0.0773
  453loPI   PO4 7236  13.479   1.677  10.521 -0.0261  0.0396 -0.2635
  453loPI   GL1 7237  13.397   1.501  10.060 -0.0119  0.2163 -0.0835
  453loPI   GL2 7238  13.697   1.513  10.043 -0.0383  0.1112  0.0261
  453loPI   C1A 7239  13.046   1.339   9.859 -0.0295  0.1814  0.2050
  453loPI   C2A 7240  13.055   1.347   9.552 -0.0076 -0.1166  0.1184
  453loPI   C3A 7241  13.113   1.380   9.062 -0.0983 -0.1710  0.2148
  453loPI   C4A 7242  13.034   1.294   8.698  0.0807  0.0077  0.0815
  453loPI   C5A 7243  13.037   1.312   8.267  0.1605  0.1580  0.1243
  453loPI   C6A 7244  13.246   1.315   7.938  0.3889  0.0748 -0.0042
  453loPI   C1B 7245  13.562   1.436   9.625  0.1587 -0.0821 -0.1733
  453loPI   C2B 7246  13.592   1.353   9.236 -0.0317 -0.1682  0.0233
  453loPI   C3B 7247  13.601   1.506   8.788  0.1193 -0.1730 -0.1706
  453loPI   C4B 7248  13.532   1.439   8.335  0.0793  0.0749  0.0421
  454loPI    C1 7249  10.448   0.387  10.993 -0.0600 -0.1164  0.2050
  454loPI    C2 7250  10.484   0.734  11.189  0.3983 -0.0390 -0.0037
  454loPI    C3 7251  10.687   0.413  11.313  0.2280 -0.1477 -0.0037
  454loPI   PO4 7252  10.416   0.446  10.720 -0.0619  0.0522 -0.0961
  454loPI   GL1 7253  10.626   0.646  10.365 -0.1830 -0.3828  0.0912
  454loPI   GL2 7254  10.287   0.722  10.267  0.0864 -0.0350 -0.2491
  454loPI   C1A 7255  10.795   0.713  10.002  0.0797 -0.2361  0.1955
  454loPI   C2A 7256  10.697   0.659   9.638  0.0069 -0.1273  0.0716
  454loPI   C3A 7257  10.735   0.592   9.181 -0.2127  0.0174 -0.1340
  454loPI   C4A 7258  10.731   0.692   8.737  0.3230  0.1265  0.0457
  454loPI   C5A 7259  10.691   0.685   8.270  0.0342  0.3276  0.1918
  454loPI   C6A 7260  10.770   0.571   7.779  0.3492  0.0458  0.3362
  454loPI   C1B 7261  10.236   0.594   9.846  0.2930 -0.0945 -0.0980
  454loPI   C2B 7262  10.282   0.562   9.381  0.0180  0.0209 -0.0807
  454loPI   C3B 7263  10.212   0.596   9.025  0.2103  0.0816 -0.3816
  454loPI   C4B 7264  10.256   0.609   8.541 -0.0806  0.0501  0.0530
  455loPI    C1 7265  11.759  15.692  11.156 -0.0425  0.2926  0.0431
  455loPI    C2 7266  11.605  15.462  11.445 -0.2311  0.3126 -0.0397
  455loPI    C3 7267  11.702  15.843  11.521  0.1457  0.1908  0.1162
  455loPI   PO4 7268  11.623  15.638  10.929  0.0479  0.1880  0.3315
  455loPI   GL1 7269  11.799  15.599  10.685  0.2860 -0.2954  0.2484
  455loPI   GL2 7270  11.910  15.781  10.544  0.1292 -0.0539  0.3408
  455loPI   C1A 7271  11.754  15.496  10.213 -0.0882 -0.1067  0.0677
  455loPI   C2A 7272  11.725  15.333   9.849 -0.1111 -0.2266  0.0210
  455loPI   C3A 7273  11.806  15.330   9.466 -0.0283  0.1111 -0.0758
  455loPI   C4A 7274  11.752  15.281   9.015 -0.0950  0.1230 -0.0690
  455loPI   C5A 7275  11.674  15.373   8.630 -0.0116 -0.2494  0.2496
  455loPI   C6A 7276  11.264  15.344   8.339  0.0889  0.1364  0.2541
  455loPI   C1B 7277  12.021  15.952  10.111  0.0391 -0.2120 -0.0825
  455loPI   C2B 7278  12.013  15.780   9.750  0.1030  0.0655 -0.1605
  455loPI   C3B 7279  11.999  15.819   9.343 -0.1494 -0.0688  0.2278
  455loPI   C4B 7280  11.998  15.807   8.887  0.1518 -0.1672  0.0046
  456loPI    C1 7281   6.678  10.298  11.338  0.0389  0.1673  0.1255
  456loPI    C2 7282   6.650   9.905  11.406  0.0346  0.1207 -0.1364
  456loPI    C3 7283   6.374  10.154  11.554 -0.0426  0.0091 -0.0918
  456loPI   PO4 7284   6.810  10.256  11.081  0.1734  0.2133 -0.1667
  456loPI   GL1 7285   6.985  10.247  10.699  0.3213 -0.0887  0.3497
  456loPI   GL2 7286   7.257  10.035  10.566  0.0723  0.1552 -0.1478
  456loPI   C1A 7287   6.921  10.298  10.233  0.0351 -0.0640 -0.0626
  456loPI   C2A 7288   7.081  10.267   9.857  0.1151 -0.2546  0.2826
  456loPI   C3A 7289   7.076  10.285   9.438  0.4330  0.0430 -0.1380
  456loPI   C4A 7290   7.018  10.295   8.960  0.1298  0.0190  0.1935
  456loPI   C5A 7291   7.007  10.186   8.516 -0.1581 -0.0718  0.1196
  456loPI   C6A 7292   7.196  10.171   8.136  0.0371 -0.0642 -0.0264
  456loPI   C1B 7293   7.277   9.822  10.130 -0.0660  0.0883 -0.2661
  456loPI   C2B 7294   7.350   9.848   9.630 -0.2338  0.1831  0.1856
  456loPI   C3B 7295   7.346   9.932   9.189  0.0151  0.1260 -0.0190
  456loPI   C4B 7296   7.334   9.926   8.787 -0.0137 -0.2125  0.0922
  457loPI    C1 7297   8.367  15.430  11.056 -0.0838 -0.0471 -0.2651
  457loPI    C2 7298   8.075  15.701  11.097 -0.0038  0.0332 -0.2247
  457loPI    C3 7299   8.405  15.726  11.322  0.0768 -0.0009 -0.3383
  457loPI   PO4 7300   8.319  15.407  10.721 -0.4203 -0.3097 -0.1900
  457loPI   GL1 7301   8.113  15.327  10.229 -0.0282 -0.2903 -0.2548
  457loPI   GL2 7302   8.425  15.179  10.155 -0.0251  0.0164  0.0587
  457loPI   C1A 7303   8.221  15.582   9.901 -0.0116 -0.1980  0.0438
  457loPI   C2A 7304   8.213  15.484   9.445 -0.2274  0.1223  0.0160
  457loPI   C3A 7305   8.274  15.392   9.062  0.2919  0.1012 -0.3356
  457loPI   C4A 7306   8.271  15.459   8.672 -0.0875 -0.1586  0.2604
  457loPI   C5A 7307   8.074  15.658   8.308 -0.1097 -0.1449 -0.3290
  457loPI   C6A 7308   8.153  15.727   7.793 -0.0495  0.5152  0.3795
  457loPI   C1B 7309   8.487  15.096   9.706 -0.2501 -0.0163 -0.0830
  457loPI   C2B 7310   8.535  14.969   9.257  0.0685 -0.2709  0.1025
  457loPI   C3B 7311   8.635  15.039   8.808 -0.1509 -0.0171 -0.2009
  457loPI   C4B 7312   8.660  14.985   8.332 -0.3046 -0.2288 -0.0257
  458loPI    C1 7313  12.491   2.911  10.807  0.0309  0.0111 -0.0051
  458loPI    C2 7314  12.341   2.927  11.178  0.0008  0.1843 -0.0240
  458loPI    C3 7315  12.731   2.857  11.123 -0.0092  0.0785  0.0372
  458loPI   PO4 7316  12.451   3.085  10.690 -0.3550  0.1025  0.0523
  458loPI   GL1 7317  12.749   3.171  10.360 -0.2149 -0.0327 -0.2804
  458loPI   GL2 7318  12.438   3.226  10.216 -0.3803  0.0130  0.4249
  458loPI   C1A 7319  12.910   3.252   9.994 -0.1958 -0.3470 -0.0170
  458loPI   C2A 7320  12.883   3.141   9.685 -0.3261  0.0351 -0.3422
  458loPI   C3A 7321  12.690   3.165   9.300 -0.2272  0.3000 -0.1090
  458loPI   C4A 7322  12.738   3.024   8.848  0.1553 -0.0304  0.0765
  458loPI   C5A 7323  12.635   2.979   8.396 -0.3298  0.3140 -0.1495
  458loPI   C6A 7324  12.718   2.660   8.139  0.2357  0.2479 -0.0374
  458loPI   C1B 7325  12.357   3.228   9.858 -0.0832 -0.0452 -0.0596
  458loPI   C2B 7326  12.237   3.164   9.420  0.0986  0.0814  0.1136
  458loPI   C3B 7327  12.257   3.100   9.066 -0.4471  0.0729 -0.2509
  458loPI   C4B 7328  12.175   2.902   8.686  0.0689 -0.2203  0.4499
  459loPI    C1 7329   2.129   2.315  10.732  0.2923 -0.1856 -0.1196
  459loPI    C2 7330   2.269   2.036  10.982  0.0928 -0.2248 -0.0501
  459loPI    C3 7331   1.915   2.208  11.052  0.1320 -0.0839 -0.1916
  459loPI   PO4 7332   2.203   2.201  10.483 -0.1459  0.3016  0.0205
  459loPI   GL1 7333   2.177   2.295  10.073  0.1157 -0.2006  0.0603
  459loPI   GL2 7334   1.992   2.585   9.991  0.1270  0.2837 -0.2904
  459loPI   C1A 7335   2.441   2.507   9.871 -0.1011 -0.0258  0.0719
  459loPI   C2A 7336   2.540   2.483   9.444 -0.6371 -0.0201 -0.1606
  459loPI   C3A 7337   2.665   2.561   8.947  0.1756 -0.3831 -0.0361
  459loPI   C4A 7338   2.584   2.631   8.506  0.1993 -0.0980 -0.0531
  459loPI   C5A 7339   2.815   2.598   8.088 -0.0032  0.1047  0.1154
  459loPI   C6A 7340   3.207   2.614   7.892  0.2089 -0.1432  0.0190
  459loPI   C1B 7341   2.057   2.442   9.518 -0.2400  0.0459 -0.1893
  459loPI   C2B 7342   2.110   2.563   9.094 -0.2030  0.1260  0.1827
  459loPI   C3B 7343   2.142   2.496   8.669 -0.2646 -0.2367  0.2108
  459loPI   C4B 7344   2.178   2.514   8.179 -0.1425  0.2006  0.0334
  460loPI    C1 7345   5.450   3.900  10.891  0.3036 -0.0492 -0.1012
  460loPI    C2 7346   5.121   3.731  11.043  0.2627  0.0054 -0.1288
  460loPI    C3 7347   5.361   3.949  11.278  0.1906  0.1035 -0.1455
  460loPI   PO4 7348   5.365   3.949  10.635 -0.0708 -0.0718 -0.3090
  460loPI   GL1 7349   5.195   3.658  10.374 -0.0118  0.1641 -0.0361
  460loPI   GL2 7350   5.612   3.637  10.279  0.1294 -0.2258 -0.0688
  460loPI   C1A 7351   5.174   3.806   9.907 -0.4689  0.0535  0.0591
  460loPI   C2A 7352   5.205   3.747   9.411  0.0480 -0.2988 -0.0752
  460loPI   C3A 7353   5.125   3.720   8.962  0.0590 -0.3532 -0.4009
  460loPI   C4A 7354   5.151   3.658   8.590  0.3573  0.3240 -0.1122
  460loPI   C5A 7355   5.374   3.631   8.227  0.2790 -0.0935  0.2274
  460loPI   C6A 7356   5.306   3.579   7.807  0.1728  0.3301 -0.3109
  460loPI   C1B 7357   5.716   3.771   9.885  0.0446 -0.1216  0.2080
  460loPI   C2B 7358   5.679   3.831   9.457 -0.0040  0.0821 -0.1168
  460loPI   C3B 7359   5.660   3.769   9.017  0.3541 -0.1426  0.3234
  460loPI   C4B 7360   5.711   3.841   8.586 -0.2554 -0.0843 -0.1472
  461loPI    C1 7361   8.742  15.069  10.882 -0.0132  0.0525 -0.0113
  461loPI    C2 7362   8.702  15.065  11.280 -0.1192 -0.0483 -0.0226
  461loPI    C3 7363   9.065  15.100  11.115 -0.0892  0.1443  0.0825
  461loPI   PO4 7364   8.688  14.884  10.611  0.0640  0.0428  0.2070
  461loPI   GL1 7365   8.898  14.823  10.230  0.0380 -0.1669 -0.1894
  461loPI   GL2 7366   9.101  15.156  10.136 -0.0418  0.1099  0.0073
  461loPI   C1A 7367   8.916  14.759   9.810  0.1849  0.0822 -0.3493
  461loPI   C2A 7368   8.812  14.608   9.460  0.0390  0.0854 -0.0767
  461loPI   C3A 7369   8.787  14.597   9.059 -0.0608 -0.0799 -0.0343
  461loPI   C4A 7370   8.935  14.645   8.671  0.1285 -0.0438  0.2122
  461loPI   C5A 7371   9.139  14.681   8.216 -0.1306  0.0189  0.0069
  461loPI   C6A 7372   8.993  14.594   7.814  0.2571  0.3161  0.0285
  461loPI   C1B 7373   8.995  15.207   9.669 -0.2120  0.1135  0.1382
  461loPI   C2B 7374   9.032  15.085   9.162 -0.0667 -0.1208  0.1643
  461loPI   C3B 7375   9.104  15.082   8.739 -0.0346  0.1664 -0.0057
  461loPI   C4B 7376   9.125  15.150   8.358  0.1247  0.1504  0.1560
  462loPI    C1 7377   9.215   1.605  10.883  0.2459  0.0708  0.0274
  462loPI    C2 7378   9.344   1.295  10.666  0.1442 -0.0016  0.0695
  462loPI    C3 7379   9.427   1.314  11.056  0.0798 -0.0177  0.0841
  462loPI   PO4 7380   9.073   1.713  10.756 -0.0038 -0.0523 -0.1219
  462loPI   GL1 7381   8.896   1.530  10.417  0.4474 -0.0469 -0.2587
  462loPI   GL2 7382   8.689   1.740  10.340 -0.0968  0.1819  0.0728
  462loPI   C1A 7383   8.969   1.348  10.064  0.0233 -0.1656  0.2204
  462loPI   C2A 7384   9.013   1.366   9.617 -0.0673  0.0018  0.0918
  462loPI   C3A 7385   9.119   1.501   9.234  0.1812  0.0190  0.2205
  462loPI   C4A 7386   9.177   1.475   8.746  0.1439  0.1983 -0.2334
  462loPI   C5A 7387   9.141   1.368   8.261  0.0196  0.0145  0.1126
  462loPI   C6A 7388   9.176   1.301   7.722  0.2701  0.2196 -0.0471
  462loPI   C1B 7389   8.746   1.781   9.821 -0.1059 -0.2821 -0.1452
  462loPI   C2B 7390   8.716   1.758   9.411  0.0768 -0.1656  0.0217
  462loPI   C3B 7391   8.860   1.804   8.966  0.0619 -0.1988  0.1026
  462loPI   C4B 7392   8.868   1.792   8.518  0.0099 -0.1054 -0.1281
  463loPI    C1 7393  17.182  16.628  10.341 -0.1308  0.2062  0.3813
  463loPI    C2 7394  17.548  16.535  10.474 -0.0487 -0.0509 -0.0064
  463loPI    C3 7395  17.457  16.914  10.384  0.0519  0.0463  0.2906
  463loPI   PO4 7396  17.062  16.508  10.049 -0.0345 -0.1274 -0.5010
  463loPI   GL1 7397  17.113  16.470   9.647  0.0386  0.1993 -0.2034
  463loPI   GL2 7398  17.087  16.158   9.677 -0.2515 -0.0736  0.0564
  463loPI   C1A 7399  16.896  16.653   9.371  0.2127  0.0799  0.1272
  463loPI   C2A 7400  16.905  16.742   8.945 -0.0897  0.2386 -0.1626
  463loPI   C3A 7401  16.854  16.792   8.500 -0.0958  0.0494 -0.1923
  463loPI   C4A 7402  17.077  16.968   8.206  0.1195  0.3356 -0.1178
  463loPI   C5A 7403  17.390  17.159   7.952  0.2332 -0.2169 -0.1814
  463loPI   C6A 7404  17.652  17.513   7.786  0.1897  0.0105 -0.0910
  463loPI   C1B 7405  16.994  16.109   9.190  0.1094 -0.1891  0.1886
  463loPI   C2B 7406  17.063  16.256   8.815 -0.2382  0.0113 -0.0064
  463loPI   C3B 7407  16.820  16.289   8.414 -0.0957  0.0888  0.0457
  463loPI   C4B 7408  16.823  16.333   8.043 -0.0897 -0.0788  0.5026
  464loPI    C1 7409  15.662  12.794  11.030 -0.1669 -0.0447  0.1791
  464loPI    C2 7410  15.831  13.153  10.986 -0.0144 -0.1664 -0.2767
  464loPI    C3 7411  15.965  12.903  11.267 -0.0890  0.1101  0.0106
  464loPI   PO4 7412  15.625  12.796  10.748  0.2435 -0.1025  0.0447
  464loPI   GL1 7413  15.367  13.037  10.431 -0.3091  0.0784  0.1565
  464loPI   GL2 7414  15.253  13.266  10.271  0.1026 -0.1582 -0.1006
  464loPI   C1A 7415  15.418  12.745  10.095  0.2757 -0.0800 -0.1959
  464loPI   C2A 7416  15.392  12.568   9.592  0.2984 -0.0778 -0.3389
  464loPI   C3A 7417  15.363  12.578   9.132 -0.1758 -0.2814  0.3552
  464loPI   C4A 7418  15.436  12.524   8.674 -0.3515  0.0147  0.3194
  464loPI   C5A 7419  15.436  12.535   8.159 -0.2745 -0.1285  0.3414
  464loPI   C6A 7420  15.512  12.948   7.855  0.1680 -0.0101  0.2470
  464loPI   C1B 7421  15.108  13.100   9.870  0.0325  0.2031 -0.1428
  464loPI   C2B 7422  15.106  12.944   9.470 -0.1491 -0.1013 -0.1344
  464loPI   C3B 7423  15.048  12.930   9.093 -0.1499 -0.0452  0.2515
  464loPI   C4B 7424  15.142  12.922   8.664 -0.0449  0.4822  0.1064
  465loPI    C1 7425  11.351  17.188  10.675 -0.0357  0.1789  0.1935
  465loPI    C2 7426  11.085  16.933  10.832  0.2007 -0.2381 -0.0643
  465loPI    C3 7427  11.444  16.978  11.002  0.2138 -0.1887 -0.1048
  465loPI   PO4 7428  11.436  17.118  10.461 -0.0245 -0.0756  0.1261
  465loPI   GL1 7429  11.403  17.268  10.028  0.0576 -0.2684  0.2574
  465loPI   GL2 7430  11.149  17.510  10.053 -0.1811  0.1719 -0.0401
  465loPI   C1A 7431  11.490  17.156   9.766  0.1265  0.0267  0.0970
  465loPI   C2A 7432  11.518  17.230   9.362 -0.3149  0.0782  0.0998
  465loPI   C3A 7433  11.450  17.116   8.907 -0.1153  0.0478 -0.2439
  465loPI   C4A 7434  11.518  17.175   8.461  0.0303  0.0053 -0.1103
  465loPI   C5A 7435  11.528  16.955   8.162 -0.0267  0.3116 -0.0957
  465loPI   C6A 7436  11.715  16.669   7.790 -0.1671  0.0410 -0.2492
  465loPI   C1B 7437  11.171  17.559   9.658 -0.0486 -0.5702 -0.1283
  465loPI   C2B 7438  11.230  17.576   9.190  0.4685 -0.1110 -0.2487
  465loPI   C3B 7439  11.181  17.602   8.749  0.3441 -0.2167 -0.1180
  465loPI   C4B 7440  11.233  17.656   8.430 -0.0981  0.2999 -0.2438
  466loPI    C1 7441  11.042  15.189  10.949 -0.0725  0.1067 -0.2151
  466loPI    C2 7442  11.416  15.209  11.091 -0.1428 -0.0291 -0.0065
  466loPI    C3 7443  11.105  15.256  11.339 -0.2656 -0.0363 -0.1579
  466loPI   PO4 7444  11.115  14.890  10.712 -0.1487 -0.2473 -0.0671
  466loPI   GL1 7445  11.131  14.678  10.401  0.0983  0.0732  0.4242
  466loPI   GL2 7446  10.796  14.817  10.188  0.0690  0.0094  0.1917
  466loPI   C1A 7447  11.264  14.531   9.994 -0.3149  0.1422 -0.0511
  466loPI   C2A 7448  11.313  14.373   9.596  0.1090  0.3762 -0.0232
  466loPI   C3A 7449  11.355  14.359   9.151  0.3034 -0.3755 -0.0175
  466loPI   C4A 7450  11.248  14.476   8.772  0.2862 -0.0659  0.0456
  466loPI   C5A 7451  11.320  14.474   8.330  0.1198 -0.1643  0.0148
  466loPI   C6A 7452  11.309  14.820   8.112 -0.0096 -0.0408 -0.0663
  466loPI   C1B 7453  10.920  14.880   9.807  0.2609  0.1343 -0.1350
  466loPI   C2B 7454  11.098  14.790   9.400  0.0483  0.3589  0.0992
  466loPI   C3B 7455  10.962  14.850   8.864 -0.0159  0.1300  0.0904
  466loPI   C4B 7456  10.920  14.856   8.456 -0.1608  0.2075 -0.1676
  467loPI    C1 7457   4.360   9.932  10.838  0.1372 -0.1067  0.1030
  467loPI    C2 7458   4.245  10.229  11.080 -0.0617 -0.0711 -0.0320
  467loPI    C3 7459   4.242   9.852  11.212 -0.2647 -0.0625 -0.0091
  467loPI   PO4 7460   4.226   9.865  10.580 -0.0682 -0.1192  0.1406
  467loPI   GL1 7461   4.160  10.069  10.191 -0.3180  0.3104  0.1452
  467loPI   GL2 7462   3.893   9.984   9.977  0.1155  0.2944 -0.2009
  467loPI   C1A 7463   4.352  10.010   9.758 -0.0177  0.1688 -0.0386
  467loPI   C2A 7464   4.436   9.967   9.319  0.0297  0.0177  0.2932
  467loPI   C3A 7465   4.393   9.963   8.971  0.1130  0.1690 -0.2083
  467loPI   C4A 7466   4.481   9.957   8.546  0.2514 -0.1735  0.3529
  467loPI   C5A 7467   4.370  10.256   8.155  0.2191  0.1765 -0.1125
  467loPI   C6A 7468   4.282  10.232   7.739 -0.3314 -0.0187  0.1393
  467loPI   C1B 7469   3.859   9.927   9.534 -0.1879  0.2313  0.0537
  467loPI   C2B 7470   3.807   9.899   9.126  0.1059  0.1561  0.0453
  467loPI   C3B 7471   3.923   9.976   8.741  0.0836  0.2345 -0.0662
  467loPI   C4B 7472   4.020   9.968   8.341  0.0608 -0.1585 -0.0523
  468loPI    C1 7473   3.397  10.396  10.666  0.0066 -0.2646  0.1544
  468loPI    C2 7474   3.006  10.451  10.726  0.0102  0.0085 -0.0550
  468loPI    C3 7475   3.266  10.528  11.020 -0.0842 -0.0772  0.0519
  468loPI   PO4 7476   3.399  10.186  10.547  0.0356 -0.2672  0.2205
  468loPI   GL1 7477   3.344  10.141  10.136 -0.3964 -0.0693 -0.0628
  468loPI   GL2 7478   3.123  10.435  10.229 -0.1187  0.2043 -0.1475
  468loPI   C1A 7479   3.381   9.920   9.740  0.1111  0.0291 -0.3393
  468loPI   C2A 7480   3.344   9.916   9.334  0.1383 -0.0523  0.1253
  468loPI   C3A 7481   3.426   9.878   8.847  0.0244 -0.1124 -0.0504
  468loPI   C4A 7482   3.585   9.757   8.473  0.2091 -0.0093 -0.2207
  468loPI   C5A 7483   3.590  10.023   8.127  0.2219  0.1036  0.1419
  468loPI   C6A 7484   3.904  10.009   7.874 -0.0387  0.0951  0.0764
  468loPI   C1B 7485   3.056  10.373   9.755 -0.1803  0.1415  0.0706
  468loPI   C2B 7486   3.000  10.286   9.344  0.0439 -0.1295 -0.0309
  468loPI   C3B 7487   3.110  10.243   8.880  0.0329 -0.3622 -0.1242
  468loPI   C4B 7488   3.226  10.240   8.414 -0.0950  0.3245  0.0598
  469loPI    C1 7489  14.589   6.915  10.939 -0.2452  0.1740 -0.1465
  469loPI    C2 7490  14.834   7.187  11.100 -0.0209 -0.0232 -0.1495
  469loPI    C3 7491  14.730   6.862  11.310  0.0191 -0.1244 -0.2846
  469loPI   PO4 7492  14.654   6.912  10.671 -0.1875 -0.0839 -0.2204
  469loPI   GL1 7493  14.474   7.021  10.289  0.0277  0.0307  0.1845
  469loPI   GL2 7494  14.444   6.767  10.103 -0.0009 -0.1761  0.2163
  469loPI   C1A 7495  14.490   7.154   9.768 -0.0745  0.0101  0.0379
  469loPI   C2A 7496  14.482   7.014   9.376  0.0701 -0.0620  0.1845
  469loPI   C3A 7497  14.398   7.044   8.963 -0.1343  0.0871 -0.3703
  469loPI   C4A 7498  14.341   7.005   8.554 -0.1910 -0.0423  0.3691
  469loPI   C5A 7499  14.490   7.021   8.121  0.0433 -0.0787 -0.1749
  469loPI   C6A 7500  14.548   7.016   7.662  0.2497 -0.1724  0.0676
  469loPI   C1B 7501  14.217   6.637   9.712 -0.2269  0.2468  0.2494
  469loPI   C2B 7502  14.278   6.547   9.332  0.0603 -0.1044 -0.2157
  469loPI   C3B 7503  14.136   6.625   8.952  0.1746  0.0110  0.0629
  469loPI   C4B 7504  14.156   6.547   8.496 -0.0683 -0.0929  0.0634
  470loPI    C1 7505  14.344  14.805  10.624  0.1000  0.0515 -0.1776
  470loPI    C2 7506  13.989  14.973  10.552  0.1651  0.2214 -0.1080
  470loPI    C3 7507  14.144  14.985  10.920  0.1236 -0.0839 -0.0782
  470loPI   PO4 7508  14.347  14.572  10.544  0.0424 -0.0245 -0.1122
  470loPI   GL1 7509  14.291  14.272  10.155 -0.1371  0.1166  0.1719
  470loPI   GL2 7510  14.406  14.000  10.184 -0.1635  0.0736  0.1059
  470loPI   C1A 7511  14.226  14.252   9.699 -0.0896  0.2245  0.0732
  470loPI   C2A 7512  14.222  14.333   9.215  0.0620 -0.0725  0.3398
  470loPI   C3A 7513  14.225  14.233   8.770 -0.0790 -0.0012  0.2259
  470loPI   C4A 7514  14.133  14.279   8.293  0.1027  0.1726  0.2503
  470loPI   C5A 7515  13.922  14.067   8.063  0.0250  0.1106  0.2663
  470loPI   C6A 7516  13.984  13.898   7.588  0.0635  0.0106  0.0106
  470loPI   C1B 7517  14.465  13.844   9.711  0.4000  0.1791 -0.2486
  470loPI   C2B 7518  14.506  13.820   9.247 -0.1935 -0.0316 -0.1384
  470loPI   C3B 7519  14.480  13.816   8.798  0.1926 -0.2844 -0.3440
  470loPI   C4B 7520  14.394  13.843   8.376  0.0050  0.0247 -0.1229
  471loPI    C1 7521   3.052  13.650  10.675 -0.0477 -0.2399  0.0800
  471loPI    C2 7522   3.135  13.543  11.051  0.1572 -0.1234  0.0697
  471loPI    C3 7523   3.258  13.897  10.912 -0.0358 -0.1075 -0.0661
  471loPI   PO4 7524   3.188  13.491  10.430  0.0292 -0.0373 -0.0090
  471loPI   GL1 7525   3.475  13.731  10.089  0.2540 -0.2138 -0.0887
  471loPI   GL2 7526   3.595  14.020  10.123  0.2356  0.0835  0.0689
  471loPI   C1A 7527   3.440  13.515   9.638 -0.3241 -0.0553 -0.1312
  471loPI   C2A 7528   3.401  13.499   9.233  0.0877  0.3598  0.2367
  471loPI   C3A 7529   3.442  13.695   8.836 -0.1578  0.0292 -0.1845
  471loPI   C4A 7530   3.386  13.762   8.458 -0.0085  0.2050  0.0037
  471loPI   C5A 7531   3.515  13.954   8.135  0.2247  0.0083  0.2050
  471loPI   C6A 7532   3.497  14.159   7.745 -0.1019 -0.0823  0.1081
  471loPI   C1B 7533   3.634  14.265   9.748 -0.3247 -0.2188 -0.4521
  471loPI   C2B 7534   3.776  14.463   9.344  0.1274  0.1550  0.0397
  471loPI   C3B 7535   3.939  14.575   8.921 -0.3280 -0.0084 -0.4555
  471loPI   C4B 7536   3.878  14.550   8.591  0.2831 -0.2865 -0.1551
  472loPI    C1 7537   7.345  10.193  11.043  0.1130 -0.1162 -0.1786
  472loPI    C2 7538   7.551  10.063  11.359  0.1069  0.1895 -0.0454
  472loPI    C3 7539   7.155  10.011  11.344  0.1367 -0.0288 -0.1105
  472loPI   PO4 7540   7.419  10.357  10.952  0.1636 -0.0425  0.2262
  472loPI   GL1 7541   7.725  10.345  10.592 -0.0399 -0.4007  0.1795
  472loPI   GL2 7542   7.961  10.598  10.582 -0.1425 -0.0444 -0.4114
  472loPI   C1A 7543   7.537  10.344  10.181 -0.2625 -0.0547  0.3354
  472loPI   C2A 7544   7.537  10.332   9.656  0.2019  0.0357 -0.1349
  472loPI   C3A 7545   7.558  10.355   9.224  0.0161  0.1368  0.0162
  472loPI   C4A 7546   7.515  10.418   8.772  0.1829 -0.1579 -0.1124
  472loPI   C5A 7547   7.666  10.424   8.388  0.3602  0.2202 -0.2037
  472loPI   C6A 7548   7.530  10.707   8.095  0.0044 -0.1988 -0.1744
  472loPI   C1B 7549   8.022  10.440  10.174  0.1732 -0.0714  0.6441
  472loPI   C2B 7550   8.031  10.380   9.705  0.1151 -0.0960 -0.2727
  472loPI   C3B 7551   8.047  10.359   9.248 -0.1293 -0.0424 -0.0764
  472loPI   C4B 7552   7.962  10.546   8.868 -0.0199 -0.2788 -0.1079
  473loPI    C1 7553   1.117   8.710  10.350  0.1294  0.1036  0.0299
  473loPI    C2 7554   1.221   8.717  10.736  0.1350  0.1333  0.0278
  473loPI    C3 7555   0.943   8.970  10.599  0.0970  0.0888  0.0228
  473loPI   PO4 7556   1.297   8.444  10.292  0.0469 -0.0889 -0.0013
  473loPI   GL1 7557   1.300   8.285  10.002  0.2687 -0.2457 -0.3143
  473loPI   GL2 7558   1.387   8.639   9.854 -0.0044  0.0633  0.3645
  473loPI   C1A 7559   1.214   8.317   9.524  0.2894  0.3059  0.1958
  473loPI   C2A 7560   1.212   8.203   9.042  0.0572  0.1662  0.1219
  473loPI   C3A 7561   1.078   8.095   8.671 -0.2072  0.0492 -0.2205
  473loPI   C4A 7562   1.057   7.925   8.300 -0.1364  0.1452  0.1973
  473loPI   C5A 7563   1.023   7.712   7.876  0.0235  0.1892 -0.5633
  473loPI   C6A 7564   0.977   7.303   7.709  0.1681  0.2698 -0.1786
  473loPI   C1B 7565   1.351   8.766   9.348  0.3818 -0.1818 -0.0589
  473loPI   C2B 7566   1.412   8.781   8.824 -0.2348  0.5397  0.0685
  473loPI   C3B 7567   1.378   8.620   8.436  0.4243  0.2221  0.1939
  473loPI   C4B 7568   1.143   8.754   8.098  0.4359  0.0011  0.3732
  474loPI    C1 7569   9.136  16.440  10.804  0.0746 -0.0320 -0.0578
  474loPI    C2 7570   9.265  16.110  10.989  0.0844  0.0776  0.1330
  474loPI    C3 7571   9.193  16.443  11.199  0.0803  0.1994 -0.0586
  474loPI   PO4 7572   9.030  16.314  10.475 -0.1971  0.0506  0.0461
  474loPI   GL1 7573   9.107  16.030  10.168  0.0288  0.0715 -0.0276
  474loPI   GL2 7574   9.436  16.064  10.137 -0.1001  0.0284 -0.0952
  474loPI   C1A 7575   8.985  16.089   9.816  0.2000 -0.1846 -0.1379
  474loPI   C2A 7576   8.921  15.991   9.355  0.0512 -0.2814 -0.1349
  474loPI   C3A 7577   9.034  15.945   8.890  0.0384 -0.0492 -0.0393
  474loPI   C4A 7578   9.058  16.004   8.467  0.0371  0.1340 -0.1019
  474loPI   C5A 7579   9.136  16.189   8.045  0.1021  0.0937  0.0309
  474loPI   C6A 7580   8.906  15.958   7.682 -0.0243 -0.1130  0.0661
  474loPI   C1B 7581   9.474  16.115   9.721  0.0678 -0.0159  0.4604
  474loPI   C2B 7582   9.438  16.073   9.314 -0.0809 -0.1397  0.0958
  474loPI   C3B 7583   9.525  15.992   8.769  0.1671 -0.2348 -0.0977
  474loPI   C4B 7584   9.582  16.131   8.336 -0.1223  0.3760  0.1950
  475loPI    C1 7585  15.291   1.764  10.502  0.1052 -0.0610  0.0730
  475loPI    C2 7586  15.274   2.043  10.789 -0.0980 -0.0337  0.0363
  475loPI    C3 7587  15.164   1.666  10.869  0.1136 -0.0901  0.0681
  475loPI   PO4 7588  15.157   1.908  10.298 -0.0388 -0.2268  0.0867
  475loPI   GL1 7589  14.949   1.772  10.011 -0.0869  0.2978  0.0134
  475loPI   GL2 7590  15.253   1.678   9.838  0.1587 -0.0212  0.0714
  475loPI   C1A 7591  14.628   1.709   9.642 -0.1561 -0.1087 -0.1134
  475loPI   C2A 7592  14.564   1.592   9.196 -0.3494  0.1656  0.0453
  475loPI   C3A 7593  14.543   1.581   8.777 -0.0922  0.0220  0.0434
  475loPI   C4A 7594  14.596   1.593   8.418  0.0402 -0.4774 -0.2202
  475loPI   C5A 7595  14.488   1.760   8.042 -0.0890  0.0211 -0.3203
  475loPI   C6A 7596  14.207   1.953   7.681 -0.0219 -0.1815  0.0472
  475loPI   C1B 7597  15.119   1.756   9.388 -0.1882 -0.0469  0.1982
  475loPI   C2B 7598  15.028   1.694   9.036 -0.2312  0.1375  0.1644
  475loPI   C3B 7599  15.028   1.667   8.609  0.0019  0.0398  0.1014
  475loPI   C4B 7600  15.042   1.749   8.166  0.4593 -0.0260 -0.5587
  476loPI    C1 7601   2.764   9.790  10.912 -0.2012  0.1146 -0.1659
  476loPI    C2 7602   2.494   9.787  11.208 -0.0950  0.2276 -0.0666
  476loPI    C3 7603   2.816   9.550  11.228 -0.2230  0.0375 -0.2207
  476loPI   PO4 7604   2.662   9.665  10.643  0.2292  0.1784  0.1395
  476loPI   GL1 7605   2.628   9.578  10.243 -0.0542  0.0107  0.1320
  476loPI   GL2 7606   2.449   9.939  10.217 -0.4146 -0.0775 -0.0703
  476loPI   C1A 7607   2.724   9.448   9.806 -0.1680  0.0282 -0.1058
  476loPI   C2A 7608   2.737   9.416   9.380 -0.1766  0.0392  0.1257
  476loPI   C3A 7609   2.760   9.309   8.965  0.1647  0.2795 -0.1690
  476loPI   C4A 7610   2.548   9.330   8.645 -0.2733 -0.1733 -0.3015
  476loPI   C5A 7611   2.601   9.252   8.154 -0.0230 -0.1028 -0.1176
  476loPI   C6A 7612   2.647   9.211   7.685 -0.2562 -0.0226 -0.0349
  476loPI   C1B 7613   2.285   9.804   9.855 -0.1504 -0.0219 -0.3299
  476loPI   C2B 7614   2.371   9.730   9.493 -0.1283 -0.0009 -0.1960
  476loPI   C3B 7615   2.375   9.649   9.088  0.0019  0.0668 -0.0083
  476loPI   C4B 7616   2.284   9.771   8.623  0.1875  0.1639  0.1863
  477loPI    C1 7617   1.853  14.976  10.564  0.0383  0.0246  0.0397
  477loPI    C2 7618   1.551  14.845  10.792  0.0549 -0.0228  0.0345
  477loPI    C3 7619   1.849  14.597  10.691 -0.0124 -0.0353 -0.1376
  477loPI   PO4 7620   1.656  15.035  10.339  0.0157 -0.3256 -0.1826
  477loPI   GL1 7621   1.806  14.961   9.864  0.1743  0.0763 -0.0596
  477loPI   GL2 7622   1.926  14.688   9.694 -0.0541  0.3124 -0.1303
  477loPI   C1A 7623   1.585  15.114   9.468  0.1419  0.3347 -0.1638
  477loPI   C2A 7624   1.631  15.152   9.065  0.1660 -0.0909  0.4083
  477loPI   C3A 7625   1.573  15.224   8.619 -0.0963 -0.2634  0.0363
  477loPI   C4A 7626   1.687  14.927   8.239  0.4580 -0.2037 -0.0566
  477loPI   C5A 7627   1.659  14.590   7.995  0.0230  0.0427  0.3731
  477loPI   C6A 7628   1.452  14.255   7.852  0.0777 -0.2319  0.2713
  477loPI   C1B 7629   1.945  14.579   9.252 -0.3581 -0.3188 -0.1610
  477loPI   C2B 7630   1.883  14.687   8.812  0.0305  0.2064  0.1984
  477loPI   C3B 7631   2.091  14.800   8.404 -0.1748 -0.1708 -0.2708
  477loPI   C4B 7632   2.105  14.942   7.983  0.0624  0.0053 -0.0754
  478loPI    C1 7633   8.045  16.202  10.828 -0.0548 -0.0192 -0.0336
  478loPI    C2 7634   8.202  16.532  10.990  0.0112 -0.1599  0.1951
  478loPI    C3 7635   8.238  16.181  11.178 -0.0052 -0.3092 -0.0754
  478loPI   PO4 7636   8.189  16.247  10.616  0.0209  0.0253  0.2038
  478loPI   GL1 7637   8.307  16.538  10.241 -0.0489 -0.2180 -0.2280
  478loPI   GL2 7638   8.174  16.821  10.276 -0.1965  0.2729  0.5074
  478loPI   C1A 7639   8.041  16.456   9.821 -0.0909  0.3350 -0.3224
  478loPI   C2A 7640   8.160  16.408   9.378 -0.2889  0.0164 -0.1188
  478loPI   C3A 7641   8.251  16.364   9.001  0.1488  0.4175  0.1960
  478loPI   C4A 7642   8.220  16.370   8.625  0.1227  0.2192  0.0859
  478loPI   C5A 7643   8.348  16.118   8.401  0.1849  0.0396  0.0420
  478loPI   C6A 7644   8.551  15.882   8.058 -0.3010 -0.2220 -0.0774
  478loPI   C1B 7645   8.261  16.920   9.838 -0.1632  0.0292 -0.0539
  478loPI   C2B 7646   8.326  16.949   9.357 -0.2546  0.1303 -0.1707
  478loPI   C3B 7647   8.317  16.910   8.868 -0.1482  0.0994  0.1039
  478loPI   C4B 7648   8.435  16.885   8.505 -0.0764 -0.2014 -0.0431
  479loPI    C1 7649  10.651   8.461  11.216  0.1584  0.0571 -0.2008
  479loPI    C2 7650  10.802   8.830  11.255  0.0148  0.0972 -0.0117
  479loPI    C3 7651  10.896   8.546  11.521  0.0507  0.0221 -0.1040
  479loPI   PO4 7652  10.703   8.412  10.916  0.0921  0.2454 -0.2608
  479loPI   GL1 7653  10.805   8.562  10.521 -0.3972 -0.0271 -0.0045
  479loPI   GL2 7654  11.102   8.545  10.493 -0.0197  0.1564 -0.2306
  479loPI   C1A 7655  10.760   8.816  10.125  0.0082  0.0532 -0.0444
  479loPI   C2A 7656  10.727   8.917   9.694  0.5571  0.1616  0.0952
  479loPI   C3A 7657  10.814   8.861   9.227  0.1666  0.0431 -0.0394
  479loPI   C4A 7658  10.843   8.879   8.750 -0.0217  0.1255  0.2505
  479loPI   C5A 7659  10.836   9.041   8.409 -0.0181 -0.2295 -0.0194
  479loPI   C6A 7660  10.987   9.103   7.991  0.0376  0.1350  0.3867
  479loPI   C1B 7661  11.029   8.437  10.019  0.1124 -0.0725  0.2883
  479loPI   C2B 7662  11.017   8.484   9.618  0.0173  0.1411  0.1208
  479loPI   C3B 7663  11.183   8.483   9.141  0.2666 -0.0610 -0.0512
  479loPI   C4B 7664  11.254   8.374   8.706 -0.2325 -0.0096  0.3271
  480loPI    C1 7665  10.543  10.844  11.243  0.1851 -0.0064 -0.1189
  480loPI    C2 7666  10.189  11.024  11.289  0.0734 -0.2034 -0.1958
  480loPI    C3 7667  10.455  11.027  11.587 -0.0203 -0.1144 -0.1125
  480loPI   PO4 7668  10.516  10.805  10.955  0.0482 -0.4671  0.1865
  480loPI   GL1 7669  10.465  10.706  10.599  0.1829  0.2084  0.1561
  480loPI   GL2 7670  10.311  10.986  10.555 -0.0975 -0.0601  0.1596
  480loPI   C1A 7671  10.732  10.763  10.298 -0.0896 -0.2152  0.1531
  480loPI   C2A 7672  10.655  10.738   9.851  0.2211  0.0544 -0.1146
  480loPI   C3A 7673  10.618  10.752   9.311  0.3083  0.3700  0.0888
  480loPI   C4A 7674  10.619  10.763   8.885  0.2968 -0.0783  0.1654
  480loPI   C5A 7675  10.753  10.887   8.528  0.2652  0.1509  0.1320
  480loPI   C6A 7676  10.740  11.267   8.229  0.0487  0.3226 -0.0133
  480loPI   C1B 7677  10.393  11.118  10.146 -0.0171 -0.3838  0.0616
  480loPI   C2B 7678  10.310  11.184   9.702  0.0027  0.0672  0.0155
  480loPI   C3B 7679  10.253  11.155   9.253  0.1706 -0.0646 -0.1976
  480loPI   C4B 7680  10.370  11.169   8.759 -0.1796 -0.1844 -0.0446
  481loPI    C1 7681  18.019   2.855  10.233 -0.1099  0.1390  0.2756
  481loPI    C2 7682  18.286   2.982  10.503 -0.0839 -0.0393  0.3352
  481loPI    C3 7683  18.266   2.593  10.409  0.1377  0.0632 -0.1702
  481loPI   PO4 7684  18.048   2.985  10.053 -0.3301 -0.0099  0.2421
  481loPI   GL1 7685  18.038   3.034   9.599 -0.2343  0.0122  0.1152
  481loPI   GL2 7686  18.176   2.785   9.573 -0.0103 -0.4134  0.3022
  481loPI   C1A 7687  17.949   3.132   9.142 -0.1581 -0.0982 -0.1141
  481loPI   C2A 7688  17.833   3.148   8.707 -0.0078  0.0728  0.2059
  481loPI   C3A 7689  17.945   3.185   8.237  0.0861 -0.2103  0.0697
  481loPI   C4A 7690  17.921   3.382   7.809 -0.0891 -0.0108  0.1271
  481loPI   C5A 7691  18.028   3.821   7.598  0.0672  0.2514  0.0013
  481loPI   C6A 7692  18.377   4.103   7.522  0.0255 -0.0465  0.1892
  481loPI   C1B 7693  18.161   2.623   9.224  0.1842  0.0763  0.0143
  481loPI   C2B 7694  17.962   2.686   8.849 -0.1974  0.1754  0.0638
  481loPI   C3B 7695  17.937   2.694   8.346 -0.2055 -0.0711 -0.0207
  481loPI   C4B 7696  17.905   2.780   7.866  0.0031 -0.2375  0.0238
  482loPI    C1 7697  13.483  16.622  11.040  0.0672 -0.0268  0.1565
  482loPI    C2 7698  13.429  16.897  11.326 -0.0265 -0.0436  0.1554
  482loPI    C3 7699  13.603  16.547  11.414 -0.0642 -0.0525  0.1943
  482loPI   PO4 7700  13.336  16.623  10.849  0.0050 -0.0491  0.2804
  482loPI   GL1 7701  13.459  16.680  10.430  0.2260 -0.2550  0.0443
  482loPI   GL2 7702  13.297  16.977  10.328  0.0069  0.1633  0.4569
  482loPI   C1A 7703  13.312  16.597   9.990 -0.2243  0.1743  0.3565
  482loPI   C2A 7704  13.245  16.463   9.575  0.2687 -0.1136  0.1910
  482loPI   C3A 7705  13.219  16.468   9.188  0.0037  0.3416 -0.0578
  482loPI   C4A 7706  13.206  16.493   8.888  0.0423 -0.0845  0.0415
  482loPI   C5A 7707  13.395  16.267   8.533  0.3260  0.0286 -0.2098
  482loPI   C6A 7708  13.092  16.248   8.185  0.4909 -0.0417 -0.1297
  482loPI   C1B 7709  13.303  17.062   9.941  0.1776  0.1057  0.0324
  482loPI   C2B 7710  13.321  17.020   9.457  0.3126 -0.0813 -0.0225
  482loPI   C3B 7711  13.447  16.898   9.123  0.2719  0.0805 -0.0842
  482loPI   C4B 7712  13.400  16.902   8.693 -0.0877  0.4893 -0.0207
  483loPI    C1 7713  13.128   9.107  10.688 -0.0306  0.1444 -0.0902
  483loPI    C2 7714  12.940   9.410  10.870 -0.0458  0.1799 -0.1650
  483loPI    C3 7715  13.250   9.231  11.048 -0.2368  0.0296  0.0212
  483loPI   PO4 7716  12.981   8.947  10.580  0.0222 -0.3294  0.4318
  483loPI   GL1 7717  12.906   8.756  10.225  0.1503  0.0301  0.0452
  483loPI   GL2 7718  12.585   8.817  10.171 -0.0836  0.0431 -0.3938
  483loPI   C1A 7719  13.143   8.711   9.961 -0.0140 -0.0315 -0.1353
  483loPI   C2A 7720  13.186   8.797   9.549 -0.0975 -0.0306  0.2477
  483loPI   C3A 7721  13.218   8.846   9.086 -0.4182 -0.2716  0.3001
  483loPI   C4A 7722  13.210   8.723   8.770 -0.0476  0.0928  0.1066
  483loPI   C5A 7723  13.210   8.699   8.315  0.1260 -0.0581 -0.0799
  483loPI   C6A 7724  12.867   8.806   7.967  0.1735 -0.0425  0.4530
  483loPI   C1B 7725  12.702   8.728   9.710  0.1322  0.0954 -0.0953
  483loPI   C2B 7726  12.727   8.724   9.289  0.2743  0.0501  0.0782
  483loPI   C3B 7727  12.678   8.659   8.892 -0.2896 -0.0408 -0.0065
  483loPI   C4B 7728  12.711   8.582   8.455  0.3658 -0.5164 -0.1793
  484loPI    C1 7729   1.558  17.632  10.120 -0.0293  0.1214  0.1109
  484loPI    C2 7730   1.667  17.613  10.504 -0.0867 -0.0542  0.1191
  484loPI    C3 7731   1.283  17.667  10.408 -0.0902 -0.1348  0.0863
  484loPI   PO4 7732   1.709  17.772  10.047 -0.1797  0.2138 -0.0622
  484loPI   GL1 7733   2.018  17.743   9.739  0.0854 -0.3118  0.1585
  484loPI   GL2 7734   1.894  17.963   9.608  0.1198  0.0141 -0.0648
  484loPI   C1A 7735   2.198  17.526   9.341  0.1143  0.0593  0.0161
  484loPI   C2A 7736   2.220  17.527   8.891 -0.3041 -0.1337 -0.2326
  484loPI   C3A 7737   2.208  17.548   8.527  0.1363 -0.2661  0.2950
  484loPI   C4A 7738   2.313  17.588   8.110 -0.4010 -0.3077 -0.1868
  484loPI   C5A 7739   2.526  17.564   7.753  0.0923 -0.1233  0.1273
  484loPI   C6A 7740   2.858  17.804   7.490 -0.0772 -0.0057  0.0661
  484loPI   C1B 7741   1.888  17.928   9.130 -0.0535  0.1999 -0.0495
  484loPI   C2B 7742   1.917  17.983   8.664  0.1163 -0.0438  0.0808
  484loPI   C3B 7743   1.933  18.087   8.112 -0.0242 -0.0478 -0.2547
  484loPI   C4B 7744   2.121  17.865   7.715 -0.0350 -0.0944 -0.1148
  485loPI    C1 7745   5.047   4.280  10.925  0.0076  0.0795  0.1612
  485loPI    C2 7746   5.259   4.511  11.173  0.0100  0.1301  0.1122
  485loPI    C3 7747   4.869   4.455  11.237 -0.0109  0.2250  0.0699
  485loPI   PO4 7748   5.096   4.331  10.681 -0.1833 -0.1186 -0.1726
  485loPI   GL1 7749   5.139   4.249  10.263  0.2897 -0.1138 -0.1634
  485loPI   GL2 7750   4.746   4.269  10.159  0.0146  0.0927 -0.1300
  485loPI   C1A 7751   5.479   4.198  10.061 -0.1029 -0.0179 -0.0496
  485loPI   C2A 7752   5.390   4.205   9.592 -0.0152  0.3287  0.2398
  485loPI   C3A 7753   5.358   4.204   9.169  0.1366  0.1950 -0.0708
  485loPI   C4A 7754   5.393   4.163   8.710  0.1953 -0.1775 -0.2477
  485loPI   C5A 7755   5.229   4.131   8.355 -0.1082 -0.2996  0.1378
  485loPI   C6A 7756   5.538   4.002   8.001 -0.2337  0.0165  0.0839
  485loPI   C1B 7757   4.895   4.158   9.719  0.0453 -0.1350  0.2572
  485loPI   C2B 7758   4.826   4.234   9.350 -0.1177  0.1974  0.1183
  485loPI   C3B 7759   4.818   4.188   8.929  0.0086  0.1660  0.0034
  485loPI   C4B 7760   4.792   4.093   8.517  0.3004 -0.0687 -0.1140
  486loPI    C1 7761   6.659   3.709  11.186 -0.1344 -0.0799  0.1446
  486loPI    C2 7762   6.341   3.795  11.413 -0.2095  0.0068  0.0073
  486loPI    C3 7763   6.602   3.518  11.533 -0.3731 -0.1142  0.0884
  486loPI   PO4 7764   6.680   4.030  11.018 -0.1175  0.0250 -0.3959
  486loPI   GL1 7765   6.573   4.038  10.552  0.0885 -0.0213 -0.2527
  486loPI   GL2 7766   6.789   4.277  10.543 -0.1467 -0.0716 -0.1613
  486loPI   C1A 7767   6.707   3.820  10.162  0.0142 -0.0006 -0.0342
  486loPI   C2A 7768   6.721   3.746   9.761  0.0665 -0.2735 -0.1841
  486loPI   C3A 7769   6.698   3.868   9.296 -0.2097 -0.1962 -0.0445
  486loPI   C4A 7770   6.690   3.902   8.906  0.0670  0.3087  0.0613
  486loPI   C5A 7771   6.743   4.307   8.556 -0.3311 -0.1097 -0.2064
  486loPI   C6A 7772   7.005   4.636   8.351 -0.3088 -0.2907  0.0989
  486loPI   C1B 7773   6.957   4.454  10.247  0.0589  0.1824  0.1532
  486loPI   C2B 7774   6.963   4.399   9.874  0.1753  0.1907 -0.2294
  486loPI   C3B 7775   6.942   4.345   9.468 -0.0984  0.0142  0.1695
  486loPI   C4B 7776   6.958   4.341   9.047  0.1431  0.2091 -0.2175
  487loPI    C1 7777   4.386  15.103  10.513  0.3504  0.0376 -0.2435
  487loPI    C2 7778   4.605  14.940  10.806  0.2352  0.2720 -0.0229
  487loPI    C3 7779   4.316  15.201  10.894  0.1243  0.2611 -0.3402
  487loPI   PO4 7780   4.368  14.943  10.323 -0.0901  0.1984  0.1283
  487loPI   GL1 7781   3.972  14.945  10.023  0.0101  0.1297  0.1436
  487loPI   GL2 7782   3.911  14.769   9.752 -0.1632  0.0272  0.1644
  487loPI   C1A 7783   4.322  15.101   9.744 -0.0539 -0.2837  0.1901
  487loPI   C2A 7784   4.415  15.136   9.335  0.0309 -0.1550  0.0314
  487loPI   C3A 7785   4.597  15.098   8.915 -0.0569  0.0575  0.1674
  487loPI   C4A 7786   4.712  15.122   8.414 -0.1696 -0.2109  0.1031
  487loPI   C5A 7787   4.852  15.545   8.192 -0.2188  0.1953 -0.0482
  487loPI   C6A 7788   5.280  15.809   8.039 -0.1500  0.0554 -0.1481
  487loPI   C1B 7789   3.997  14.934   9.372  0.1375  0.1878 -0.1569
  487loPI   C2B 7790   4.045  15.070   8.930 -0.2197  0.1491  0.1319
  487loPI   C3B 7791   4.185  15.098   8.547  0.1395 -0.2515 -0.2316
  487loPI   C4B 7792   4.302  15.205   8.131  0.0453  0.1720 -0.5870
  488loPI    C1 7793  17.897  18.157  10.386  0.0538  0.1305 -0.0727
  488loPI    C2 7794  17.712  18.456  10.577 -0.0597 -0.1093  0.2002
  488loPI    C3 7795  17.899  18.170  10.786  0.2715 -0.0922 -0.0638
  488loPI   PO4 7796  17.921  18.311  10.158  0.4016  0.0932 -0.1287
  488loPI   GL1 7797  17.980  18.373   9.727  0.2061  0.1054  0.1044
  488loPI   GL2 7798  17.970  17.979   9.793  0.1498 -0.2321  0.1496
  488loPI   C1A 7799  17.877  18.522   9.343  0.1356 -0.0288  0.2713
  488loPI   C2A 7800  17.914  18.596   8.950 -0.1464  0.1491 -0.1631
  488loPI   C3A 7801  17.979  18.706   8.576  0.2214  0.2778 -0.2242
  488loPI   C4A 7802  17.912  18.600   8.167 -0.0515  0.0880 -0.0682
  488loPI   C5A 7803  17.901  18.431   7.804 -0.0435 -0.0698 -0.0191
  488loPI   C6A 7804  17.955  17.971   7.781 -0.1919 -0.2895 -0.1132
  488loPI   C1B 7805  17.727  18.036   9.367  0.0142 -0.1735 -0.1545
  488loPI   C2B 7806  17.694  18.140   8.927 -0.0602  0.0152 -0.0056
  488loPI   C3B 7807  17.787  18.204   8.529  0.1274 -0.0757  0.0058
  488loPI   C4B 7808  17.664  18.088   8.171 -0.1825 -0.1469  0.0581
  489loPI    C1 7809   7.994   8.673  10.890  0.0991  0.3178  0.0651
  489loPI    C2 7810   7.943   8.325  11.081 -0.2853  0.3853  0.0924
  489loPI    C3 7811   8.254   8.559  11.171  0.0185  0.0170  0.0215
  489loPI   PO4 7812   7.950   8.730  10.629  0.0449 -0.1179 -0.3449
  489loPI   GL1 7813   8.050   9.042  10.308 -0.3394  0.2075 -0.1436
  489loPI   GL2 7814   8.370   9.047  10.171 -0.0526 -0.1049 -0.5400
  489loPI   C1A 7815   7.857   9.021   9.880 -0.0080 -0.1152 -0.4190
  489loPI   C2A 7816   7.900   9.016   9.489 -0.0033  0.2193 -0.2200
  489loPI   C3A 7817   7.915   9.097   9.059 -0.1601  0.0318 -0.0035
  489loPI   C4A 7818   7.961   9.126   8.631  0.4098  0.3398  0.0857
  489loPI   C5A 7819   8.121   9.113   8.256 -0.0292  0.0753 -0.0084
  489loPI   C6A 7820   8.574   8.958   8.215 -0.1217  0.3086 -0.0330
  489loPI   C1B 7821   8.335   9.134   9.672 -0.0096 -0.0236 -0.1033
  489loPI   C2B 7822   8.429   9.072   9.290 -0.1085 -0.4796  0.3012
  489loPI   C3B 7823   8.392   9.102   8.955  0.1478 -0.3771  0.0945
  489loPI   C4B 7824   8.473   9.219   8.607  0.0975 -0.2308  0.1976
  490loPI    C1 7825   9.846  10.712  11.181 -0.0829 -0.0362 -0.0660
  490loPI    C2 7826  10.171  10.545  11.344 -0.0250  0.1705  0.0337
  490loPI    C3 7827   9.806  10.422  11.453  0.0182 -0.1006 -0.1192
  490loPI   PO4 7828   9.923  10.764  10.943 -0.2053  0.2043  0.1445
  490loPI   GL1 7829   9.813  10.629  10.591  0.0665 -0.0178  0.1648
  490loPI   GL2 7830  10.042  10.470  10.474 -0.0102  0.0759 -0.2484
  490loPI   C1A 7831   9.652  10.643  10.180 -0.0208 -0.2167 -0.0192
  490loPI   C2A 7832   9.552  10.685   9.716 -0.1187  0.3676  0.0786
  490loPI   C3A 7833   9.601  10.683   9.222  0.2153  0.1453 -0.2325
  490loPI   C4A 7834   9.595  10.637   8.750  0.1087 -0.2058  0.0429
  490loPI   C5A 7835   9.847  10.678   8.430  0.1025 -0.0904 -0.1631
  490loPI   C6A 7836   9.827  10.816   8.103 -0.0109  0.0662 -0.0829
  490loPI   C1B 7837  10.155  10.709  10.140  0.1701  0.1821 -0.0878
  490loPI   C2B 7838  10.116  10.666   9.788 -0.1394  0.1850  0.0269
  490loPI   C3B 7839  10.102  10.707   9.384  0.0945  0.1084  0.5061
  490loPI   C4B 7840  10.090  10.767   8.898  0.1440 -0.2628 -0.1117
  491loPI    C1 7841   6.671   9.896  10.759  0.1350  0.1533 -0.1079
  491loPI    C2 7842   7.009   9.784  10.942  0.1395 -0.1004 -0.2660
  491loPI    C3 7843   6.669   9.586  11.012  0.0518  0.0656 -0.2155
  491loPI   PO4 7844   6.684   9.875  10.542 -0.0982  0.0291  0.2938
  491loPI   GL1 7845   6.758   9.807  10.107 -0.2092 -0.0415 -0.1030
  491loPI   GL2 7846   6.710   9.601  10.101  0.4594 -0.1828 -0.2129
  491loPI   C1A 7847   6.803   9.868   9.669  0.0236 -0.1754  0.2171
  491loPI   C2A 7848   6.843   9.833   9.269  0.0817  0.4213 -0.0566
  491loPI   C3A 7849   6.858   9.785   8.751  0.2195  0.2305 -0.1896
  491loPI   C4A 7850   6.719   9.757   8.270 -0.0183  0.0804  0.2325
  491loPI   C5A 7851   6.589   9.886   7.872 -0.2995 -0.0616  0.0100
  491loPI   C6A 7852   6.123  10.109   7.855  0.2481  0.0728 -0.3295
  491loPI   C1B 7853   7.065   9.417  10.018 -0.2320 -0.0061  0.1887
  491loPI   C2B 7854   7.057   9.369   9.629  0.0838 -0.0701  0.1024
  491loPI   C3B 7855   7.102   9.396   9.272 -0.1606  0.0304 -0.3218
  491loPI   C4B 7856   7.195   9.430   8.849 -0.2839  0.0898  0.2038
  492loPI    C1 7857  12.956   5.690  11.262 -0.0288  0.3314 -0.1156
  492loPI    C2 7858  13.307   5.585  11.422 -0.1482 -0.0186 -0.0732
  492loPI    C3 7859  12.967   5.504  11.617 -0.2582  0.2522 -0.1480
  492loPI   PO4 7860  13.071   5.845  11.033  0.1264 -0.1037 -0.1213
  492loPI   GL1 7861  13.045   5.919  10.558  0.2386 -0.1407 -0.2174
  492loPI   GL2 7862  13.386   5.811  10.493 -0.2800 -0.0309 -0.0631
  492loPI   C1A 7863  13.018   5.978  10.094  0.4018  0.1515  0.4323
  492loPI   C2A 7864  12.949   6.004   9.720  0.2891 -0.1640 -0.0562
  492loPI   C3A 7865  12.998   5.989   9.282  0.0636  0.0431 -0.0712
  492loPI   C4A 7866  12.939   5.925   8.805  0.1583  0.0629 -0.2852
  492loPI   C5A 7867  12.925   5.870   8.392 -0.3404  0.0857  0.0539
  492loPI   C6A 7868  12.711   5.951   7.995 -0.1328 -0.0756 -0.3740
  492loPI   C1B 7869  13.365   5.653  10.225 -0.0339 -0.0228 -0.0578
  492loPI   C2B 7870  13.213   5.559   9.776  0.0373  0.0372 -0.0071
  492loPI   C3B 7871  13.234   5.540   9.294 -0.2418  0.2578  0.1914
  492loPI   C4B 7872  13.318   5.468   8.882  0.0680  0.3124  0.0418
  493loPI    C1 7873  12.837   6.355  11.018 -0.1459  0.0297  0.3318
  493loPI    C2 7874  13.194   6.480  11.146 -0.0440  0.0583  0.0264
  493loPI    C3 7875  12.976   6.233  11.372  0.1930 -0.0041  0.1903
  493loPI   PO4 7876  12.845   6.356  10.744 -0.0975  0.0499 -0.1299
  493loPI   GL1 7877  12.564   6.439  10.403 -0.2396 -0.2677 -0.2435
  493loPI   GL2 7878  12.546   6.042  10.505 -0.2652 -0.1305  0.2244
  493loPI   C1A 7879  12.693   6.427   9.951 -0.3032 -0.0137 -0.1951
  493loPI   C2A 7880  12.729   6.391   9.506 -0.1299  0.3220 -0.0480
  493loPI   C3A 7881  12.732   6.417   9.053  0.0795  0.0821 -0.1708
  493loPI   C4A 7882  12.739   6.425   8.539  0.0049 -0.2166 -0.1535
  493loPI   C5A 7883  12.943   6.332   8.217 -0.1130  0.4746  0.1485
  493loPI   C6A 7884  13.235   6.128   7.977  0.0053 -0.0697 -0.1384
  493loPI   C1B 7885  12.521   5.980  10.055  0.3565  0.1733 -0.1245
  493loPI   C2B 7886  12.469   5.920   9.563  0.1866  0.0174 -0.0252
  493loPI   C3B 7887  12.496   5.925   9.122  0.3336  0.1023  0.0192
  493loPI   C4B 7888  12.488   5.953   8.695 -0.0630 -0.0588 -0.1227
  494loPI    C1 7889  16.338  16.285  10.492  0.1109  0.1724 -0.1378
  494loPI    C2 7890  16.120  16.291  10.827 -0.0430 -0.0032 -0.2323
  494loPI    C3 7891  16.439  16.052  10.801  0.0235  0.0791 -0.1787
  494loPI   PO4 7892  16.217  16.438  10.318  0.2301 -0.0355  0.0152
  494loPI   GL1 7893  16.377  16.385   9.953 -0.0159  0.0959  0.0512
  494loPI   GL2 7894  16.655  16.345   9.878 -0.0665  0.1391  0.1884
  494loPI   C1A 7895  16.176  16.381   9.672  0.1395 -0.1320 -0.0645
  494loPI   C2A 7896  16.129  16.395   9.304  0.0216 -0.3290  0.4496
  494loPI   C3A 7897  15.913  16.425   8.895  0.0792 -0.0183 -0.0604
  494loPI   C4A 7898  15.981  16.465   8.464  0.2964 -0.0806  0.1140
  494loPI   C5A 7899  15.937  16.399   7.994  0.2369  0.1008  0.4740
  494loPI   C6A 7900  15.891  16.137   7.586 -0.1262 -0.0373  0.3917
  494loPI   C1B 7901  16.619  16.278   9.518  0.1081 -0.0928  0.1296
  494loPI   C2B 7902  16.628  16.356   9.030 -0.1944 -0.1230  0.1559
  494loPI   C3B 7903  16.456  16.435   8.689  0.2259  0.0070  0.1188
  494loPI   C4B 7904  16.402  16.613   8.335  0.1176 -0.0218 -0.0854
  495loPI    C1 7905  13.066  13.338  11.131  0.4854  0.0975 -0.2478
  495loPI    C2 7906  13.199  13.128  11.445  0.0051  0.0968 -0.0367
  495loPI    C3 7907  13.232  13.527  11.443  0.0792  0.0909 -0.0203
  495loPI   PO4 7908  13.088  13.383  10.885 -0.0955 -0.0341 -0.3313
  495loPI   GL1 7909  13.073  13.584  10.456 -0.0229 -0.1595  0.1469
  495loPI   GL2 7910  12.835  13.738  10.241  0.0372 -0.3707  0.1579
  495loPI   C1A 7911  13.190  13.370  10.129  0.0136 -0.0625  0.0379
  495loPI   C2A 7912  13.286  13.312   9.732  0.1183 -0.3208  0.1851
  495loPI   C3A 7913  13.293  13.219   9.301 -0.2297  0.2519 -0.0123
  495loPI   C4A 7914  13.345  13.322   8.927  0.0325 -0.1683  0.0196
  495loPI   C5A 7915  13.118  13.242   8.502  0.2126  0.1936  0.2236
  495loPI   C6A 7916  12.746  13.010   8.436 -0.2603  0.0672 -0.0206
  495loPI   C1B 7917  13.000  13.806   9.689 -0.2959  0.0945  0.0758
  495loPI   C2B 7918  12.935  13.680   9.222  0.2415  0.0330  0.0347
  495loPI   C3B 7919  12.863  13.684   8.792  0.0320  0.2754 -0.0629
  495loPI   C4B 7920  12.957  13.704   8.357 -0.2188 -0.1220 -0.0631
  496loPI    C1 7921   0.544  14.462  10.162 -0.2130 -0.0750 -0.0661
  496loPI    C2 7922   0.927  14.398  10.260 -0.2467  0.0189  0.1302
  496loPI    C3 7923   0.634  14.222  10.469 -0.3126 -0.0065  0.0172
  496loPI   PO4 7924   0.563  14.449   9.954  0.0141  0.3834 -0.0687
  496loPI   GL1 7925   0.555  14.132   9.665 -0.0175 -0.0163 -0.0008
  496loPI   GL2 7926   0.198  14.208   9.691  0.2006  0.2827 -0.0774
  496loPI   C1A 7927   0.642  14.140   9.289  0.0226  0.0950 -0.2267
  496loPI   C2A 7928   0.412  14.231   8.959  0.1140  0.0607 -0.2371
  496loPI   C3A 7929   0.312  14.351   8.538  0.0996  0.1349  0.1367
  496loPI   C4A 7930   0.243  14.292   8.101  0.2803 -0.0808  0.0660
  496loPI   C5A 7931   0.041  14.526   7.944  0.2808 -0.2851  0.2631
  496loPI   C6A 7932  -0.158  14.797   7.708  0.0388  0.0179 -0.2761
  496loPI   C1B 7933   0.022  14.087   9.252  0.0803  0.2640 -0.0513
  496loPI   C2B 7934   0.028  14.045   8.760  0.3328  0.0956 -0.1159
  496loPI   C3B 7935  -0.012  13.827   8.381 -0.1984  0.0816 -0.0353
  496loPI   C4B 7936   0.025  13.784   8.065  0.2761  0.2376 -0.3363
  497loPI    C1 7937  10.161   1.460  10.809  0.3604 -0.0194  0.1169
  497loPI    C2 7938  10.158   1.126  11.030  0.0805 -0.1010 -0.0050
  497loPI    C3 7939   9.850   1.209  10.790  0.2375  0.1481 -0.1247
  497loPI   PO4 7940  10.464   1.488  10.700  0.2309  0.1681 -0.2431
  497loPI   GL1 7941  10.439   1.724  10.387  0.1444  0.1475  0.4386
  497loPI   GL2 7942  10.149   1.700  10.285 -0.1007  0.0354 -0.0342
  497loPI   C1A 7943  10.584   1.553   9.989  0.0372 -0.3600 -0.0286
  497loPI   C2A 7944  10.603   1.466   9.521  0.1085 -0.0483 -0.2253
  497loPI   C3A 7945  10.751   1.390   9.080  0.1881 -0.4096 -0.0147
  497loPI   C4A 7946  10.700   1.532   8.710 -0.0375 -0.1792  0.4990
  497loPI   C5A 7947  10.796   1.584   8.342 -0.0816  0.2099 -0.2257
  497loPI   C6A 7948  11.051   1.693   7.930 -0.2521  0.1005  0.1134
  497loPI   C1B 7949  10.138   1.612   9.900  0.3863 -0.0092 -0.1355
  497loPI   C2B 7950  10.083   1.497   9.479  0.2798 -0.1932 -0.1860
  497loPI   C3B 7951  10.200   1.543   8.981 -0.0450  0.1157  0.3193
  497loPI   C4B 7952   9.897   1.546   8.504 -0.0373 -0.0842  0.1319
  498loPI    C1 7953  17.066   1.787  10.319  0.0839 -0.3325  0.0458
  498loPI    C2 7954  17.165   2.076  10.578  0.0474 -0.0748 -0.2220
  498loPI    C3 7955  16.968   1.752  10.705  0.2285 -0.0588  0.1104
  498loPI   PO4 7956  17.083   1.988  10.065 -0.3558  0.2747  0.1544
  498loPI   GL1 7957  17.249   1.703   9.677  0.1726 -0.5392 -0.4913
  498loPI   GL2 7958  17.595   1.756   9.776  0.1218 -0.2658  0.0706
  498loPI   C1A 7959  17.275   1.763   9.267 -0.1259 -0.4260  0.0651
  498loPI   C2A 7960  17.471   1.850   8.876  0.0035  0.0750 -0.2122
  498loPI   C3A 7961  17.569   1.850   8.366 -0.0045 -0.1448  0.1299
  498loPI   C4A 7962  17.577   1.751   8.003 -0.0803  0.3477 -0.0640
  498loPI   C5A 7963  17.655   1.501   7.591  0.0092  0.0241 -0.1595
  498loPI   C6A 7964  17.724   1.119   7.480  0.2664  0.2144  0.2075
  498loPI   C1B 7965  17.750   1.809   9.425 -0.1032 -0.1586  0.2958
  498loPI   C2B 7966  17.964   1.780   8.981  0.3896 -0.1113  0.3371
  498loPI   C3B 7967  18.124   1.812   8.558  0.1887 -0.0494 -0.1902
  498loPI   C4B 7968  18.108   1.792   7.975  0.3544 -0.2950 -0.0159
  499loPI    C1 7969  14.040  13.611  10.911 -0.1454  0.0061  0.1450
  499loPI    C2 7970  13.734  13.673  11.161 -0.1746  0.0560  0.0971
  499loPI    C3 7971  14.031  13.941  11.137 -0.1736  0.0531  0.0760
  499loPI   PO4 7972  13.984  13.617  10.668  0.3657 -0.3047  0.2039
  499loPI   GL1 7973  13.913  13.920  10.381 -0.2738  0.0530  0.0349
  499loPI   GL2 7974  14.145  13.586  10.213 -0.4150 -0.1081  0.2541
  499loPI   C1A 7975  13.817  14.231  10.059  0.0445  0.1230  0.2005
  499loPI   C2A 7976  13.712  14.255   9.664  0.2780  0.2041 -0.0212
  499loPI   C3A 7977  13.704  14.258   9.287  0.0193  0.2934 -0.0184
  499loPI   C4A 7978  13.714  14.252   8.968 -0.1901  0.1381  0.0755
  499loPI   C5A 7979  13.613  14.243   8.602  0.1587  0.2307  0.0852
  499loPI   C6A 7980  13.335  14.118   8.240  0.2099 -0.0936 -0.1006
  499loPI   C1B 7981  13.953  13.814   9.869  0.1436 -0.0751  0.1928
  499loPI   C2B 7982  14.044  13.880   9.394  0.0542  0.0691 -0.0546
  499loPI   C3B 7983  14.021  13.828   8.985  0.0317 -0.0344 -0.2416
  499loPI   C4B 7984  13.878  13.871   8.479  0.3335  0.2237  0.1291
  500loPI    C1 7985   9.345   8.853  11.236  0.1030  0.2418  0.0621
  500loPI    C2 7986   9.127   9.073  11.489 -0.2146  0.0649 -0.0515
  500loPI    C3 7987   9.070   8.677  11.467  0.0326  0.0337 -0.1751
  500loPI   PO4 7988   9.289   8.981  10.997 -0.1941 -0.3933 -0.1806
  500loPI   GL1 7989   9.460   8.892  10.571  0.1480  0.2841 -0.2302
  500loPI   GL2 7990   9.490   9.073  10.420 -0.2805 -0.0997 -0.3751
  500loPI   C1A 7991   9.611   8.681  10.220 -0.1341  0.1359 -0.0725
  500loPI   C2A 7992   9.688   8.741   9.861 -0.0405  0.3495  0.0872
  500loPI   C3A 7993   9.753   8.686   9.456 -0.1624 -0.0738  0.2193
  500loPI   C4A 7994   9.809   8.775   8.991  0.2332 -0.1478 -0.1365
  500loPI   C5A 7995   9.862   8.793   8.565  0.0388 -0.1005  0.1970
  500loPI   C6A 7996   9.811   8.345   8.373  0.0047 -0.0206 -0.1330
  500loPI   C1B 7997   9.403   9.241  10.013 -0.1014 -0.1181  0.1127
  500loPI   C2B 7998   9.475   9.124   9.521  0.0100 -0.0921  0.1078
  500loPI   C3B 7999   9.464   9.093   9.153 -0.0364 -0.3942 -0.2573
  500loPI   C4B 8000   9.415   9.214   8.777 -0.0905 -0.1383 -0.2728
  501loPI    C1 8001   3.047   2.168  10.644  0.0586 -0.1780  0.1322
  501loPI    C2 8002   2.691   2.001  10.718  0.0848 -0.2429  0.1132
  501loPI    C3 8003   2.982   1.981  10.992  0.0522 -0.1301  0.1567
  501loPI   PO4 8004   3.104   2.126  10.411  0.1885  0.2736  0.1945
  501loPI   GL1 8005   3.133   1.809  10.080 -0.0931  0.0344 -0.0616
  501loPI   GL2 8006   3.332   2.120   9.975 -0.0223  0.2667  0.2016
  501loPI   C1A 8007   2.768   1.633   9.698  0.2769  0.0302  0.2434
  501loPI   C2A 8008   2.679   1.650   9.278 -0.0568  0.1642  0.1941
  501loPI   C3A 8009   2.804   1.671   8.947  0.1661  0.0581  0.2666
  501loPI   C4A 8010   2.799   1.702   8.568 -0.0219 -0.0085  0.1031
  501loPI   C5A 8011   3.022   1.880   8.228  0.1554 -0.1377 -0.0022
  501loPI   C6A 8012   2.872   2.103   7.854  0.0271  0.0780  0.1058
  501loPI   C1B 8013   3.413   2.208   9.578 -0.1550  0.0119  0.1818
  501loPI   C2B 8014   3.433   2.306   9.092 -0.1882 -0.0040  0.0483
  501loPI   C3B 8015   3.573   2.273   8.701 -0.0115 -0.0732  0.3291
  501loPI   C4B 8016   3.414   2.220   8.266  0.0713 -0.2349  0.0966
  502loPI    C1 8017   4.107   2.712  10.910 -0.0889  0.0644 -0.0894
  502loPI    C2 8018   4.049   2.912  11.252 -0.3567 -0.0806 -0.0476
  502loPI    C3 8019   3.974   2.519  11.234  0.1204 -0.1737 -0.1421
  502loPI   PO4 8020   4.013   2.945  10.726  0.0273  0.2219  0.0012
  502loPI   GL1 8021   4.132   3.139  10.410 -0.2319  0.1176 -0.1872
  502loPI   GL2 8022   4.274   3.037  10.312  0.2299  0.0506 -0.0084
  502loPI   C1A 8023   4.092   3.440  10.156 -0.2428 -0.1397 -0.1493
  502loPI   C2A 8024   4.106   3.530   9.738 -0.0876  0.1256  0.0229
  502loPI   C3A 8025   4.173   3.689   9.352 -0.1463 -0.0045 -0.0715
  502loPI   C4A 8026   4.126   3.669   8.872  0.0062  0.0601  0.2164
  502loPI   C5A 8027   4.041   3.525   8.379  0.1351  0.1103 -0.0614
  502loPI   C6A 8028   4.261   3.620   8.081  0.1919 -0.2306  0.1200
  502loPI   C1B 8029   4.416   3.178   9.928  0.1287 -0.0260  0.1013
  502loPI   C2B 8030   4.483   3.268   9.440  0.0571  0.0251  0.3026
  502loPI   C3B 8031   4.467   3.264   9.027  0.0758 -0.0213  0.1249
  502loPI   C4B 8032   4.241   3.233   8.707  0.0396  0.0894  0.2380
  503loPI    C1 8033   5.138  17.485  10.636 -0.1235  0.2403  0.0945
  503loPI    C2 8034   4.888  17.341  10.913 -0.0612 -0.0071  0.0248
  503loPI    C3 8035   5.278  17.373  10.994 -0.0027 -0.3216 -0.1178
  503loPI   PO4 8036   5.055  17.410  10.432 -0.3690  0.1899  0.0377
  503loPI   GL1 8037   5.198  17.407  10.117 -0.1494 -0.1001  0.2129
  503loPI   GL2 8038   5.539  17.401   9.982  0.2963 -0.0526 -0.1005
  503loPI   C1A 8039   5.106  17.490   9.641 -0.0392  0.4059  0.1770
  503loPI   C2A 8040   5.135  17.355   9.177 -0.2801 -0.0478 -0.1823
  503loPI   C3A 8041   5.215  17.454   8.753  0.0014 -0.4348 -0.0056
  503loPI   C4A 8042   5.231  17.373   8.346  0.0995 -0.0495 -0.0716
  503loPI   C5A 8043   5.283  17.513   7.856 -0.0134  0.2425 -0.0754
  503loPI   C6A 8044   5.401  17.407   7.499  0.1289  0.0244  0.5196
  503loPI   C1B 8045   5.614  17.394   9.511  0.1874 -0.2806  0.2757
  503loPI   C2B 8046   5.735  17.424   9.022  0.1616 -0.0442  0.0462
  503loPI   C3B 8047   5.719  17.469   8.551 -0.2143  0.1827 -0.2798
  503loPI   C4B 8048   5.738  17.490   8.125  0.0843  0.0097 -0.3484
  504loPI    C1 8049   0.837  12.976  10.358  0.1073  0.1344  0.1984
  504loPI    C2 8050   0.454  13.069  10.424  0.0779  0.0992  0.0793
  504loPI    C3 8051   0.688  12.959  10.729 -0.0907 -0.1898  0.1077
  504loPI   PO4 8052   0.852  12.805  10.139 -0.0134  0.2913  0.1811
  504loPI   GL1 8053   1.075  12.918   9.812 -0.1190  0.2569  0.1704
  504loPI   GL2 8054   1.258  12.618   9.785  0.1750 -0.0668 -0.2033
  504loPI   C1A 8055   1.070  12.867   9.350  0.1077 -0.0972 -0.1887
  504loPI   C2A 8056   1.053  12.808   8.887 -0.2494 -0.1537 -0.1814
  504loPI   C3A 8057   1.075  12.812   8.411 -0.1728 -0.1465 -0.2164
  504loPI   C4A 8058   1.090  12.748   7.924  0.0210  0.1895 -0.0036
  504loPI   C5A 8059   0.985  12.578   7.523  0.1417 -0.0885 -0.0348
  504loPI   C6A 8060   1.157  12.660   7.201  0.0022 -0.2133  0.3489
  504loPI   C1B 8061   1.320  12.444   9.437 -0.1767 -0.2272  0.3353
  504loPI   C2B 8062   1.496  12.291   9.049  0.2664  0.2188  0.1278
  504loPI   C3B 8063   1.320  12.466   8.640  0.0433  0.0949  0.0233
  504loPI   C4B 8064   1.316  12.418   8.219  0.0724 -0.0740 -0.0822
  505loPI    C1 8065  11.713   5.209  10.960 -0.1101  0.1415  0.1734
  505loPI    C2 8066  11.609   5.464  11.249  0.0902  0.0361  0.3416
  505loPI    C3 8067  11.769   5.110  11.343 -0.3448 -0.2287  0.1175
  505loPI   PO4 8068  11.879   5.285  10.885 -0.2739  0.0985  0.0153
  505loPI   GL1 8069  12.017   5.236  10.517  0.1763  0.1186  0.1703
  505loPI   GL2 8070  12.126   5.007  10.414  0.0853  0.0230 -0.1378
  505loPI   C1A 8071  11.832   5.488  10.137 -0.0699 -0.2966 -0.1037
  505loPI   C2A 8072  11.815   5.402   9.657  0.0426 -0.1846 -0.0916
  505loPI   C3A 8073  11.796   5.399   9.242 -0.1537  0.0894 -0.1453
  505loPI   C4A 8074  11.726   5.349   8.857  0.0864  0.1901 -0.0204
  505loPI   C5A 8075  11.813   5.361   8.441 -0.0710  0.3095  0.0489
  505loPI   C6A 8076  12.099   5.341   8.142 -0.1019 -0.0315  0.0336
  505loPI   C1B 8077  12.079   5.020   9.974  0.0607 -0.1571 -0.2518
  505loPI   C2B 8078  12.134   4.987   9.552 -0.0206  0.1916  0.2667
  505loPI   C3B 8079  12.047   5.008   9.109  0.1054 -0.0031  0.1073
  505loPI   C4B 8080  11.977   4.872   8.741 -0.2336  0.0517  0.1995
  506loPI    C1 8081  17.406  14.293  10.359  0.1783  0.1172  0.3750
  506loPI    C2 8082  17.570  14.125  10.682  0.0116 -0.2825  0.2579
  506loPI    C3 8083  17.172  14.160  10.655  0.0286 -0.1874  0.1255
  506loPI   PO4 8084  17.455  14.168  10.148  0.1039  0.4461  0.1813
  506loPI   GL1 8085  17.374  14.129   9.776 -0.0272  0.1636 -0.0905
  506loPI   GL2 8086  17.364  13.788   9.644 -0.1671  0.0313  0.2413
  506loPI   C1A 8087  17.331  14.498   9.486 -0.0208 -0.3940  0.1292
  506loPI   C2A 8088  17.093  14.716   9.033 -0.1073  0.0157 -0.1977
  506loPI   C3A 8089  17.004  14.792   8.675 -0.2196 -0.1106  0.1085
  506loPI   C4A 8090  16.931  15.111   8.354  0.0816  0.1014 -0.1843
  506loPI   C5A 8091  16.819  15.367   8.030  0.2314  0.2409  0.1415
  506loPI   C6A 8092  16.832  15.393   7.586  0.3374 -0.2067 -0.0359
  506loPI   C1B 8093  17.279  13.943   9.274  0.0173 -0.2170 -0.0663
  506loPI   C2B 8094  17.275  14.301   9.023 -0.0507  0.4579 -0.1197
  506loPI   C3B 8095  17.281  14.387   8.579 -0.2044 -0.1245 -0.1899
  506loPI   C4B 8096  17.194  14.581   8.180 -0.3261  0.0312  0.1091
  507loPI    C1 8097  11.776   4.227  11.328  0.0309 -0.1407 -0.1049
  507loPI    C2 8098  11.841   3.976  11.633 -0.1016 -0.0464  0.0024
  507loPI    C3 8099  11.543   4.243  11.653  0.0545  0.1386 -0.0986
  507loPI   PO4 8100  11.605   3.991  11.132 -0.3311 -0.0620  0.2515
  507loPI   GL1 8101  11.746   3.723  10.660  0.0561 -0.0637  0.0009
  507loPI   GL2 8102  11.615   4.022  10.581  0.1783  0.1601  0.0737
  507loPI   C1A 8103  11.636   3.614  10.172 -0.0989  0.1216 -0.1001
  507loPI   C2A 8104  11.544   3.647   9.798 -0.2563  0.0140  0.2335
  507loPI   C3A 8105  11.496   3.456   9.395 -0.1822 -0.1774 -0.0758
  507loPI   C4A 8106  11.460   3.381   9.039 -0.0833  0.0258 -0.2741
  507loPI   C5A 8107  11.364   3.580   8.641  0.1219  0.0185 -0.1974
  507loPI   C6A 8108  11.056   3.571   8.379  0.2086 -0.0080 -0.0029
  507loPI   C1B 8109  11.776   4.081  10.198  0.0059 -0.1830 -0.2355
  507loPI   C2B 8110  11.764   4.107   9.778  0.1372  0.2908  0.2788
  507loPI   C3B 8111  11.658   3.997   9.240  0.0695 -0.0861 -0.4639
  507loPI   C4B 8112  11.604   3.931   8.830 -0.2693 -0.0173 -0.0848
  508loPI    C1 8113  15.328  16.353  10.633 -0.1390 -0.0885 -0.0202
  508loPI    C2 8114  15.548  16.391  10.966 -0.1345 -0.0185 -0.0309
  508loPI    C3 8115  15.166  16.276  10.990 -0.1187 -0.0659 -0.0060
  508loPI   PO4 8116  15.357  16.492  10.454  0.1310 -0.1220 -0.0492
  508loPI   GL1 8117  15.227  16.386  10.155  0.1080  0.0775 -0.0557
  508loPI   GL2 8118  15.396  16.643   9.949  0.2936  0.0574  0.0922
  508loPI   C1A 8119  15.221  16.129   9.783  0.0157 -0.0300 -0.3395
  508loPI   C2A 8120  15.090  16.140   9.394 -0.2455  0.2554 -0.2313
  508loPI   C3A 8121  15.082  16.218   8.943 -0.0899  0.2695 -0.0255
  508loPI   C4A 8122  15.027  16.217   8.483  0.2610  0.2510 -0.1579
  508loPI   C5A 8123  15.174  16.056   8.085 -0.0828 -0.0032 -0.0117
  508loPI   C6A 8124  15.490  16.186   7.895 -0.1025  0.2645 -0.1136
  508loPI   C1B 8125  15.306  16.631   9.466 -0.0056 -0.3680  0.0423
  508loPI   C2B 8126  15.237  16.693   9.027  0.2986  0.0307  0.0618
  508loPI   C3B 8127  15.198  16.753   8.588 -0.0841 -0.3145  0.1525
  508loPI   C4B 8128  15.116  17.027   8.280 -0.2222  0.1044  0.3447
  509loPI    C1 8129  17.293   7.850  10.685 -0.0300 -0.0903 -0.0626
  509loPI    C2 8130  16.987   7.737  10.917 -0.0489  0.2041  0.0605
  509loPI    C3 8131  17.324   7.874  11.083  0.1598 -0.1336 -0.0739
  509loPI   PO4 8132  17.227   7.768  10.420  0.0076 -0.0179  0.0294
  509loPI   GL1 8133  16.946   7.790  10.042 -0.2011 -0.0695 -0.2032
  509loPI   GL2 8134  17.174   7.579   9.896 -0.0385 -0.1967 -0.0076
  509loPI   C1A 8135  16.794   7.860   9.698  0.0699  0.1269 -0.3329
  509loPI   C2A 8136  16.811   7.837   9.313  0.0173 -0.3028  0.3827
  509loPI   C3A 8137  16.617   7.765   8.907 -0.4800  0.0915  0.2561
  509loPI   C4A 8138  16.578   7.835   8.482  0.1567  0.0695 -0.0493
  509loPI   C5A 8139  16.718   7.860   8.086  0.1539  0.2138 -0.2151
  509loPI   C6A 8140  16.613   7.728   7.694 -0.2901  0.3125 -0.0678
  509loPI   C1B 8141  17.182   7.464   9.474 -0.1816 -0.4547 -0.0112
  509loPI   C2B 8142  17.082   7.452   9.029  0.1801 -0.3441 -0.2814
  509loPI   C3B 8143  16.920   7.385   8.717 -0.0989 -0.2570 -0.0311
  509loPI   C4B 8144  16.845   7.370   8.269 -0.2169 -0.0254  0.1844
  510loPI    C1 8145   6.702  16.067  11.018 -0.0205  0.1014 -0.1791
  510loPI    C2 8146   6.489  16.405  11.032 -0.1429  0.0157  0.0879
  510loPI    C3 8147   6.330  16.062  11.165  0.0877 -0.0894  0.0966
  510loPI   PO4 8148   6.862  16.139  10.702 -0.3024  0.0889 -0.3454
  510loPI   GL1 8149   6.807  16.340  10.282 -0.1324  0.0413 -0.2066
  510loPI   GL2 8150   6.541  16.520  10.171  0.1562  0.2126 -0.3806
  510loPI   C1A 8151   6.948  16.268   9.903  0.0804  0.1896  0.1167
  510loPI   C2A 8152   7.060  16.405   9.477 -0.0778  0.2125 -0.2281
  510loPI   C3A 8153   7.121  16.263   9.032  0.2889 -0.1334 -0.0896
  510loPI   C4A 8154   7.126  16.151   8.577  0.3050 -0.1865 -0.2135
  510loPI   C5A 8155   7.146  16.388   8.217  0.1956 -0.1141 -0.1837
  510loPI   C6A 8156   7.483  16.354   7.895 -0.1153  0.2176 -0.2477
  510loPI   C1B 8157   6.732  16.778   9.949 -0.0677 -0.0386  0.0538
  510loPI   C2B 8158   6.759  16.795   9.528  0.0832  0.1800  0.1080
  510loPI   C3B 8159   6.813  16.669   9.138 -0.1272  0.0668  0.3343
  510loPI   C4B 8160   6.849  16.599   8.625 -0.0307 -0.1747 -0.2608
  511loPI    C1 8161  15.014  12.457  11.128  0.2969 -0.1046 -0.0859
  511loPI    C2 8162  15.173  12.791  10.976  0.2160  0.0843  0.2352
  511loPI    C3 8163  15.263  12.678  11.349  0.2203 -0.2397  0.1391
  511loPI   PO4 8164  14.922  12.295  10.817 -0.0515 -0.1188 -0.2920
  511loPI   GL1 8165  15.057  12.219  10.389 -0.2000 -0.2980  0.0136
  511loPI   GL2 8166  14.794  12.097  10.136  0.1861 -0.0841 -0.1488
  511loPI   C1A 8167  14.972  12.534  10.080  0.1324 -0.0193  0.1957
  511loPI   C2A 8168  14.883  12.530   9.652  0.2124  0.0763 -0.3458
  511loPI   C3A 8169  14.903  12.482   9.273  0.0301  0.0357  0.2987
  511loPI   C4A 8170  14.944  12.482   8.843 -0.3591  0.1073 -0.4419
  511loPI   C5A 8171  14.963  12.529   8.373 -0.1772  0.0359 -0.2470
  511loPI   C6A 8172  15.006  12.837   8.048 -0.0005 -0.1677  0.1440
  511loPI   C1B 8173  14.697  12.097   9.669  0.1967 -0.0159 -0.0115
  511loPI   C2B 8174  14.666  11.967   9.194 -0.0356 -0.0170  0.0119
  511loPI   C3B 8175  14.734  11.981   8.714  0.0073  0.0730 -0.0712
  511loPI   C4B 8176  14.781  12.051   8.212 -0.0000 -0.1745 -0.2557
  512loPI    C1 8177   5.894  16.044  10.884 -0.2779 -0.1090 -0.0235
  512loPI    C2 8178   5.547  16.224  10.966 -0.1285  0.0356  0.3104
  512loPI    C3 8179   5.816  16.166  11.257  0.1926  0.0641  0.0258
  512loPI   PO4 8180   5.878  16.065  10.554  0.1026  0.0397 -0.0292
  512loPI   GL1 8181   6.075  15.915  10.214  0.1578  0.1500 -0.1715
  512loPI   GL2 8182   6.150  15.673  10.052 -0.2287 -0.2552  0.0581
  512loPI   C1A 8183   6.021  16.181   9.793  0.3599 -0.2524  0.1224
  512loPI   C2A 8184   6.053  16.164   9.242 -0.0783  0.1369 -0.0212
  512loPI   C3A 8185   6.073  16.125   8.822 -0.0877  0.0403  0.0800
  512loPI   C4A 8186   6.211  15.979   8.394  0.0976 -0.0909 -0.0118
  512loPI   C5A 8187   6.291  15.992   7.975 -0.1283 -0.1410  0.0160
  512loPI   C6A 8188   6.682  15.716   7.736 -0.0082 -0.2095  0.1126
  512loPI   C1B 8189   6.352  15.707   9.679  0.0331 -0.2661  0.0107
  512loPI   C2B 8190   6.430  15.787   9.199 -0.2151  0.1901 -0.0094
  512loPI   C3B 8191   6.420  15.690   8.814 -0.3732 -0.1936  0.0236
  512loPI   C4B 8192   6.433  15.559   8.446  0.1242 -0.0519  0.3343
  513loPI    C1 8193   0.294  14.833   9.845 -0.0480  0.1945 -0.0352
  513loPI    C2 8194   0.256  14.845  10.243  0.2728  0.1938 -0.0014
  513loPI    C3 8195   0.045  14.580  10.029  0.0796  0.2117  0.1641
  513loPI   PO4 8196   0.506  14.943   9.772 -0.2222 -0.0822 -0.0420
  513loPI   GL1 8197   0.376  15.290   9.514  0.0989 -0.0598  0.1294
  513loPI   GL2 8198   0.546  15.136   9.268  0.1957  0.1408 -0.1524
  513loPI   C1A 8199   0.096  15.347   9.166  0.1684  0.0677  0.0077
  513loPI   C2A 8200  -0.035  15.623   8.865 -0.0150 -0.3249  0.1409
  513loPI   C3A 8201  -0.245  15.678   8.443 -0.1214 -0.3091  0.1632
  513loPI   C4A 8202  -0.516  15.858   8.176  0.0085 -0.1906  0.2238
  513loPI   C5A 8203  -0.555  16.223   7.905 -0.1211  0.3805  0.1261
  513loPI   C6A 8204  -0.839  16.307   7.444 -0.3884 -0.1438  0.0694
  513loPI   C1B 8205   0.404  15.135   8.852  0.0917  0.1207  0.0933
  513loPI   C2B 8206   0.386  15.348   8.380  0.1038 -0.0730  0.0695
  513loPI   C3B 8207   0.087  15.545   8.091  0.0252  0.0184  0.0942
  513loPI   C4B 8208  -0.032  15.991   8.033  0.2442  0.0367 -0.0648
  514loPI    C1 8209   7.904   6.388  11.273  0.0147  0.0449 -0.0763
  514loPI    C2 8210   7.762   6.761  11.243 -0.4545 -0.1206  0.0115
  514loPI    C3 8211   7.910   6.631  11.591  0.0133  0.0820 -0.1046
  514loPI   PO4 8212   8.018   6.397  10.969 -0.0670  0.1803 -0.1823
  514loPI   GL1 8213   8.149   6.141  10.621 -0.2698 -0.1868 -0.2612
  514loPI   GL2 8214   8.508   6.171  10.562 -0.2545 -0.1642 -0.2372
  514loPI   C1A 8215   8.118   6.265  10.309  0.1698 -0.2640  0.1401
  514loPI   C2A 8216   8.226   6.295   9.890  0.1014  0.0139 -0.0794
  514loPI   C3A 8217   8.308   6.318   9.508  0.2514  0.2390 -0.0838
  514loPI   C4A 8218   8.403   6.296   9.064 -0.2320 -0.1156  0.2699
  514loPI   C5A 8219   8.500   6.297   8.550  0.0053 -0.0301 -0.1685
  514loPI   C6A 8220   8.298   6.396   8.197 -0.1568 -0.5197 -0.2973
  514loPI   C1B 8221   8.466   5.970  10.161  0.0073  0.1264 -0.2462
  514loPI   C2B 8222   8.539   5.942   9.709 -0.1003 -0.0711 -0.0489
  514loPI   C3B 8223   8.576   5.933   9.337 -0.3688 -0.2074  0.0521
  514loPI   C4B 8224   8.662   5.830   8.872 -0.1469 -0.3926  0.0813
  515loPI    C1 8225  15.452   3.242  10.602 -0.0349  0.0213  0.1036
  515loPI    C2 8226  15.818   3.396  10.650 -0.0326  0.0807 -0.0946
  515loPI    C3 8227  15.614   3.263  10.967  0.1181  0.1433  0.0301
  515loPI   PO4 8228  15.354   3.397  10.406 -0.1498 -0.1647 -0.0527
  515loPI   GL1 8229  15.074   3.439  10.021  0.1902 -0.1741 -0.1147
  515loPI   GL2 8230  14.836   3.491   9.980  0.3566  0.2332 -0.1546
  515loPI   C1A 8231  15.323   3.496   9.693  0.3304 -0.0371 -0.1724
  515loPI   C2A 8232  15.248   3.541   9.258  0.1938  0.0006 -0.4965
  515loPI   C3A 8233  15.225   3.558   8.745 -0.1313 -0.1383 -0.1777
  515loPI   C4A 8234  15.301   3.619   8.381  0.0544 -0.1561  0.1597
  515loPI   C5A 8235  15.123   3.596   7.946 -0.1705 -0.0662 -0.0647
  515loPI   C6A 8236  15.254   3.785   7.556  0.1741 -0.1792  0.2751
  515loPI   C1B 8237  14.824   3.550   9.489 -0.3073 -0.0578 -0.1049
  515loPI   C2B 8238  14.781   3.558   9.064  0.0236 -0.1570  0.3280
  515loPI   C3B 8239  14.679   3.433   8.669 -0.1260  0.0178  0.5219
  515loPI   C4B 8240  14.609   3.573   8.240  0.1166 -0.0757  0.0167
  516loPI    C1 8241   5.784   1.803  10.681  0.3686 -0.1159 -0.1586
  516loPI    C2 8242   5.779   2.181  10.813  0.1324 -0.1352 -0.1096
  516loPI    C3 8243   5.548   1.904  10.987 -0.1058 -0.1837 -0.4916
  516loPI   PO4 8244   5.731   1.852  10.412  0.0113  0.2300 -0.1010
  516loPI   GL1 8245   5.744   1.597  10.017  0.1844  0.0228 -0.0725
  516loPI   GL2 8246   5.987   1.966  10.042 -0.0617 -0.0117  0.0247
  516loPI   C1A 8247   5.637   1.483   9.623 -0.0156  0.1927 -0.0321
  516loPI   C2A 8248   5.620   1.492   9.127  0.0506  0.2268 -0.1329
  516loPI   C3A 8249   5.683   1.595   8.716 -0.1146 -0.6236 -0.0681
  516loPI   C4A 8250   5.657   1.481   8.311  0.0502 -0.0194  0.0272
  516loPI   C5A 8251   5.586   1.146   7.991 -0.0389 -0.0015  0.0853
  516loPI   C6A 8252   5.479   0.716   8.088  0.1091 -0.0546 -0.0428
  516loPI   C1B 8253   5.920   1.930   9.586  0.2028 -0.1053 -0.0316
  516loPI   C2B 8254   5.866   1.925   9.174  0.2394  0.0862 -0.1791
  516loPI   C3B 8255   5.976   1.980   8.799  0.2451 -0.1508  0.2094
  516loPI   C4B 8256   5.998   1.985   8.376 -0.0073  0.2590  0.0401
  517loPI    C1 8257   0.483   6.411  10.471 -0.1076 -0.2062  0.1277
  517loPI    C2 8258   0.842   6.271  10.365  0.0921  0.4149 -0.0610
  517loPI    C3 8259   0.789   6.431  10.728 -0.0223  0.2403  0.0006
  517loPI   PO4 8260   0.407   6.578  10.238  0.0852 -0.1049 -0.2326
  517loPI   GL1 8261   0.449   6.417   9.940  0.0264 -0.3873 -0.0652
  517loPI   GL2 8262   0.738   6.402   9.874 -0.3598 -0.1607 -0.2343
  517loPI   C1A 8263   0.416   6.502   9.522 -0.1455  0.2281 -0.0854
  517loPI   C2A 8264   0.523   6.570   9.115 -0.0836  0.1292 -0.1714
  517loPI   C3A 8265   0.585   6.640   8.728  0.3734  0.1898 -0.0473
  517loPI   C4A 8266   0.453   6.691   8.360 -0.2849  0.4651 -0.0865
  517loPI   C5A 8267   0.247   6.752   7.966 -0.0352  0.0251  0.0885
  517loPI   C6A 8268  -0.092   6.995   7.964 -0.3549  0.2144 -0.2971
  517loPI   C1B 8269   0.812   6.234   9.377 -0.1231 -0.2626 -0.0691
  517loPI   C2B 8270   0.888   6.188   8.885 -0.0864 -0.0198 -0.0690
  517loPI   C3B 8271   0.867   6.324   8.495  0.0459  0.0496  0.0693
  517loPI   C4B 8272   0.953   6.410   8.162 -0.0322  0.1136 -0.0115
  518loPI    C1 8273  17.308   5.678  10.323 -0.0352  0.0305 -0.0617
  518loPI    C2 8274  17.489   5.689  10.679 -0.0198 -0.0649 -0.0665
  518loPI    C3 8275  17.375   6.029  10.502 -0.0891 -0.0212  0.0608
  518loPI   PO4 8276  17.457   5.597  10.154 -0.0491  0.2158  0.1633
  518loPI   GL1 8277  17.458   5.565   9.653  0.0361 -0.1763 -0.1040
  518loPI   GL2 8278  17.683   5.394   9.737  0.0311 -0.1886 -0.0134
  518loPI   C1A 8279  17.736   5.542   9.259 -0.1153 -0.1517  0.0113
  518loPI   C2A 8280  17.704   5.622   8.796  0.1699  0.2460 -0.1210
  518loPI   C3A 8281  17.618   5.696   8.348  0.3128  0.0006  0.0574
  518loPI   C4A 8282  17.282   5.443   8.065 -0.5563 -0.0543 -0.0363
  518loPI   C5A 8283  17.097   5.023   8.036 -0.1308  0.0011 -0.4025
  518loPI   C6A 8284  17.364   4.592   8.006  0.1133  0.1895  0.0425
  518loPI   C1B 8285  17.638   5.088   9.401  0.2529  0.1494 -0.2182
  518loPI   C2B 8286  17.742   5.126   8.908  0.0412  0.0485 -0.1136
  518loPI   C3B 8287  17.936   5.203   8.512 -0.2817  0.0835 -0.1018
  518loPI   C4B 8288  18.296   5.146   8.262  0.1155  0.2866  0.0066
  519loPI    C1 8289  16.799  10.958  11.133  0.0748  0.0287 -0.0668
  519loPI    C2 8290  16.686  10.640  11.348  0.0864  0.1763  0.1612
  519loPI    C3 8291  17.073  10.739  11.326  0.0982  0.0926 -0.0270
  519loPI   PO4 8292  16.640  10.919  10.890  0.0023 -0.2785 -0.0435
  519loPI   GL1 8293  16.727  10.651  10.476  0.0307  0.0954 -0.2194
  519loPI   GL2 8294  16.562  10.733  10.152 -0.2771  0.1978  0.1078
  519loPI   C1A 8295  16.927  10.462  10.023 -0.0342  0.1075  0.1902
  519loPI   C2A 8296  16.969  10.477   9.598 -0.2430  0.1096 -0.2425
  519loPI   C3A 8297  16.891  10.584   9.153 -0.2392  0.0974 -0.0932
  519loPI   C4A 8298  16.947  10.442   8.747 -0.0875 -0.0900 -0.2809
  519loPI   C5A 8299  16.956  10.463   8.296 -0.1604 -0.2486 -0.1223
  519loPI   C6A 8300  17.049  10.805   8.183  0.1647  0.1582  0.0108
  519loPI   C1B 8301  16.609  10.833   9.720  0.2279  0.0468 -0.0622
  519loPI   C2B 8302  16.609  10.989   9.339  0.2019 -0.1692 -0.3533
  519loPI   C3B 8303  16.578  10.857   8.900 -0.3020 -0.1687 -0.0564
  519loPI   C4B 8304  16.732  10.879   8.542 -0.0999  0.4175  0.0149
  520loPI    C1 8305  16.131  13.681  10.551  0.0508 -0.1353  0.0525
  520loPI    C2 8306  16.220  13.309  10.667  0.2123  0.0178  0.4372
  520loPI    C3 8307  16.046  13.562  10.923 -0.2405  0.0977  0.0643
  520loPI   PO4 8308  16.061  13.647  10.244 -0.0965 -0.1015 -0.1989
  520loPI   GL1 8309  15.889  13.555   9.883  0.1395 -0.0213  0.1360
  520loPI   GL2 8310  15.745  13.189  10.048 -0.0383  0.1595 -0.1246
  520loPI   C1A 8311  15.786  13.519   9.487 -0.0432 -0.1144 -0.1833
  520loPI   C2A 8312  15.798  13.504   8.983  0.1614  0.0970  0.4096
  520loPI   C3A 8313  15.783  13.695   8.614 -0.3948  0.0467 -0.2821
  520loPI   C4A 8314  16.107  13.875   8.307  0.1908 -0.3359 -0.1033
  520loPI   C5A 8315  16.207  13.677   8.016 -0.0859  0.1271  0.5100
  520loPI   C6A 8316  16.518  13.374   7.867 -0.4021 -0.0240  0.0259
  520loPI   C1B 8317  15.571  13.108   9.635  0.1167  0.3545  0.0248
  520loPI   C2B 8318  15.586  13.062   9.172 -0.2367 -0.2548 -0.1593
  520loPI   C3B 8319  15.683  13.048   8.757 -0.1092  0.0786 -0.2986
  520loPI   C4B 8320  15.675  12.860   8.413  0.2196  0.2442 -0.1165
  521loPI    C1 8321   6.235   2.475  11.085  0.1918  0.1495  0.2846
  521loPI    C2 8322   6.244   2.075  11.068  0.0094  0.1601 -0.2084
  521loPI    C3 8323   6.076   2.258  11.381  0.0070 -0.1491 -0.0255
  521loPI   PO4 8324   6.137   2.550  10.776  0.0204 -0.1250  0.0508
  521loPI   GL1 8325   6.140   2.551  10.385 -0.0508  0.2982  0.2294
  521loPI   GL2 8326   6.258   2.836  10.222  0.0863  0.0088  0.0967
  521loPI   C1A 8327   6.073   2.407   9.891 -0.4215 -0.1194 -0.0406
  521loPI   C2A 8328   6.110   2.426   9.396  0.1783 -0.3684 -0.0516
  521loPI   C3A 8329   6.043   2.440   8.967  0.2787 -0.1804 -0.1891
  521loPI   C4A 8330   5.978   2.516   8.502  0.0052 -0.3070 -0.0189
  521loPI   C5A 8331   5.731   2.370   8.227  0.0548 -0.1094  0.2654
  521loPI   C6A 8332   5.275   2.393   8.159 -0.2633 -0.0109 -0.1580
  521loPI   C1B 8333   6.148   2.927   9.712  0.1259  0.2113  0.1323
  521loPI   C2B 8334   6.294   2.940   9.375  0.0968 -0.0808 -0.1171
  521loPI   C3B 8335   6.386   2.984   8.933 -0.1232 -0.1073  0.0238
  521loPI   C4B 8336   6.347   2.902   8.444 -0.0285 -0.1966 -0.0642
  522loPI    C1 8337  17.803   6.377  10.425  0.0580 -0.1175 -0.0167
  522loPI    C2 8338  18.194   6.301  10.463  0.0706 -0.0187  0.0572
  522loPI    C3 8339  17.939   6.185  10.748  0.0442 -0.0937  0.0034
  522loPI   PO4 8340  17.710   6.309  10.192 -0.1791  0.0496 -0.0881
  522loPI   GL1 8341  17.793   6.294   9.717 -0.0952 -0.1198 -0.0165
  522loPI   GL2 8342  17.675   6.598   9.765  0.1791  0.0992 -0.1184
  522loPI   C1A 8343  17.522   6.069   9.572  0.1219  0.3700 -0.0808
  522loPI   C2A 8344  17.382   5.945   9.195 -0.1650  0.1631  0.3111
  522loPI   C3A 8345  17.428   6.077   8.808 -0.3275 -0.2865  0.0856
  522loPI   C4A 8346  17.369   6.120   8.397 -0.1012  0.0608 -0.1060
  522loPI   C5A 8347  17.531   6.216   8.053  0.1805 -0.2561  0.0260
  522loPI   C6A 8348  17.689   6.402   7.702 -0.0453 -0.0958 -0.0014
  522loPI   C1B 8349  17.599   6.482   9.235  0.0864  0.0026 -0.2779
  522loPI   C2B 8350  17.712   6.502   8.825  0.2764  0.3816 -0.1460
  522loPI   C3B 8351  17.593   6.541   8.418  0.1091  0.0624  0.2986
  522loPI   C4B 8352  17.490   6.733   7.978  0.1515 -0.1165 -0.0338
  523loPI    C1 8353   0.030   5.559  10.291  0.1387  0.0914 -0.1040
  523loPI    C2 8354  -0.267   5.322  10.166  0.1985  0.0383 -0.1459
  523loPI    C3 8355  -0.209   5.380  10.557  0.2188 -0.0619 -0.1337
  523loPI   PO4 8356   0.005   5.680  10.096 -0.1695 -0.2598  0.0188
  523loPI   GL1 8357   0.005   5.622   9.735  0.0717  0.0569 -0.1154
  523loPI   GL2 8358  -0.041   5.445   9.444 -0.0651  0.0621  0.1959
  523loPI   C1A 8359  -0.216   5.924   9.438 -0.1821 -0.0940  0.2009
  523loPI   C2A 8360  -0.259   5.982   9.035 -0.3710  0.0264  0.0591
  523loPI   C3A 8361  -0.321   6.064   8.553  0.0363  0.4395 -0.1174
  523loPI   C4A 8362  -0.217   6.007   8.176 -0.1263 -0.1032 -0.1228
  523loPI   C5A 8363  -0.034   6.073   7.726  0.1006 -0.0465 -0.1001
  523loPI   C6A 8364   0.164   6.114   7.402  0.0665 -0.1183 -0.0883
  523loPI   C1B 8365  -0.010   5.523   8.989  0.0567  0.2718  0.0510
  523loPI   C2B 8366   0.055   5.707   8.523 -0.1972 -0.2988 -0.0431
  523loPI   C3B 8367   0.150   5.724   8.024  0.1321  0.3221 -0.2794
  523loPI   C4B 8368   0.026   5.513   7.690 -0.0090  0.2576 -0.0288
  524loPI    C1 8369  12.975  12.321  10.966  0.1480 -0.1768 -0.1172
  524loPI    C2 8370  13.101  12.522  11.289  0.0351 -0.1351 -0.0985
  524loPI    C3 8371  13.071  12.123  11.301 -0.1306 -0.1204 -0.0013
  524loPI   PO4 8372  13.144  12.435  10.679  0.2309  0.1634 -0.0765
  524loPI   GL1 8373  13.254  12.385  10.314  0.5720 -0.0539 -0.1243
  524loPI   GL2 8374  13.042  12.006  10.280  0.0790 -0.2945 -0.1805
  524loPI   C1A 8375  13.374  12.488   9.891 -0.0095  0.3561 -0.3585
  524loPI   C2A 8376  13.289  12.430   9.315  0.0669  0.2683 -0.1371
  524loPI   C3A 8377  13.464  12.333   8.955 -0.0972  0.2301 -0.2231
  524loPI   C4A 8378  13.444  12.415   8.501 -0.0953  0.1172  0.1754
  524loPI   C5A 8379  13.350  12.732   8.205 -0.1910  0.0859 -0.0069
  524loPI   C6A 8380  13.289  12.973   7.760  0.2544  0.1823 -0.2962
  524loPI   C1B 8381  13.092  11.997   9.972  0.2562  0.1584  0.1807
  524loPI   C2B 8382  13.159  12.005   9.505  0.1247  0.0392  0.0183
  524loPI   C3B 8383  13.169  11.818   8.968  0.0055 -0.1738  0.1656
  524loPI   C4B 8384  13.243  11.968   8.620  0.2146  0.2344  0.0498
  525loPI    C1 8385   5.703   4.865  11.004 -0.1444 -0.0536  0.0325
  525loPI    C2 8386   5.836   5.141  11.261  0.0500 -0.0891 -0.0280
  525loPI    C3 8387   5.704   4.789  11.397 -0.1392  0.0084  0.0446
  525loPI   PO4 8388   5.931   4.774  10.791 -0.5044 -0.0371  0.3626
  525loPI   GL1 8389   5.841   4.638  10.489  0.0238 -0.1727  0.3268
  525loPI   GL2 8390   5.597   4.629  10.399  0.2967  0.0597  0.1053
  525loPI   C1A 8391   6.069   4.827  10.126  0.0913  0.1944 -0.0609
  525loPI   C2A 8392   6.148   4.802   9.784  0.1735 -0.2471 -0.1282
  525loPI   C3A 8393   6.150   4.686   9.365  0.1940  0.0651  0.1570
  525loPI   C4A 8394   6.142   4.786   8.913 -0.0803 -0.0529  0.1227
  525loPI   C5A 8395   6.190   4.697   8.493 -0.1487 -0.2530  0.0071
  525loPI   C6A 8396   5.866   4.857   8.214  0.1620 -0.1457  0.0459
  525loPI   C1B 8397   5.586   4.761  10.009  0.2030  0.2354  0.2458
  525loPI   C2B 8398   5.607   4.674   9.572 -0.2961 -0.2118 -0.2148
  525loPI   C3B 8399   5.641   4.662   9.123  0.3301 -0.0237  0.1485
  525loPI   C4B 8400   5.572   4.589   8.581  0.2704 -0.3370 -0.2283
  526loPI    C1 8401   4.702   5.375  10.677 -0.0675  0.0653  0.2493
  526loPI    C2 8402   5.070   5.266  10.566 -0.1040  0.2209 -0.0331
  526loPI    C3 8403   4.998   5.370  10.945  0.1019  0.0171  0.0636
  526loPI   PO4 8404   4.603   5.209  10.519  0.1823  0.3112 -0.2519
  526loPI   GL1 8405   4.399   5.255  10.175  0.1273 -0.2053 -0.1269
  526loPI   GL2 8406   4.019   5.380  10.215  0.0334 -0.2466  0.1037
  526loPI   C1A 8407   4.485   5.461   9.844  0.0273  0.2305  0.0785
  526loPI   C2A 8408   4.399   5.566   9.551 -0.1108  0.1209  0.0071
  526loPI   C3A 8409   4.455   5.499   9.116  0.2508 -0.2837 -0.0074
  526loPI   C4A 8410   4.579   5.483   8.767 -0.2271 -0.4060 -0.2462
  526loPI   C5A 8411   4.570   5.447   8.313  0.0259  0.0783  0.0549
  526loPI   C6A 8412   4.519   5.255   7.962 -0.0161  0.1642 -0.0939
  526loPI   C1B 8413   3.766   5.494   9.839  0.2644  0.0096 -0.2584
  526loPI   C2B 8414   3.922   5.430   9.435 -0.1217  0.3827  0.1025
  526loPI   C3B 8415   3.888   5.456   8.974  0.1990  0.1950  0.2665
  526loPI   C4B 8416   3.837   5.345   8.540 -0.0840 -0.1808 -0.1615
  527loPI    C1 8417  13.043   1.776  11.107  0.0558 -0.2113 -0.0917
  527loPI    C2 8418  12.764   2.030  11.240  0.0500 -0.1539 -0.2118
  527loPI    C3 8419  12.998   1.836  11.500  0.2204  0.1606 -0.1255
  527loPI   PO4 8420  12.968   1.629  10.818 -0.2228 -0.1125  0.2502
  527loPI   GL1 8421  13.030   1.863  10.378  0.2455 -0.1335  0.1660
  527loPI   GL2 8422  12.772   1.664  10.365 -0.1114 -0.0131 -0.2797
  527loPI   C1A 8423  13.155   1.872   9.927 -0.0882 -0.0302  0.3481
  527loPI   C2A 8424  13.276   1.912   9.499 -0.1376 -0.0470 -0.1545
  527loPI   C3A 8425  13.317   1.831   9.088 -0.2491  0.0682 -0.0483
  527loPI   C4A 8426  13.273   1.763   8.568 -0.0474  0.0473 -0.1237
  527loPI   C5A 8427  13.111   1.799   8.114 -0.0678  0.0664 -0.4024
  527loPI   C6A 8428  13.069   1.870   7.645 -0.0696 -0.0491 -0.2297
  527loPI   C1B 8429  12.664   1.919  10.057  0.3179 -0.1552  0.2242
  527loPI   C2B 8430  12.738   1.769   9.553 -0.3240  0.0135  0.0540
  527loPI   C3B 8431  12.745   1.731   9.110  0.0692  0.2771 -0.2048
  527loPI   C4B 8432  12.772   1.736   8.680 -0.0112  0.1164  0.0833
  528loPI    C1 8433   4.547   4.363  10.751  0.1185  0.0144  0.1312
  528loPI    C2 8434   4.148   4.362  10.763  0.1153  0.0988  0.0396
  528loPI    C3 8435   4.357   4.414  11.099  0.0507 -0.0591  0.1052
  528loPI   PO4 8436   4.575   4.506  10.573 -0.1916  0.0085 -0.1770
  528loPI   GL1 8437   4.762   4.746  10.219 -0.3671 -0.2047 -0.0397
  528loPI   GL2 8438   5.025   4.758  10.283  0.2054  0.2292  0.0550
  528loPI   C1A 8439   4.816   5.060   9.824  0.0575 -0.2442  0.0381
  528loPI   C2A 8440   4.769   5.203   9.455 -0.3425 -0.1364 -0.1081
  528loPI   C3A 8441   4.769   5.046   9.119 -0.1439 -0.0235 -0.2516
  528loPI   C4A 8442   4.788   5.026   8.591 -0.1493  0.1249  0.2418
  528loPI   C5A 8443   4.638   4.745   8.259 -0.0128  0.0750 -0.3009
  528loPI   C6A 8444   4.761   4.328   8.005 -0.2157 -0.0820 -0.0199
  528loPI   C1B 8445   5.139   4.601   9.871 -0.1041 -0.3024  0.0769
  528loPI   C2B 8446   5.172   4.613   9.419 -0.0926  0.1982 -0.0531
  528loPI   C3B 8447   5.077   4.613   9.015  0.1713  0.1147 -0.2803
  528loPI   C4B 8448   5.056   4.570   8.554 -0.1857  0.2183 -0.2869
  529loPI    C1 8449  16.218   6.240  10.616  0.4689  0.0215  0.0817
  529loPI    C2 8450  16.450   6.339  10.305  0.1342  0.0012 -0.1816
  529loPI    C3 8451  16.488   5.979  10.478  0.3432  0.0244 -0.1759
  529loPI   PO4 8452  15.994   6.234  10.431 -0.0899  0.0840  0.1719
  529loPI   GL1 8453  15.929   6.469  10.146  0.3170 -0.1018 -0.3576
  529loPI   GL2 8454  16.153   6.522   9.882 -0.0517  0.1264  0.0465
  529loPI   C1A 8455  15.577   6.319   9.798 -0.0923  0.0756 -0.0998
  529loPI   C2A 8456  15.626   6.195   9.352  0.3127 -0.0521  0.0037
  529loPI   C3A 8457  15.494   6.245   8.887 -0.0845  0.0470 -0.1688
  529loPI   C4A 8458  15.554   6.316   8.503 -0.3683 -0.1689 -0.0974
  529loPI   C5A 8459  15.650   6.334   8.095  0.1286 -0.0155  0.0134
  529loPI   C6A 8460  15.656   6.254   7.629 -0.1464 -0.3077  0.0588
  529loPI   C1B 8461  16.150   6.345   9.492  0.1478  0.2846  0.0067
  529loPI   C2B 8462  16.066   6.249   9.011 -0.0463 -0.1577 -0.3019
  529loPI   C3B 8463  16.094   6.305   8.555 -0.0256 -0.4344 -0.3359
  529loPI   C4B 8464  16.144   6.453   8.123 -0.2934  0.1824  0.3329
  530loPI    C1 8465   4.367   3.869  10.928  0.2661 -0.3339 -0.0362
  530loPI    C2 8466   4.655   3.635  11.076  0.3164 -0.0966  0.2514
  530loPI    C3 8467   4.680   4.032  11.115  0.1533 -0.0486 -0.0903
  530loPI   PO4 8468   4.313   3.751  10.732 -0.0059 -0.0325 -0.2292
  530loPI   GL1 8469   4.130   3.983  10.427 -0.3011 -0.2044 -0.4323
  530loPI   GL2 8470   4.049   4.295  10.278 -0.1396 -0.0977 -0.2145
  530loPI   C1A 8471   4.223   3.977   9.988  0.0054  0.1423  0.1918
  530loPI   C2A 8472   4.397   4.122   9.602  0.1981  0.1379 -0.1087
  530loPI   C3A 8473   4.328   4.110   9.174  0.1434 -0.2053 -0.1063
  530loPI   C4A 8474   4.320   4.143   8.744  0.0816 -0.2186 -0.2111
  530loPI   C5A 8475   4.350   4.250   8.356  0.0218 -0.0820 -0.2127
  530loPI   C6A 8476   4.106   4.565   8.047 -0.2358  0.2793 -0.1792
  530loPI   C1B 8477   4.352   4.482   9.948 -0.0230 -0.1183 -0.1360
  530loPI   C2B 8478   4.552   4.691   9.570 -0.0681 -0.1044  0.0753
  530loPI   C3B 8479   4.509   4.624   9.064  0.5328 -0.1777 -0.0086
  530loPI   C4B 8480   4.560   4.538   8.712 -0.0829  0.1537 -0.1929
  531loPI    C1 8481   0.253  11.521  10.506  0.1111 -0.0126  0.1428
  531loPI    C2 8482   0.090  11.739  10.798 -0.0216 -0.0881  0.1257
  531loPI    C3 8483   0.275  11.395  10.885  0.0796 -0.0310  0.1385
  531loPI   PO4 8484   0.082  11.447  10.300  0.2333  0.0727 -0.2799
  531loPI   GL1 8485  -0.001  11.315   9.883 -0.1077  0.0412  0.3909
  531loPI   GL2 8486  -0.146  11.067   9.917  0.2648 -0.3002 -0.3833
  531loPI   C1A 8487   0.017  11.181   9.447  0.2222 -0.0978 -0.1510
  531loPI   C2A 8488   0.043  11.206   9.011 -0.0564  0.0876 -0.0607
  531loPI   C3A 8489  -0.018  11.159   8.591  0.0969 -0.0579  0.0948
  531loPI   C4A 8490   0.040  11.247   8.073 -0.2279 -0.0696 -0.0558
  531loPI   C5A 8491  -0.328  11.280   7.651  0.0962  0.2507 -0.2501
  531loPI   C6A 8492  -0.400  11.215   7.208  0.0600 -0.1826 -0.0391
  531loPI   C1B 8493  -0.120  10.718   9.640 -0.1214 -0.1512 -0.0643
  531loPI   C2B 8494  -0.209  10.706   9.245  0.1434 -0.0827 -0.0417
  531loPI   C3B 8495  -0.234  10.724   8.861 -0.1735  0.2905 -0.1669
  531loPI   C4B 8496  -0.196  10.645   8.394 -0.1154  0.0855  0.3476
  532loPI    C1 8497   7.549   9.766  10.975 -0.0571 -0.0885 -0.1385
  532loPI    C2 8498   7.402   9.456  10.769 -0.0325 -0.1473 -0.0680
  532loPI    C3 8499   7.387   9.455  11.169 -0.3949  0.1211 -0.0759
  532loPI   PO4 8500   7.661   9.909  10.808 -0.2229 -0.1767 -0.3402
  532loPI   GL1 8501   7.682   9.815  10.397 -0.1448 -0.0435 -0.1238
  532loPI   GL2 8502   7.621   9.479  10.267 -0.1103 -0.3489  0.0251
  532loPI   C1A 8503   7.739   9.918   9.969  0.0402 -0.3085  0.0612
  532loPI   C2A 8504   7.806   9.976   9.479  0.2618  0.1374  0.2478
  532loPI   C3A 8505   7.792  10.030   8.932 -0.0197 -0.0623  0.2343
  532loPI   C4A 8506   7.920   9.965   8.523  0.2190 -0.2421 -0.2169
  532loPI   C5A 8507   8.074   9.821   8.102 -0.2909 -0.1390 -0.0297
  532loPI   C6A 8508   8.020   9.837   7.707 -0.0168  0.1912  0.2137
  532loPI   C1B 8509   7.565   9.400   9.876 -0.1402  0.2005  0.1246
  532loPI   C2B 8510   7.596   9.366   9.422 -0.1188  0.1228 -0.2236
  532loPI   C3B 8511   7.623   9.501   9.138  0.2071  0.1825  0.1905
  532loPI   C4B 8512   7.723   9.550   8.716 -0.0017  0.1078  0.2850
  533loPI    C1 8513  15.393  17.671  10.531 -0.1741  0.3046  0.0120
  533loPI    C2 8514  15.697  17.821  10.743  0.2300 -0.3096 -0.1059
  533loPI    C3 8515  15.359  17.711  10.927  0.2171  0.0267  0.0793
  533loPI   PO4 8516  15.223  17.888  10.409  0.1398  0.3104  0.1109
  533loPI   GL1 8517  14.867  18.003  10.254  0.0307 -0.0093  0.0636
  533loPI   GL2 8518  14.662  18.187  10.436 -0.2198  0.1962  0.1429
  533loPI   C1A 8519  14.795  17.980   9.860 -0.1663 -0.1702 -0.0890
  533loPI   C2A 8520  14.765  18.025   9.490  0.1514 -0.3538  0.1384
  533loPI   C3A 8521  14.819  18.103   9.044 -0.1345  0.3111 -0.0208
  533loPI   C4A 8522  14.735  18.029   8.693  0.0059  0.1304  0.1467
  533loPI   C5A 8523  14.702  17.887   8.297  0.1342  0.0423 -0.1152
  533loPI   C6A 8524  14.504  17.761   7.909 -0.0151 -0.2609  0.0377
  533loPI   C1B 8525  14.539  18.381  10.023 -0.0716 -0.0133 -0.2455
  533loPI   C2B 8526  14.514  18.427   9.666  0.2237 -0.0424  0.0693
  533loPI   C3B 8527  14.460  18.422   9.254  0.1882  0.1954 -0.1258
  533loPI   C4B 8528  14.533  18.442   8.841 -0.2188 -0.0342  0.2024
  534loPI    C1 8529   9.620  17.674  10.744 -0.2765 -0.0769  0.2343
  534loPI    C2 8530   9.853  17.898  10.980 -0.0772 -0.1023  0.0646
  534loPI    C3 8531   9.588  18.073  10.736 -0.2382 -0.0734  0.2576
  534loPI   PO4 8532   9.696  17.394  10.754 -0.1011  0.3501 -0.0031
  534loPI   GL1 8533   9.929  17.117  10.343 -0.3000 -0.2485 -0.1779
  534loPI   GL2 8534   9.757  16.719  10.261  0.2124  0.0177 -0.0207
  534loPI   C1A 8535   9.924  17.061   9.917  0.1340  0.1440  0.0250
  534loPI   C2A 8536   9.890  17.005   9.465  0.0549 -0.0673 -0.1636
  534loPI   C3A 8537  10.044  16.976   9.085  0.1246 -0.0400 -0.3135
  534loPI   C4A 8538   9.996  16.992   8.688 -0.0572  0.2257  0.1164
  534loPI   C5A 8539  10.169  17.189   8.317 -0.1465  0.1079 -0.0783
  534loPI   C6A 8540  10.402  17.522   8.245 -0.0873  0.0063  0.2335
  534loPI   C1B 8541   9.715  16.614   9.925  0.0828  0.0600 -0.1817
  534loPI   C2B 8542   9.699  16.577   9.517  0.0672  0.0259 -0.0078
  534loPI   C3B 8543   9.737  16.543   9.131  0.1417  0.2039  0.1154
  534loPI   C4B 8544   9.810  16.544   8.745  0.1200  0.3696 -0.0653
  535loPI    C1 8545  13.613  13.238  10.993 -0.0828  0.1284 -0.0801
  535loPI    C2 8546  13.998  13.162  11.067 -0.0862  0.0040 -0.1862
  535loPI    C3 8547  13.746  13.232  11.370  0.0007 -0.0053 -0.1112
  535loPI   PO4 8548  13.473  13.067  10.775 -0.2872 -0.1257 -0.0598
  535loPI   GL1 8549  13.231  13.056  10.495 -0.0541  0.0785 -0.1257
  535loPI   GL2 8550  13.036  12.838  10.393  0.1187 -0.0173  0.2652
  535loPI   C1A 8551  13.474  12.991  10.083  0.1113  0.1652  0.1351
  535loPI   C2A 8552  13.641  12.958   9.803  0.0921 -0.0508  0.0636
  535loPI   C3A 8553  13.552  12.808   9.378  0.3025 -0.1002  0.2290
  535loPI   C4A 8554  13.493  12.846   9.032 -0.0743  0.1210  0.2735
  535loPI   C5A 8555  13.641  12.952   8.604 -0.0292  0.1822  0.2804
  535loPI   C6A 8556  13.676  13.180   8.253  0.3238  0.0772 -0.0472
  535loPI   C1B 8557  13.029  12.906   9.947 -0.5392 -0.1502 -0.2171
  535loPI   C2B 8558  13.076  12.827   9.534 -0.1525 -0.0859 -0.6229
  535loPI   C3B 8559  12.981  12.703   9.123  0.0514 -0.5122  0.0286
  535loPI   C4B 8560  13.085  12.795   8.746  0.1528 -0.1404 -0.0991
  536loPI    C1 8561   1.808  12.831  10.613 -0.0743  0.0879 -0.0362
  536loPI    C2 8562   2.098  12.746  10.875 -0.0047  0.0858 -0.1136
  536loPI    C3 8563   1.930  13.109  10.873  0.1258  0.1467 -0.1900
  536loPI   PO4 8564   1.719  12.668  10.556  0.1620  0.0052 -0.0062
  536loPI   GL1 8565   1.715  12.405  10.046 -0.1758  0.0178  0.0905
  536loPI   GL2 8566   1.979  12.228  10.029 -0.0170 -0.0453 -0.2776
  536loPI   C1A 8567   1.534  12.097   9.807  0.4629  0.1068  0.2803
  536loPI   C2A 8568   1.689  12.005   9.445  0.3085  0.0049 -0.1263
  536loPI   C3A 8569   1.784  11.908   9.016 -0.1624  0.0658  0.0685
  536loPI   C4A 8570   1.866  11.787   8.540 -0.3582  0.1343 -0.2336
  536loPI   C5A 8571   1.924  11.556   8.156 -0.0175 -0.0655  0.1909
  536loPI   C6A 8572   1.626  11.329   7.890 -0.2700 -0.4853 -0.1596
  536loPI   C1B 8573   1.942  12.486   9.644 -0.1072 -0.2832 -0.2179
  536loPI   C2B 8574   1.972  12.366   9.056 -0.1923  0.0568 -0.1711
  536loPI   C3B 8575   2.082  12.224   8.684  0.2220  0.1255 -0.0425
  536loPI   C4B 8576   1.947  12.071   8.197 -0.3028 -0.0605 -0.0960
  537loPI    C1 8577  16.005   8.035  10.852 -0.1063 -0.0689 -0.1501
  537loPI    C2 8578  15.714   8.183  11.084 -0.0649 -0.0259 -0.1254
  537loPI    C3 8579  16.089   8.166  11.220 -0.0473 -0.0373 -0.1747
  537loPI   PO4 8580  15.903   7.886  10.710  0.1282 -0.0289  0.0601
  537loPI   GL1 8581  15.838   7.819  10.275  0.2066  0.0601 -0.2728
  537loPI   GL2 8582  15.598   7.991  10.307  0.1480  0.0052  0.2481
  537loPI   C1A 8583  15.869   7.742   9.797 -0.0099 -0.0687  0.0074
  537loPI   C2A 8584  15.706   7.730   9.323  0.0395 -0.0247 -0.2036
  537loPI   C3A 8585  15.593   7.651   8.909 -0.1251 -0.0599  0.0978
  537loPI   C4A 8586  15.650   7.644   8.517 -0.1036 -0.2038  0.2910
  537loPI   C5A 8587  15.734   7.656   8.160 -0.2458 -0.2018  0.2590
  537loPI   C6A 8588  15.701   7.984   7.773  0.1562  0.2916 -0.0128
  537loPI   C1B 8589  15.601   8.107   9.837 -0.0431 -0.0443  0.1719
  537loPI   C2B 8590  15.439   8.104   9.483  0.0463  0.1090  0.1996
  537loPI   C3B 8591  15.331   8.060   9.048  0.1958 -0.1988 -0.1107
  537loPI   C4B 8592  15.257   8.045   8.631 -0.0798 -0.1010 -0.1033
  538loPI    C1 8593   1.860  14.024  10.220 -0.1728  0.1034 -0.0762
  538loPI    C2 8594   2.029  13.883  10.555 -0.1479 -0.2293 -0.2245
  538loPI    C3 8595   2.159  14.225  10.393 -0.1036 -0.1105  0.0570
  538loPI   PO4 8596   1.792  13.823  10.068 -0.0351 -0.0256 -0.0230
  538loPI   GL1 8597   1.838  13.771   9.672  0.1806  0.2381  0.1487
  538loPI   GL2 8598   2.264  13.778   9.656  0.2602  0.1417 -0.5014
  538loPI   C1A 8599   1.959  13.785   9.242  0.0208  0.1554 -0.4082
  538loPI   C2A 8600   2.036  13.837   8.869  0.4086 -0.1177 -0.1593
  538loPI   C3A 8601   1.978  13.724   8.380 -0.2866  0.2925  0.0264
  538loPI   C4A 8602   1.820  13.974   8.031  0.1822 -0.1303 -0.1107
  538loPI   C5A 8603   2.030  14.335   7.702  0.0736 -0.1141  0.2370
  538loPI   C6A 8604   2.248  14.664   7.448  0.0336  0.0056 -0.3540
  538loPI   C1B 8605   2.461  13.788   9.329  0.0013 -0.0589  0.0653
  538loPI   C2B 8606   2.528  13.946   8.829 -0.1715 -0.1091  0.0520
  538loPI   C3B 8607   2.657  14.318   8.535  0.0715  0.2213  0.1814
  538loPI   C4B 8608   2.874  14.510   8.193 -0.2571  0.4028  0.0153
  539loPI    C1 8609  14.646  15.786  10.856  0.0581 -0.1335  0.1664
  539loPI    C2 8610  14.584  15.500  11.129  0.0002 -0.2525  0.0298
  539loPI    C3 8611  14.956  15.590  11.015  0.0588  0.1098  0.4758
  539loPI   PO4 8612  14.533  15.771  10.729 -0.1329 -0.3001 -0.2294
  539loPI   GL1 8613  14.301  15.825  10.371 -0.1805  0.0435  0.0082
  539loPI   GL2 8614  14.016  16.021  10.262 -0.1224 -0.5115  0.0090
  539loPI   C1A 8615  14.391  15.781   9.937  0.3131  0.2406 -0.0969
  539loPI   C2A 8616  14.319  15.751   9.477 -0.0397  0.0451  0.1989
  539loPI   C3A 8617  14.296  15.650   9.070 -0.0544 -0.0343 -0.1112
  539loPI   C4A 8618  14.217  15.753   8.640  0.2964  0.1919 -0.1299
  539loPI   C5A 8619  14.163  15.717   8.264  0.0292 -0.0736 -0.1136
  539loPI   C6A 8620  14.356  15.895   7.973 -0.0493 -0.1763  0.2132
  539loPI   C1B 8621  14.017  16.115   9.892 -0.0387  0.0334  0.0318
  539loPI   C2B 8622  13.928  16.160   9.497 -0.0568 -0.0520  0.2021
  539loPI   C3B 8623  14.074  16.087   9.153  0.0563  0.1082 -0.1199
  539loPI   C4B 8624  14.040  16.108   8.832 -0.0186  0.0715 -0.1812
  540loPI    C1 8625  15.564  15.613  10.465  0.0749  0.0709  0.1721
  540loPI    C2 8626  15.451  15.949  10.280  0.2150 -0.1097 -0.2541
  540loPI    C3 8627  15.298  15.856  10.637 -0.0668  0.2448 -0.2775
  540loPI   PO4 8628  15.691  15.521  10.247  0.0564 -0.1305  0.1372
  540loPI   GL1 8629  15.743  15.293   9.958  0.1009  0.2340 -0.1711
  540loPI   GL2 8630  15.577  14.986  10.044  0.2389  0.0839  0.0165
  540loPI   C1A 8631  15.838  15.351   9.578  0.0600 -0.3481  0.2399
  540loPI   C2A 8632  15.751  15.293   9.217 -0.0354 -0.1715 -0.0495
  540loPI   C3A 8633  15.544  15.423   8.836  0.0703  0.0121  0.2069
  540loPI   C4A 8634  15.629  15.129   8.593 -0.2956 -0.1084  0.3424
  540loPI   C5A 8635  15.478  15.014   8.093 -0.0322 -0.0952  0.1392
  540loPI   C6A 8636  15.290  15.254   7.730  0.0340 -0.1500  0.1731
  540loPI   C1B 8637  15.502  14.837   9.701 -0.2167 -0.0304  0.0826
  540loPI   C2B 8638  15.532  14.788   9.341 -0.1866 -0.1654 -0.0743
  540loPI   C3B 8639  15.434  14.858   8.947 -0.0387 -0.0782  0.1473
  540loPI   C4B 8640  15.448  14.704   8.480  0.3059 -0.1032 -0.1056
  541loPI    C1 8641  11.905   1.704  10.844  0.0560 -0.0819  0.1552
  541loPI    C2 8642  11.815   1.390  10.613 -0.2449  0.1164 -0.0039
  541loPI    C3 8643  11.756   1.371  11.008  0.0091 -0.1256  0.0258
  541loPI   PO4 8644  12.061   1.923  10.673 -0.0588 -0.0158  0.1000
  541loPI   GL1 8645  11.862   1.808  10.193  0.2769  0.1037  0.1204
  541loPI   GL2 8646  12.157   1.750  10.233  0.1653 -0.0533  0.2447
  541loPI   C1A 8647  11.694   1.663   9.804  0.3759 -0.1319  0.0232
  541loPI   C2A 8648  11.631   1.696   9.413 -0.1627  0.1654 -0.1396
  541loPI   C3A 8649  11.786   1.531   8.952 -0.1492 -0.4065 -0.2241
  541loPI   C4A 8650  11.662   1.571   8.533  0.1183 -0.4230 -0.0356
  541loPI   C5A 8651  11.334   1.444   8.245 -0.2250 -0.2666  0.0684
  541loPI   C6A 8652  11.016   1.175   8.142  0.3030  0.0790 -0.0777
  541loPI   C1B 8653  12.239   1.821   9.760  0.0295 -0.0845 -0.1157
  541loPI   C2B 8654  12.179   1.744   9.293 -0.0866 -0.1556  0.3400
  541loPI   C3B 8655  12.272   1.627   8.855  0.1333  0.2359  0.3103
  541loPI   C4B 8656  12.166   1.623   8.394 -0.0196 -0.0016  0.1686
  542loPI    C1 8657   4.104  17.802  10.751 -0.2266  0.1584 -0.0398
  542loPI    C2 8658   4.361  17.955  11.017 -0.1779 -0.0695  0.0467
  542loPI    C3 8659   4.010  17.808  11.140 -0.2901  0.1107 -0.0543
  542loPI   PO4 8660   4.110  17.941  10.549 -0.1020 -0.0082  0.2787
  542loPI   GL1 8661   4.125  18.215  10.143 -0.1901  0.0307 -0.2661
  542loPI   GL2 8662   4.445  18.269   9.945  0.1493  0.1763  0.0660
  542loPI   C1A 8663   3.839  18.191   9.771 -0.1541 -0.0677 -0.2390
  542loPI   C2A 8664   3.877  18.238   9.292 -0.1422 -0.1721 -0.1488
  542loPI   C3A 8665   3.942  18.260   8.788  0.0297 -0.2202  0.1155
  542loPI   C4A 8666   4.076  18.241   8.356  0.1999  0.1952 -0.2418
  542loPI   C5A 8667   4.088  17.974   7.949  0.2654 -0.0909  0.2032
  542loPI   C6A 8668   3.789  17.531   7.758  0.1656  0.0472 -0.1408
  542loPI   C1B 8669   4.344  18.150   9.559 -0.0563  0.0226  0.1301
  542loPI   C2B 8670   4.368  18.148   9.067 -0.1031  0.1830  0.2345
  542loPI   C3B 8671   4.460  18.266   8.654  0.1640 -0.2259  0.1032
  542loPI   C4B 8672   4.609  18.318   8.331  0.1702 -0.1060 -0.2886
  543loPI    C1 8673   6.255  15.618  10.896  0.1256  0.0413 -0.0600
  543loPI    C2 8674   6.410  15.589  11.264 -0.1445 -0.1245  0.0436
  543loPI    C3 8675   6.014  15.615  11.215 -0.1043  0.0126 -0.2313
  543loPI   PO4 8676   6.492  15.694  10.727  0.0722 -0.0553  0.2895
  543loPI   GL1 8677   6.630  15.815  10.345  0.3629  0.0895 -0.0958
  543loPI   GL2 8678   6.785  15.679  10.211 -0.0298  0.0485 -0.2269
  543loPI   C1A 8679   6.462  16.069   9.962  0.0405  0.0049  0.0246
  543loPI   C2A 8680   6.592  16.288   9.523  0.3979 -0.0240 -0.1687
  543loPI   C3A 8681   6.628  16.228   9.109  0.1721  0.2666  0.0168
  543loPI   C4A 8682   6.572  16.161   8.725 -0.0169  0.3002 -0.0071
  543loPI   C5A 8683   6.700  16.076   8.234 -0.3289 -0.3425  0.0078
  543loPI   C6A 8684   7.085  15.924   7.930  0.2614 -0.2099 -0.0387
  543loPI   C1B 8685   6.892  15.741   9.782  0.1130 -0.1229  0.1065
  543loPI   C2B 8686   6.894  15.910   9.386 -0.0109 -0.0761  0.1009
  543loPI   C3B 8687   6.887  15.820   8.943 -0.0421  0.4374 -0.1049
  543loPI   C4B 8688   7.016  15.602   8.624 -0.0844  0.1148 -0.0664
  544loPI    C1 8689   3.298   8.932  10.864  0.1249  0.0501 -0.2648
  544loPI    C2 8690   3.522   9.255  10.793  0.0956  0.1802  0.1993
  544loPI    C3 8691   3.601   9.022  11.109 -0.0634 -0.1060  0.0326
  544loPI   PO4 8692   3.280   8.867  10.587 -0.1383 -0.0033 -0.0867
  544loPI   GL1 8693   3.465   9.117  10.094 -0.3330  0.0347 -0.1340
  544loPI   GL2 8694   3.537   9.340  10.285  0.2180  0.0492  0.4168
  544loPI   C1A 8695   3.457   8.997   9.622 -0.2155 -0.1945 -0.3097
  544loPI   C2A 8696   3.485   8.997   9.213  0.2391  0.1346 -0.2405
  544loPI   C3A 8697   3.498   8.920   8.768 -0.1976  0.3152  0.0056
  544loPI   C4A 8698   3.468   8.774   8.432  0.3314  0.0222  0.1853
  544loPI   C5A 8699   3.584   8.931   7.974  0.0507 -0.0502 -0.0481
  544loPI   C6A 8700   4.045   9.125   7.810 -0.0553  0.0969 -0.2084
  544loPI   C1B 8701   3.650   9.473   9.794 -0.0254  0.0878  0.0695
  544loPI   C2B 8702   3.644   9.484   9.322 -0.0352  0.0679  0.0598
  544loPI   C3B 8703   3.728   9.372   8.846 -0.0594 -0.0154  0.3079
  544loPI   C4B 8704   3.654   9.245   8.378 -0.1119  0.0570  0.1096
  545loPI    C1 8705  11.768   2.350  10.907  0.1688  0.2669 -0.0122
  545loPI    C2 8706  11.562   2.633  11.101 -0.2871 -0.1132  0.0773
  545loPI    C3 8707  11.897   2.485  11.261 -0.0317  0.3805  0.0194
  545loPI   PO4 8708  11.705   2.447  10.634  0.2599  0.0729  0.1429
  545loPI   GL1 8709  11.785   2.771  10.374  0.1053 -0.0251 -0.0138
  545loPI   GL2 8710  12.086   2.763  10.407  0.0275  0.0778 -0.3248
  545loPI   C1A 8711  11.715   2.775   9.902  0.1759  0.0890 -0.0428
  545loPI   C2A 8712  11.571   2.559   9.570 -0.0081  0.0077  0.3464
  545loPI   C3A 8713  11.631   2.450   9.073 -0.0142  0.3127  0.1225
  545loPI   C4A 8714  11.559   2.413   8.655 -0.0239 -0.1022  0.1634
  545loPI   C5A 8715  11.449   2.493   8.226 -0.0241  0.0582 -0.0147
  545loPI   C6A 8716  11.522   2.425   7.719  0.2243 -0.0345  0.2030
  545loPI   C1B 8717  12.183   2.807   9.971 -0.0227  0.0759 -0.0516
  545loPI   C2B 8718  12.061   2.600   9.537 -0.0532 -0.2813 -0.2065
  545loPI   C3B 8719  12.118   2.643   9.145  0.1970  0.0251 -0.0926
  545loPI   C4B 8720  12.026   2.480   8.744 -0.3503 -0.1519  0.3833
  546loPI    C1 8721  15.391   2.844  10.958  0.1454 -0.1380 -0.1993
  546loPI    C2 8722  15.277   2.517  11.157 -0.0103  0.0190 -0.0272
  546loPI    C3 8723  15.202   2.880  11.309 -0.0278  0.1391 -0.3172
  546loPI   PO4 8724  15.271   2.798  10.707 -0.1769 -0.1399  0.0474
  546loPI   GL1 8725  15.294   2.948  10.242 -0.1230 -0.0580  0.0087
  546loPI   GL2 8726  15.408   2.703  10.044 -0.1210 -0.0624  0.2542
  546loPI   C1A 8727  15.101   3.000   9.834 -0.0428  0.0934 -0.0194
  546loPI   C2A 8728  15.068   3.118   9.389 -0.0020  0.2271  0.1475
  546loPI   C3A 8729  15.086   3.129   8.932 -0.0316  0.0646  0.0046
  546loPI   C4A 8730  15.101   3.131   8.545  0.1358 -0.2657  0.2057
  546loPI   C5A 8731  15.142   3.079   8.100  0.0230  0.1757  0.0868
  546loPI   C6A 8732  14.978   3.128   7.720 -0.1691  0.0750  0.0656
  546loPI   C1B 8733  15.420   2.676   9.655  0.0434 -0.1623  0.1901
  546loPI   C2B 8734  15.428   2.825   9.120 -0.1344 -0.0654 -0.1749
  546loPI   C3B 8735  15.506   2.809   8.755  0.4109 -0.1646  0.0021
  546loPI   C4B 8736  15.472   2.667   8.304  0.0924  0.2498  0.3784
  547loPI    C1 8737  15.119   0.389  10.756 -0.1735  0.0653 -0.0909
  547loPI    C2 8738  14.774   0.486  10.934 -0.0835 -0.2854  0.2886
  547loPI    C3 8739  15.092   0.386  11.155  0.2543 -0.0085 -0.0577
  547loPI   PO4 8740  15.087   0.234  10.529  0.3568  0.0857  0.0377
  547loPI   GL1 8741  15.113   0.219  10.134  0.0733 -0.0093 -0.0749
  547loPI   GL2 8742  15.275  -0.049  10.048 -0.0250 -0.1985 -0.1176
  547loPI   C1A 8743  14.991   0.332   9.823  0.0144  0.0159  0.0295
  547loPI   C2A 8744  14.925   0.292   9.391 -0.1617  0.4612 -0.3961
  547loPI   C3A 8745  14.971   0.342   9.026  0.0469  0.2105  0.0138
  547loPI   C4A 8746  14.945   0.337   8.553  0.4228  0.0239  0.1691
  547loPI   C5A 8747  14.606   0.668   8.286  0.2319 -0.0812 -0.1163
  547loPI   C6A 8748  14.521   1.033   7.882  0.1241  0.1493 -0.3051
  547loPI   C1B 8749  15.265  -0.161   9.597  0.1826  0.0193 -0.1968
  547loPI   C2B 8750  15.239  -0.076   9.277  0.0305  0.2473 -0.1540
  547loPI   C3B 8751  15.298  -0.028   8.833 -0.1790  0.0791 -0.2525
  547loPI   C4B 8752  15.205  -0.184   8.377 -0.2281  0.0536 -0.0195
  548loPI    C1 8753  15.218  15.187  10.420  0.0395  0.0439 -0.1272
  548loPI    C2 8754  15.518  15.036  10.637  0.0188 -0.0535 -0.1658
  548loPI    C3 8755  15.266  14.791  10.446 -0.1756  0.0238 -0.0122
  548loPI   PO4 8756  15.098  15.347  10.544  0.0480  0.0673  0.1323
  548loPI   GL1 8757  14.844  15.755  10.356 -0.1019 -0.2794  0.2061
  548loPI   GL2 8758  14.882  15.931  10.118  0.1374  0.2162  0.0994
  548loPI   C1A 8759  14.727  15.362  10.003 -0.0940  0.0804  0.1183
  548loPI   C2A 8760  14.647  15.314   9.635  0.1613  0.1844 -0.1081
  548loPI   C3A 8761  14.618  15.280   9.222 -0.2737 -0.0450  0.2957
  548loPI   C4A 8762  14.652  15.204   8.684  0.0364  0.5201 -0.0931
  548loPI   C5A 8763  14.564  15.296   8.231 -0.2800 -0.2113 -0.2716
  548loPI   C6A 8764  14.648  15.071   7.867 -0.0880  0.1787  0.4194
  548loPI   C1B 8765  14.889  15.741   9.687  0.0593  0.0894 -0.0128
  548loPI   C2B 8766  14.847  15.766   9.259 -0.0981  0.0138 -0.0305
  548loPI   C3B 8767  14.694  15.712   8.856 -0.0503  0.0406  0.3570
  548loPI   C4B 8768  14.644  15.736   8.388 -0.0084 -0.4047  0.0202
  549loPI    C1 8769   2.549  11.212  10.769 -0.1024  0.0338  0.1035
  549loPI    C2 8770   2.866  11.390  10.936  0.0257 -0.0836 -0.0116
  549loPI    C3 8771   2.601  11.197  11.165  0.0667 -0.0319  0.0797
  549loPI   PO4 8772   2.504  11.371  10.521 -0.1394 -0.2293 -0.1998
  549loPI   GL1 8773   2.658  11.577  10.231 -0.1142  0.0960 -0.0179
  549loPI   GL2 8774   2.355  11.633  10.051 -0.0085  0.2307  0.1169
  549loPI   C1A 8775   2.924  11.265   9.862 -0.1057  0.1075 -0.0653
  549loPI   C2A 8776   2.880  11.146   9.330 -0.0424  0.0463 -0.5116
  549loPI   C3A 8777   2.961  10.962   8.946 -0.0545 -0.0900 -0.2644
  549loPI   C4A 8778   3.058  11.026   8.565 -0.1055 -0.0093 -0.0515
  549loPI   C5A 8779   3.220  11.117   8.029  0.1838  0.2684 -0.0328
  549loPI   C6A 8780   3.635  11.026   7.861 -0.1183 -0.3284 -0.3026
  549loPI   C1B 8781   2.499  11.519   9.590 -0.2045 -0.0337  0.1359
  549loPI   C2B 8782   2.702  11.595   9.166  0.0312  0.0858 -0.0990
  549loPI   C3B 8783   2.687  11.390   8.772  0.3422 -0.0940  0.2426
  549loPI   C4B 8784   2.766  11.480   8.339  0.0869  0.2448 -0.2538
  550loPI    C1 8785  14.347  17.315  11.014 -0.3036 -0.0487 -0.0267
  550loPI    C2 8786  14.414  16.979  11.220 -0.2004 -0.0285 -0.0262
  550loPI    C3 8787  14.389  17.329  11.411 -0.3247 -0.0376 -0.0249
  550loPI   PO4 8788  14.139  17.225  10.849 -0.0353 -0.0379  0.2633
  550loPI   GL1 8789  14.140  16.969  10.453  0.0496  0.0604 -0.1915
  550loPI   GL2 8790  14.402  16.926  10.204  0.2569 -0.0758 -0.2905
  550loPI   C1A 8791  13.865  17.019  10.137 -0.2396 -0.0394  0.1472
  550loPI   C2A 8792  13.938  16.976   9.598  0.1108 -0.1510 -0.1888
  550loPI   C3A 8793  13.987  16.953   9.191  0.2315 -0.0720  0.1344
  550loPI   C4A 8794  13.884  16.946   8.750  0.1329  0.4310 -0.4248
  550loPI   C5A 8795  14.065  16.930   8.267  0.1088 -0.1989  0.1077
  550loPI   C6A 8796  14.533  17.177   8.131 -0.0950 -0.0260  0.1026
  550loPI   C1B 8797  14.375  17.056   9.961  0.1332  0.1010  0.1212
  550loPI   C2B 8798  14.449  17.044   9.563  0.2845  0.1543 -0.2601
  550loPI   C3B 8799  14.460  17.010   9.079 -0.2675 -0.1070 -0.2649
  550loPI   C4B 8800  14.299  17.067   8.672 -0.1227  0.0002  0.2963
  551loPI    C1 8801   4.058  13.527  10.807 -0.2486  0.0435  0.2948
  551loPI    C2 8802   4.422  13.556  10.971 -0.1117 -0.1529  0.0351
  551loPI    C3 8803   4.205  13.224  11.024 -0.1863 -0.1015  0.0542
  551loPI   PO4 8804   4.048  13.457  10.550 -0.0689  0.0759  0.0955
  551loPI   GL1 8805   4.082  13.153  10.181 -0.2975  0.2891  0.0264
  551loPI   GL2 8806   4.339  13.334  10.126  0.1400  0.0324 -0.1261
  551loPI   C1A 8807   3.787  13.075   9.876 -0.0992  0.2219  0.0793
  551loPI   C2A 8808   3.709  13.158   9.413  0.1759 -0.2642  0.1495
  551loPI   C3A 8809   3.739  13.221   8.975 -0.1070 -0.0660 -0.0840
  551loPI   C4A 8810   3.857  13.186   8.556 -0.0716  0.1052 -0.0770
  551loPI   C5A 8811   3.898  12.970   8.185  0.1124  0.0620  0.0462
  551loPI   C6A 8812   4.177  12.782   7.751  0.3601 -0.2059  0.2029
  551loPI   C1B 8813   4.215  13.228   9.653  0.2370 -0.0870  0.3143
  551loPI   C2B 8814   4.239  13.322   9.209  0.3816  0.2200 -0.0748
  551loPI   C3B 8815   4.340  13.261   8.793  0.1906  0.1114 -0.0815
  551loPI   C4B 8816   4.371  13.101   8.389 -0.5190  0.3420  0.0079
  552loPI    C1 8817  12.011   7.388  10.974  0.0090  0.1392 -0.4224
  552loPI    C2 8818  11.901   7.676  10.720  0.0032  0.4955 -0.0272
  552loPI    C3 8819  12.179   7.750  10.997  0.0680  0.0894  0.0218
  552loPI   PO4 8820  12.009   7.140  10.776 -0.1855 -0.0090  0.0972
  552loPI   GL1 8821  12.140   7.186  10.446  0.1643 -0.1601 -0.0388
  552loPI   GL2 8822  12.243   6.917  10.176 -0.1347  0.0090  0.1757
  552loPI   C1A 8823  12.085   7.387   9.996 -0.5387  0.1484  0.2563
  552loPI   C2A 8824  12.101   7.319   9.601  0.2903 -0.5575  0.0839
  552loPI   C3A 8825  11.968   7.227   9.199  0.3385  0.1324 -0.2417
  552loPI   C4A 8826  12.151   7.230   8.775 -0.0011 -0.0394  0.0291
  552loPI   C5A 8827  12.098   7.052   8.465 -0.2145 -0.0497 -0.0378
  552loPI   C6A 8828  11.945   6.919   8.185  0.1015 -0.0627 -0.2555
  552loPI   C1B 8829  12.420   6.881   9.800 -0.1827 -0.5065  0.0286
  552loPI   C2B 8830  12.420   6.906   9.268  0.0719 -0.1367 -0.1665
  552loPI   C3B 8831  12.449   6.810   8.772  0.3427  0.0580 -0.0098
  552loPI   C4B 8832  12.461   6.735   8.276 -0.1206  0.0949 -0.0459
  553loPI    C1 8833  17.586   3.138   9.806  0.0727  0.1037 -0.2684
  553loPI    C2 8834  17.868   3.418   9.858  0.1702 -0.0372 -0.0194
  553loPI    C3 8835  17.619   3.327  10.158 -0.0726  0.0100 -0.2038
  553loPI   PO4 8836  17.500   3.217   9.581  0.1405 -0.1799  0.0342
  553loPI   GL1 8837  17.397   3.442   9.248  0.1918  0.1173 -0.0297
  553loPI   GL2 8838  17.371   3.705   9.176  0.0504 -0.2581  0.1845
  553loPI   C1A 8839  17.346   3.273   8.810  0.1522  0.0860 -0.4977
  553loPI   C2A 8840  17.461   3.046   8.421 -0.3647 -0.1833  0.2200
  553loPI   C3A 8841  17.403   2.868   8.091 -0.0371 -0.1697  0.2002
  553loPI   C4A 8842  17.110   2.605   7.947 -0.3496  0.0061 -0.1753
  553loPI   C5A 8843  17.035   2.297   7.669 -0.2682  0.0466 -0.4130
  553loPI   C6A 8844  16.859   2.318   7.219 -0.0914 -0.0957  0.0826
  553loPI   C1B 8845  17.508   4.108   8.959  0.5032  0.3046 -0.1814
  553loPI   C2B 8846  17.583   4.292   8.607 -0.1580  0.0393 -0.2426
  553loPI   C3B 8847  17.625   4.113   8.253 -0.1811 -0.0168 -0.2833
  553loPI   C4B 8848  17.638   3.959   7.839 -0.0012 -0.1554 -0.0744
  554loPI    C1 8849  10.476   7.624  10.989 -0.0910 -0.0120  0.1317
  554loPI    C2 8850  10.383   7.252  11.104 -0.1650 -0.0407 -0.0185
  554loPI    C3 8851  10.165   7.561  11.233 -0.5034 -0.1118 -0.4010
  554loPI   PO4 8852  10.569   7.522  10.687 -0.1568 -0.1273  0.1533
  554loPI   GL1 8853  10.524   7.706  10.336 -0.2352  0.1109  0.0476
  554loPI   GL2 8854  10.754   7.449  10.206  0.1294 -0.1794  0.2772
  554loPI   C1A 8855  10.258   7.437  10.043 -0.0345 -0.0437 -0.0029
  554loPI   C2A 8856  10.122   7.450   9.636  0.0767 -0.4659 -0.3526
  554loPI   C3A 8857  10.194   7.555   9.256 -0.0507  0.0327  0.1333
  554loPI   C4A 8858  10.236   7.560   8.835 -0.2404 -0.0484  0.1522
  554loPI   C5A 8859  10.228   7.484   8.373  0.2516 -0.1397  0.1900
  554loPI   C6A 8860  10.414   7.177   8.184  0.0053  0.4376  0.0573
  554loPI   C1B 8861  10.679   7.545   9.841 -0.0814  0.0129 -0.3963
  554loPI   C2B 8862  10.682   7.566   9.462  0.0160  0.1945 -0.2746
  554loPI   C3B 8863  10.676   7.568   9.028  0.2021  0.0094  0.2986
  554loPI   C4B 8864  10.645   7.376   8.607  0.2646 -0.3719  0.2395
  555loPI    C1 8865  17.375   8.709  10.800  0.1337  0.0789  0.0140
  555loPI    C2 8866  17.119   8.601  11.087 -0.0340 -0.2306 -0.2462
  555loPI    C3 8867  17.454   8.391  11.029  0.1173 -0.0257 -0.1240
  555loPI   PO4 8868  17.242   8.733  10.552  0.1046 -0.1355 -0.1161
  555loPI   GL1 8869  17.384   8.553  10.111 -0.0041 -0.1451 -0.1549
  555loPI   GL2 8870  17.551   8.348  10.046 -0.1847 -0.2647 -0.2597
  555loPI   C1A 8871  17.249   8.711   9.749  0.0446 -0.0586 -0.0797
  555loPI   C2A 8872  17.275   8.817   9.338  0.2552 -0.0382 -0.2193
  555loPI   C3A 8873  17.169   8.769   8.884 -0.2152 -0.0583  0.1832
  555loPI   C4A 8874  17.113   8.740   8.525 -0.0657  0.1072 -0.3131
  555loPI   C5A 8875  17.122   8.688   8.089  0.1055  0.2075  0.2459
  555loPI   C6A 8876  17.262   9.170   7.836  0.0269  0.2540  0.0898
  555loPI   C1B 8877  17.586   8.401   9.630  0.0816 -0.0336  0.0430
  555loPI   C2B 8878  17.576   8.450   9.210 -0.1714 -0.1307  0.0812
  555loPI   C3B 8879  17.442   8.335   8.773  0.1190  0.0606  0.1204
  555loPI   C4B 8880  17.463   8.359   8.333  0.0676  0.1528 -0.2333
  556loPI    C1 8881  17.923  15.075  10.050  0.1385 -0.1492 -0.3141
  556loPI    C2 8882  18.159  15.196  10.348 -0.0370  0.0557 -0.2557
  556loPI    C3 8883  17.982  14.838  10.367 -0.2247  0.1585 -0.0065
  556loPI   PO4 8884  18.097  15.143   9.849 -0.1597  0.1382  0.1533
  556loPI   GL1 8885  18.200  14.993   9.490 -0.1701  0.1995  0.5721
  556loPI   GL2 8886  18.120  14.651   9.509  0.0406  0.1703  0.0141
  556loPI   C1A 8887  18.052  14.955   9.071 -0.3475  0.0207  0.0951
  556loPI   C2A 8888  17.979  15.161   8.632 -0.2650 -0.0788 -0.0784
  556loPI   C3A 8889  17.873  15.255   8.255  0.0129  0.2268 -0.0204
  556loPI   C4A 8890  17.658  15.137   7.836 -0.1836  0.1279  0.2563
  556loPI   C5A 8891  17.572  14.844   7.621  0.0371  0.0050  0.0081
  556loPI   C6A 8892  17.550  14.863   7.075 -0.0100  0.0820  0.1154
  556loPI   C1B 8893  18.486  14.618   9.255 -0.1782 -0.0320  0.4005
  556loPI   C2B 8894  18.320  14.712   8.767  0.0361 -0.1597 -0.2050
  556loPI   C3B 8895  18.399  14.797   8.353 -0.0989  0.1291 -0.4820
  556loPI   C4B 8896  18.327  15.030   8.048  0.3142 -0.0416 -0.1001
  557loPI    C1 8897   9.814   9.193  10.879 -0.0330  0.2924  0.1370
  557loPI    C2 8898   9.774   8.962  11.204  0.1789  0.3161  0.1813
  557loPI    C3 8899  10.038   9.263  11.204  0.1658  0.3286 -0.0061
  557loPI   PO4 8900   9.906   9.008  10.733 -0.0871  0.4432 -0.0574
  557loPI   GL1 8901  10.072   8.999  10.253  0.0527  0.0750  0.1408
  557loPI   GL2 8902  10.282   8.970  10.302  0.0621 -0.1266  0.3652
  557loPI   C1A 8903   9.875   9.201   9.841 -0.0787  0.0280 -0.0496
  557loPI   C2A 8904   9.914   9.234   9.450 -0.0839 -0.1315 -0.0076
  557loPI   C3A 8905  10.058   9.190   9.022  0.0020 -0.2021 -0.1024
  557loPI   C4A 8906   9.887   9.299   8.577  0.0326 -0.0059 -0.1156
  557loPI   C5A 8907   9.973   9.119   8.233  0.2582  0.0773  0.0306
  557loPI   C6A 8908  10.372   9.069   8.047  0.0074 -0.1225 -0.0386
  557loPI   C1B 8909  10.231   8.876   9.812  0.3497 -0.0561 -0.5876
  557loPI   C2B 8910  10.232   8.836   9.346 -0.5498  0.0353 -0.3305
  557loPI   C3B 8911  10.371   8.784   8.961  0.2324  0.0192  0.0904
  557loPI   C4B 8912  10.368   8.988   8.616  0.3408 -0.1167 -0.0635
  558loPI    C1 8913  11.546   9.813  10.924 -0.1827 -0.0316 -0.0065
  558loPI    C2 8914  11.260  10.084  10.992 -0.2118 -0.0903  0.1071
  558loPI    C3 8915  11.479   9.943  11.296 -0.0131  0.0081  0.0112
  558loPI   PO4 8916  11.510   9.649  10.858  0.2389 -0.0032  0.0886
  558loPI   GL1 8917  11.481   9.352  10.617  0.3051 -0.6572 -0.0952
  558loPI   GL2 8918  11.152   9.380  10.495 -0.0247  0.1200  0.0670
  558loPI   C1A 8919  11.368   8.990  10.273 -0.3084 -0.0974  0.0602
  558loPI   C2A 8920  11.223   8.984   9.850 -0.0646 -0.1660  0.1057
  558loPI   C3A 8921  11.259   9.040   9.455  0.3073 -0.1929  0.1827
  558loPI   C4A 8922  11.281   8.922   9.049  0.0295  0.0366  0.1207
  558loPI   C5A 8923  11.322   8.841   8.629  0.0727 -0.0519  0.5140
  558loPI   C6A 8924  11.337   9.120   8.330 -0.1119 -0.0818 -0.3439
  558loPI   C1B 8925  11.082   9.391  10.075  0.3812  0.1844 -0.2049
  558loPI   C2B 8926  10.918   9.376   9.627 -0.1558  0.1978 -0.1040
  558loPI   C3B 8927  11.033   9.339   9.165 -0.2215 -0.0992  0.1481
  558loPI   C4B 8928  11.007   9.477   8.758 -0.3787  0.1880  0.1804
  559loPI    C1 8929   0.772   4.054  10.499  0.0988  0.0168  0.1534
  559loPI    C2 8930   0.415   3.878  10.453  0.0841  0.1494 -0.2921
  559loPI    C3 8931   0.469   4.150  10.742 -0.0615 -0.1474  0.0215
  559loPI   PO4 8932   0.869   3.974  10.186 -0.0565 -0.0192  0.0089
  559loPI   GL1 8933   1.069   3.874   9.697 -0.1009 -0.0683 -0.1617
  559loPI   GL2 8934   1.302   3.952   9.914 -0.1551  0.0263 -0.0180
  559loPI   C1A 8935   1.177   3.725   9.225  0.3511  0.2681 -0.0971
  559loPI   C2A 8936   1.059   3.326   8.851  0.1275  0.0224 -0.2111
  559loPI   C3A 8937   1.028   3.467   8.408 -0.1887 -0.0370 -0.2696
  559loPI   C4A 8938   1.055   3.456   8.041 -0.1503  0.2625  0.1091
  559loPI   C5A 8939   1.132   2.999   7.823  0.0468 -0.0138  0.2115
  559loPI   C6A 8940   1.476   2.727   7.691 -0.1999  0.1411  0.3389
  559loPI   C1B 8941   1.577   3.880   9.485 -0.1977 -0.1186  0.2458
  559loPI   C2B 8942   1.644   3.802   9.013 -0.0416 -0.1228  0.0231
  559loPI   C3B 8943   1.749   3.934   8.642 -0.0469 -0.0776  0.2944
  559loPI   C4B 8944   1.844   4.142   8.263 -0.1837  0.0104 -0.0958
  560loPI    C1 8945  16.559   5.410  10.699  0.1063  0.1093 -0.4537
  560loPI    C2 8946  16.671   5.026  10.698  0.0380  0.0882 -0.2852
  560loPI    C3 8947  16.761   5.259  11.010 -0.2626  0.1069 -0.2090
  560loPI   PO4 8948  16.532   5.449  10.497 -0.0647  0.0636  0.1585
  560loPI   GL1 8949  16.422   5.426  10.087 -0.1414  0.0300 -0.1934
  560loPI   GL2 8950  16.154   5.254  10.191  0.0897 -0.0548  0.2040
  560loPI   C1A 8951  16.270   5.479   9.737 -0.2062 -0.1416  0.2058
  560loPI   C2A 8952  16.103   5.433   9.421 -0.3157  0.0978  0.1868
  560loPI   C3A 8953  16.142   5.457   8.994 -0.3843  0.3409 -0.0762
  560loPI   C4A 8954  16.160   5.454   8.503 -0.0690  0.0270  0.0811
  560loPI   C5A 8955  16.253   5.556   8.052  0.1678  0.1706  0.2722
  560loPI   C6A 8956  16.207   5.539   7.565 -0.0766 -0.1179 -0.3224
  560loPI   C1B 8957  15.987   5.020   9.745 -0.2216  0.2628  0.1606
  560loPI   C2B 8958  15.940   4.982   9.376 -0.3816  0.4243 -0.0590
  560loPI   C3B 8959  15.855   4.869   9.009 -0.0731 -0.2680  0.0025
  560loPI   C4B 8960  15.905   4.951   8.550 -0.2850  0.2276  0.0139
  561loPI    C1 8961  16.255   7.547  10.600 -0.0941 -0.2806  0.0183
  561loPI    C2 8962  16.455   7.856  10.756  0.0719 -0.2284 -0.2901
  561loPI    C3 8963  16.548   7.483  10.865  0.0859 -0.1860 -0.1552
  561loPI   PO4 8964  16.276   7.529  10.319 -0.4020  0.1989  0.1716
  561loPI   GL1 8965  16.348   7.708  10.013 -0.0249  0.3895  0.0219
  561loPI   GL2 8966  16.407   7.969  10.243 -0.3111  0.3152 -0.2212
  561loPI   C1A 8967  16.299   7.746   9.530 -0.0469 -0.1814  0.0693
  561loPI   C2A 8968  16.220   7.843   9.237  0.0475 -0.1105  0.0895
  561loPI   C3A 8969  16.104   7.771   8.770 -0.1067  0.0821  0.1180
  561loPI   C4A 8970  16.124   7.757   8.431 -0.0427 -0.2316 -0.0294
  561loPI   C5A 8971  16.368   7.509   8.138  0.0267  0.2166  0.0195
  561loPI   C6A 8972  16.452   7.234   7.806  0.1622  0.2026 -0.2034
  561loPI   C1B 8973  16.556   8.145   9.964  0.2989  0.1159  0.0659
  561loPI   C2B 8974  16.496   8.230   9.558  0.0041 -0.1471 -0.4175
  561loPI   C3B 8975  16.561   8.229   9.101  0.1536  0.1132 -0.0004
  561loPI   C4B 8976  16.383   8.250   8.751 -0.1720 -0.0202  0.3928
  562loPI    C1 8977  14.388  11.604  10.866 -0.2764 -0.1322  0.0541
  562loPI    C2 8978  14.718  11.798  10.983 -0.3416 -0.1614  0.2909
  562loPI    C3 8979  14.360  11.914  11.117 -0.4013 -0.3067  0.2592
  562loPI   PO4 8980  14.464  11.477  10.680  0.0676 -0.0767  0.0210
  562loPI   GL1 8981  14.323  11.409  10.313  0.1777 -0.0726 -0.0514
  562loPI   GL2 8982  14.329  11.194  10.277 -0.1708  0.0474 -0.1273
  562loPI   C1A 8983  14.458  11.633   9.951  0.0361  0.1079  0.1769
  562loPI   C2A 8984  14.447  11.601   9.518  0.1842  0.1295  0.1059
  562loPI   C3A 8985  14.398  11.542   9.123  0.2185  0.1458 -0.0354
  562loPI   C4A 8986  14.516  11.518   8.684 -0.1865  0.1854 -0.2675
  562loPI   C5A 8987  14.585  11.607   8.279 -0.1751  0.0387 -0.1717
  562loPI   C6A 8988  14.709  11.702   7.866  0.0567  0.1026 -0.2019
  562loPI   C1B 8989  14.292  11.141   9.837  0.1677  0.0611  0.0963
  562loPI   C2B 8990  14.220  11.164   9.368  0.0955 -0.1136 -0.4568
  562loPI   C3B 8991  14.202  11.085   9.003  0.3039  0.3750  0.0748
  562loPI   C4B 8992  14.239  10.970   8.545 -0.1724 -0.0703 -0.0267
  563loPI    C1 8993  11.566  12.938  11.144  0.1942  0.1481 -0.1726
  563loPI    C2 8994  11.742  13.156  11.430  0.1189  0.0261 -0.0329
  563loPI    C3 8995  11.713  12.758  11.469 -0.0153  0.0239 -0.1448
  563loPI   PO4 8996  11.682  12.995  10.942  0.0488 -0.3021 -0.1462
  563loPI   GL1 8997  11.864  12.991  10.614  0.2261  0.0591 -0.0174
  563loPI   GL2 8998  11.999  13.262  10.440  0.2542  0.1814  0.0061
  563loPI   C1A 8999  11.904  12.817  10.159 -0.1319  0.0310 -0.1988
  563loPI   C2A 9000  12.002  12.803   9.725  0.1623 -0.0147 -0.2677
  563loPI   C3A 9001  12.014  12.672   9.364  0.1896 -0.0596 -0.1872
  563loPI   C4A 9002  12.004  12.693   8.908 -0.1103  0.2585  0.0824
  563loPI   C5A 9003  11.832  12.740   8.536 -0.0472  0.1025 -0.0846
  563loPI   C6A 9004  11.933  12.345   8.391 -0.0918  0.1844  0.2762
  563loPI   C1B 9005  12.197  13.254  10.012  0.1377 -0.0706  0.2743
  563loPI   C2B 9006  12.264  13.194   9.547  0.0707 -0.0764 -0.1845
  563loPI   C3B 9007  12.259  13.136   9.100  0.1305  0.3087 -0.0587
  563loPI   C4B 9008  12.165  13.069   8.677  0.0359 -0.0409 -0.2332
  564loPI    C1 9009  17.717  10.502  10.721 -0.1731  0.1166  0.2489
  564loPI    C2 9010  18.066  10.697  10.717 -0.0836 -0.0441 -0.0086
  564loPI    C3 9011  17.873  10.641  11.062  0.1997 -0.0515  0.1518
  564loPI   PO4 9012  17.732  10.355  10.514  0.3362  0.3147  0.1647
  564loPI   GL1 9013  17.757   9.955  10.166  0.0111 -0.0897  0.0069
  564loPI   GL2 9014  18.133   9.821  10.065 -0.1031 -0.1608 -0.1882
  564loPI   C1A 9015  17.633   9.748   9.756 -0.0737 -0.1497  0.2896
  564loPI   C2A 9016  17.607   9.669   9.439 -0.0175  0.0663 -0.0840
  564loPI   C3A 9017  17.569   9.677   9.012 -0.0850 -0.3573  0.0072
  564loPI   C4A 9018  17.508   9.706   8.614  0.0084  0.0015 -0.0439
  564loPI   C5A 9019  17.445   9.597   8.237  0.0370  0.0288 -0.0924
  564loPI   C6A 9020  17.636   9.510   7.981 -0.1978  0.2414  0.2211
  564loPI   C1B 9021  18.146   9.767   9.585 -0.2457 -0.1815 -0.2609
  564loPI   C2B 9022  18.173   9.725   9.117  0.0839  0.1254 -0.0577
  564loPI   C3B 9023  17.996   9.762   8.697 -0.3067  0.0229  0.2222
  564loPI   C4B 9024  17.902   9.698   8.328 -0.0670 -0.0447 -0.3681
  565loPI    C1 9025   4.485   1.473  10.518  0.0302 -0.2506  0.1305
  565loPI    C2 9026   4.884   1.441  10.516  0.0317 -0.2301  0.0610
  565loPI    C3 9027   4.710   1.768  10.668  0.0581 -0.0304 -0.3257
  565loPI   PO4 9028   4.438   1.268  10.244 -0.0641  0.0534 -0.1688
  565loPI   GL1 9029   4.351   1.040   9.951 -0.0600  0.1344 -0.1215
  565loPI   GL2 9030   4.074   1.121   9.916 -0.1157  0.1079  0.2332
  565loPI   C1A 9031   4.321   0.875   9.417  0.1229  0.1410  0.0513
  565loPI   C2A 9032   4.424   0.798   8.957  0.0639  0.0281  0.2972
  565loPI   C3A 9033   4.366   1.004   8.590  0.3567 -0.0853 -0.3525
  565loPI   C4A 9034   4.422   0.981   8.188  0.0564  0.0842 -0.3804
  565loPI   C5A 9035   4.249   1.030   7.878 -0.0451 -0.1404 -0.0066
  565loPI   C6A 9036   4.212   0.738   7.461 -0.2033  0.1537 -0.1686
  565loPI   C1B 9037   4.109   1.446   9.588 -0.0168  0.1617  0.2238
  565loPI   C2B 9038   4.057   1.423   9.169  0.0203 -0.0960 -0.3280
  565loPI   C3B 9039   4.072   1.399   8.720 -0.1743  0.0822 -0.4443
  565loPI   C4B 9040   4.169   1.473   8.266 -0.2476 -0.0843 -0.0072
  566loPI    C1 9041  16.148   9.580  10.826  0.0471 -0.1827 -0.1282
  566loPI    C2 9042  16.036   9.387  11.158  0.1453  0.1558  0.1072
  566loPI    C3 9043  16.354   9.629  11.165  0.1712  0.1368 -0.2460
  566loPI   PO4 9044  16.108   9.274  10.607  0.0472 -0.2487  0.0074
  566loPI   GL1 9045  16.194   9.424  10.305  0.2844 -0.0055  0.0104
  566loPI   GL2 9046  16.397   9.714  10.365 -0.0085  0.0488  0.1828
  566loPI   C1A 9047  16.150   9.441   9.912 -0.3009 -0.0359 -0.1065
  566loPI   C2A 9048  16.010   9.548   9.504  0.2983  0.0410  0.0612
  566loPI   C3A 9049  15.964   9.482   9.028 -0.1190  0.1539 -0.0844
  566loPI   C4A 9050  16.028   9.451   8.602 -0.1156 -0.2237 -0.0765
  566loPI   C5A 9051  15.925   9.545   8.235 -0.1551 -0.1531 -0.2084
  566loPI   C6A 9052  15.630   9.475   7.770 -0.0335 -0.2804 -0.1156
  566loPI   C1B 9053  16.279   9.910  10.017  0.0227 -0.3231  0.1072
  566loPI   C2B 9054  16.272  10.027   9.551  0.1063 -0.0069  0.1572
  566loPI   C3B 9055  16.109   9.933   9.191  0.2065 -0.1070 -0.0567
  566loPI   C4B 9056  16.157   9.962   8.731  0.3533  0.1079  0.0686
  567loPI    C1 9057  17.129  13.611  10.336 -0.1022  0.1484  0.0584
  567loPI    C2 9058  17.417  13.337  10.373 -0.2340 -0.0039 -0.0321
  567loPI    C3 9059  17.420  13.662  10.605 -0.1433 -0.1402  0.1609
  567loPI   PO4 9060  17.012  13.691  10.069 -0.1289  0.1345  0.1572
  567loPI   GL1 9061  16.897  13.415   9.729  0.1866  0.0806  0.1931
  567loPI   GL2 9062  16.658  13.153   9.703 -0.0568 -0.1646  0.0266
  567loPI   C1A 9063  17.081  13.458   9.309  0.1390  0.1807 -0.1460
  567loPI   C2A 9064  17.090  13.406   8.850  0.1052 -0.4119  0.4142
  567loPI   C3A 9065  17.060  13.363   8.384 -0.2707  0.3277 -0.3743
  567loPI   C4A 9066  17.045  13.126   8.034  0.2329  0.0314  0.2798
  567loPI   C5A 9067  16.812  12.938   7.725 -0.4537 -0.3048  0.3071
  567loPI   C6A 9068  16.879  12.812   7.296  0.0014 -0.1683  0.0397
  567loPI   C1B 9069  16.511  12.836   9.392 -0.2230  0.0073 -0.0199
  567loPI   C2B 9070  16.415  12.795   9.038  0.0608  0.5205  0.0979
  567loPI   C3B 9071  16.510  12.729   8.563 -0.0582 -0.2253 -0.0633
  567loPI   C4B 9072  16.536  12.977   8.196  0.0111 -0.0283  0.2170
  568loPI    C1 9073   1.750   5.546  10.700 -0.1975  0.1013 -0.0112
  568loPI    C2 9074   1.827   5.444  11.079 -0.4146 -0.2939 -0.0690
  568loPI    C3 9075   1.514   5.679  10.994  0.0027  0.3282  0.0503
  568loPI   PO4 9076   1.985   5.356  10.543  0.4272 -0.2861  0.0575
  568loPI   GL1 9077   2.012   5.366  10.139  0.2430 -0.2934 -0.3424
  568loPI   GL2 9078   2.176   5.155   9.883 -0.1905 -0.0464 -0.1887
  568loPI   C1A 9079   1.924   5.594   9.729 -0.0177  0.1878 -0.2100
  568loPI   C2A 9080   1.980   5.624   9.324  0.0809  0.0272  0.0966
  568loPI   C3A 9081   2.034   5.653   8.969 -0.1768  0.3625 -0.1670
  568loPI   C4A 9082   2.001   5.606   8.518  0.1722 -0.1716 -0.2537
  568loPI   C5A 9083   1.925   5.534   8.147  0.0684 -0.1952  0.2572
  568loPI   C6A 9084   2.226   5.359   7.917 -0.1470 -0.0071 -0.0204
  568loPI   C1B 9085   2.274   5.246   9.444  0.0722 -0.3440 -0.1437
  568loPI   C2B 9086   2.346   5.294   9.059 -0.1669  0.0169  0.0303
  568loPI   C3B 9087   2.308   5.191   8.728  0.3678 -0.0210 -0.1941
  568loPI   C4B 9088   2.307   5.097   8.340 -0.0501  0.2730 -0.0050
  569loPI    C1 9089  14.033  15.312  11.308  0.0412 -0.0420 -0.0918
  569loPI    C2 9090  14.110  15.575  11.600 -0.2339  0.1096 -0.1520
  569loPI    C3 9091  13.807  15.317  11.639 -0.0195 -0.1437 -0.1314
  569loPI   PO4 9092  14.059  15.467  11.096  0.1629  0.2109  0.3096
  569loPI   GL1 9093  14.172  15.427  10.681 -0.1382 -0.5020  0.0109
  569loPI   GL2 9094  13.928  15.495  10.563  0.0698 -0.1681 -0.1404
  569loPI   C1A 9095  14.271  15.320  10.259 -0.1202  0.1904  0.1236
  569loPI   C2A 9096  14.200  15.338   9.865  0.2319  0.2260 -0.0932
  569loPI   C3A 9097  14.147  15.277   9.430  0.1127 -0.6249 -0.3959
  569loPI   C4A 9098  14.121  15.178   9.003  0.1266  0.3917  0.2384
  569loPI   C5A 9099  14.124  15.184   8.494 -0.2833 -0.4018 -0.0351
  569loPI   C6A 9100  14.164  14.795   8.167 -0.2225  0.2569  0.2221
  569loPI   C1B 9101  13.799  15.517  10.134  0.0883 -0.2895 -0.0910
  569loPI   C2B 9102  13.883  15.663   9.769  0.2635  0.2652 -0.3574
  569loPI   C3B 9103  13.773  15.681   9.375  0.0433 -0.0532 -0.0933
  569loPI   C4B 9104  13.842  15.582   8.994 -0.1644 -0.0161 -0.1178
  570loPI    C1 9105   1.928   2.877  10.637  0.2136  0.2715  0.0666
  570loPI    C2 9106   1.974   2.709  10.997  0.2216 -0.1519 -0.1263
  570loPI    C3 9107   1.691   2.986  10.940  0.2498 -0.0490  0.2137
  570loPI   PO4 9108   2.060   2.764  10.526  0.1800 -0.4127 -0.0081
  570loPI   GL1 9109   2.446   2.864  10.308  0.2981  0.0659  0.0718
  570loPI   GL2 9110   2.218   3.057  10.107 -0.1483 -0.0739  0.1104
  570loPI   C1A 9111   2.759   2.934   9.967 -0.0118  0.1045 -0.1276
  570loPI   C2A 9112   2.751   3.015   9.509 -0.1591 -0.1199  0.0277
  570loPI   C3A 9113   2.824   3.010   9.099  0.0059 -0.0060 -0.1617
  570loPI   C4A 9114   2.837   3.020   8.689  0.2651  0.1229  0.0233
  570loPI   C5A 9115   2.931   3.025   8.265 -0.1909 -0.0704 -0.1195
  570loPI   C6A 9116   3.229   3.129   8.017 -0.0898 -0.0683 -0.6060
  570loPI   C1B 9117   2.266   2.920   9.606 -0.2272 -0.2236  0.0207
  570loPI   C2B 9118   2.334   2.966   9.145 -0.1891 -0.2373 -0.1827
  570loPI   C3B 9119   2.336   2.999   8.697 -0.3185 -0.0066  0.0677
  570loPI   C4B 9120   2.355   3.057   8.212 -0.1122  0.0885  0.1669
  571loPI    C1 9121   4.588  10.724  10.886  0.0267  0.0068  0.0464
  571loPI    C2 9122   4.839  11.013  11.002 -0.0611  0.0554  0.1168
  571loPI    C3 9123   4.799  10.682  11.223 -0.2266  0.1468  0.2258
  571loPI   PO4 9124   4.652  10.733  10.646 -0.0261 -0.1769  0.2229
  571loPI   GL1 9125   4.604  10.691  10.218  0.1568  0.4789  0.5847
  571loPI   GL2 9126   4.572  10.409  10.081 -0.2845 -0.1749 -0.0342
  571loPI   C1A 9127   5.004  10.688  10.013  0.0330  0.2079  0.0718
  571loPI   C2A 9128   5.179  10.557   9.669  0.0488 -0.2206 -0.0839
  571loPI   C3A 9129   5.121  10.572   9.289 -0.4083 -0.1682 -0.1949
  571loPI   C4A 9130   5.171  10.538   8.879  0.1686 -0.0989 -0.0774
  571loPI   C5A 9131   5.285  10.529   8.592  0.0544 -0.2091  0.3593
  571loPI   C6A 9132   5.704  10.717   8.514  0.0490 -0.0629  0.0709
  571loPI   C1B 9133   4.617  10.512   9.623 -0.0320 -0.0996  0.1113
  571loPI   C2B 9134   4.597  10.470   9.093  0.1344  0.1052  0.1313
  571loPI   C3B 9135   4.673  10.452   8.655 -0.0917  0.0225 -0.1227
  571loPI   C4B 9136   4.895  10.511   8.267 -0.0868 -0.0877  0.1915
  572loPI    C1 9137  17.921   8.493  10.843  0.1427 -0.1499  0.0456
  572loPI    C2 9138  18.300   8.608  10.902  0.1673 -0.1743 -0.0629
  572loPI    C3 9139  18.122   8.361  11.162  0.1924 -0.0816  0.0427
  572loPI   PO4 9140  17.833   8.599  10.685 -0.1861 -0.1894 -0.0321
  572loPI   GL1 9141  17.712   8.835  10.357 -0.0892  0.1525 -0.1943
  572loPI   GL2 9142  17.919   9.140  10.216  0.1785 -0.2548 -0.0326
  572loPI   C1A 9143  17.699   8.884   9.902 -0.1487 -0.0190  0.4510
  572loPI   C2A 9144  17.817   8.864   9.439 -0.1048 -0.0654 -0.0666
  572loPI   C3A 9145  17.741   8.853   8.960 -0.0883 -0.2423  0.1603
  572loPI   C4A 9146  17.581   8.793   8.560  0.1230  0.0876 -0.0707
  572loPI   C5A 9147  17.581   8.888   8.166  0.1099 -0.0645 -0.1693
  572loPI   C6A 9148  17.769   9.016   7.848 -0.2389  0.1500  0.1394
  572loPI   C1B 9149  17.939   9.375   9.844 -0.0560 -0.0607 -0.0068
  572loPI   C2B 9150  17.939   9.350   9.284  0.0303 -0.0702 -0.1158
  572loPI   C3B 9151  17.891   9.327   8.819 -0.0877 -0.2247  0.0444
  572loPI   C4B 9152  17.762   9.238   8.403 -0.0889 -0.1818  0.0989
  573loPI    C1 9153  15.813   7.411  10.942  0.2544  0.0559 -0.2077
  573loPI    C2 9154  15.760   7.694  11.220 -0.0873 -0.2299  0.0268
  573loPI    C3 9155  16.128   7.608  11.090  0.0832 -0.1255  0.4277
  573loPI   PO4 9156  15.501   7.503  10.727  0.0442  0.1384 -0.3688
  573loPI   GL1 9157  15.381   7.552  10.437  0.0978 -0.1863  0.1645
  573loPI   GL2 9158  15.080   7.720  10.410 -0.1360 -0.0400 -0.3287
  573loPI   C1A 9159  15.350   7.671  10.003 -0.3230 -0.1336  0.3721
  573loPI   C2A 9160  15.250   7.641   9.580 -0.0565 -0.1204  0.1447
  573loPI   C3A 9161  15.187   7.608   9.182  0.2239  0.0612 -0.0523
  573loPI   C4A 9162  15.058   7.562   8.885  0.0226 -0.0358  0.2097
  573loPI   C5A 9163  15.206   7.513   8.358 -0.2469  0.0073  0.3344
  573loPI   C6A 9164  15.238   7.768   7.999 -0.3554 -0.1246  0.0921
  573loPI   C1B 9165  15.089   8.064  10.110 -0.1228 -0.0143 -0.1217
  573loPI   C2B 9166  15.024   8.066   9.737 -0.2288  0.0943  0.2911
  573loPI   C3B 9167  14.889   8.053   9.387 -0.0196 -0.3261  0.0256
  573loPI   C4B 9168  14.805   7.993   8.937  0.0200 -0.0664  0.0317
  574loPI    C1 9169  16.317  11.268  10.801  0.0428  0.0339 -0.0474
  574loPI    C2 9170  16.688  11.414  10.835  0.1548 -0.2152 -0.1737
  574loPI    C3 9171  16.489  11.296  11.161  0.1659 -0.0347 -0.1002
  574loPI   PO4 9172  16.402  11.145  10.513  0.1001  0.0740  0.3474
  574loPI   GL1 9173  16.241  11.083  10.104 -0.1211  0.1323 -0.1928
  574loPI   GL2 9174  16.114  10.897  10.032  0.4385  0.0628 -0.0463
  574loPI   C1A 9175  16.356  11.231   9.680  0.2932  0.3914  0.0381
  574loPI   C2A 9176  16.378  11.379   9.249 -0.2757  0.4650 -0.0548
  574loPI   C3A 9177  16.355  11.299   8.813 -0.3509  0.3747 -0.4102
  574loPI   C4A 9178  16.382  11.294   8.494 -0.0005 -0.2006  0.1998
  574loPI   C5A 9179  16.074  11.198   8.126  0.1611  0.3300 -0.0521
  574loPI   C6A 9180  15.678  11.337   8.124 -0.0306 -0.1572  0.0106
  574loPI   C1B 9181  16.100  10.827   9.584  0.1330  0.1110  0.1232
  574loPI   C2B 9182  16.069  10.773   9.180 -0.0504  0.1372 -0.1445
  574loPI   C3B 9183  16.052  10.867   8.733  0.2156 -0.2360 -0.0827
  574loPI   C4B 9184  16.169  10.784   8.346  0.1453  0.1013 -0.1332
  575loPI    C1 9185   1.972   8.254  10.575  0.0348  0.3022  0.0401
  575loPI    C2 9186   2.025   8.357  10.958  0.0062  0.1877  0.0751
  575loPI    C3 9187   2.338   8.344  10.709  0.1032 -0.2033  0.2116
  575loPI   PO4 9188   1.748   8.494  10.461 -0.2550 -0.1480 -0.1159
  575loPI   GL1 9189   1.809   8.416  10.025 -0.2069 -0.0455 -0.1351
  575loPI   GL2 9190   1.940   8.782   9.997 -0.0341 -0.0186 -0.1312
  575loPI   C1A 9191   1.714   8.370   9.582  0.1702  0.2428 -0.0641
  575loPI   C2A 9192   1.709   8.280   9.229 -0.2986 -0.0177  0.0048
  575loPI   C3A 9193   1.629   8.295   8.791 -0.1413 -0.0641  0.0879
  575loPI   C4A 9194   1.641   8.204   8.378 -0.1484  0.0416  0.0187
  575loPI   C5A 9195   1.475   8.158   7.988  0.0068  0.3235 -0.2477
  575loPI   C6A 9196   1.054   8.230   7.943  0.0250  0.0866  0.2791
  575loPI   C1B 9197   2.044   8.816   9.587  0.4316  0.0103  0.3585
  575loPI   C2B 9198   1.867   8.771   9.187  0.1720  0.2720  0.0342
  575loPI   C3B 9199   1.933   8.743   8.747  0.2145  0.2138  0.0481
  575loPI   C4B 9200   1.891   8.630   8.231  0.3488 -0.1440 -0.2657
  576loPI    C1 9201   4.943  18.081  10.397 -0.0283 -0.0390 -0.2861
  576loPI    C2 9202   4.559  18.188  10.418  0.0077  0.0595 -0.1168
  576loPI    C3 9203   4.774  18.148  10.753  0.2043  0.2229 -0.2218
  576loPI   PO4 9204   4.941  17.891  10.307  0.0825 -0.2249  0.3323
  576loPI   GL1 9205   4.870  17.812   9.871  0.3726  0.0643  0.1899
  576loPI   GL2 9206   5.216  17.932   9.850  0.1878  0.0308 -0.1793
  576loPI   C1A 9207   4.840  17.825   9.386 -0.1999  0.0368  0.0615
  576loPI   C2A 9208   4.824  17.826   8.945 -0.0173 -0.2259  0.2543
  576loPI   C3A 9209   4.892  17.857   8.547 -0.0319 -0.1689  0.1276
  576loPI   C4A 9210   4.937  17.837   8.103  0.0728 -0.0216 -0.1444
  576loPI   C5A 9211   4.947  18.131   7.795  0.0963  0.0011  0.3112
  576loPI   C6A 9212   4.911  17.887   7.466  0.0635 -0.1861 -0.2299
  576loPI   C1B 9213   5.351  17.873   9.500  0.1994 -0.2047  0.1552
  576loPI   C2B 9214   5.344  17.830   9.072  0.1797  0.2605  0.0587
  576loPI   C3B 9215   5.386  17.903   8.638 -0.0613  0.0415  0.2597
  576loPI   C4B 9216   5.399  17.837   8.295  0.1816 -0.3402 -0.1215
  577loPI    C1 9217   2.377   1.708  10.467  0.1061  0.0387  0.3443
  577loPI    C2 9218   2.538   1.399  10.664  0.0840 -0.0901  0.1636
  577loPI    C3 9219   2.173   1.531  10.761  0.0796 -0.1426  0.2187
  577loPI   PO4 9220   2.633   1.731  10.292 -0.2148  0.0138 -0.2686
  577loPI   GL1 9221   2.576   1.978  10.033  0.3359 -0.1004  0.2312
  577loPI   GL2 9222   2.803   2.187  10.023  0.0012 -0.0809 -0.0836
  577loPI   C1A 9223   2.369   2.051   9.672 -0.2685 -0.4212  0.2951
  577loPI   C2A 9224   2.343   2.104   9.132  0.1530 -0.1780  0.0656
  577loPI   C3A 9225   2.451   2.086   8.736 -0.1345 -0.2203  0.1862
  577loPI   C4A 9226   2.495   2.120   8.240  0.1375 -0.0370 -0.0709
  577loPI   C5A 9227   2.424   2.336   7.808  0.1043 -0.3141 -0.1178
  577loPI   C6A 9228   2.763   2.573   7.571 -0.0579  0.2063 -0.2788
  577loPI   C1B 9229   2.906   2.078   9.702 -0.0795  0.1828 -0.0201
  577loPI   C2B 9230   2.879   2.126   9.244 -0.0022  0.1123 -0.5812
  577loPI   C3B 9231   3.055   2.178   8.795  0.1927 -0.2939 -0.0842
  577loPI   C4B 9232   2.853   2.244   8.500  0.0146 -0.0470 -0.2869
  578loPI    C1 9233  14.558   8.450  11.404 -0.0246 -0.0675  0.0094
  578loPI    C2 9234  14.642   8.171  11.130 -0.1293 -0.1415  0.0522
  578loPI    C3 9235  14.867   8.202  11.459  0.1229  0.0816 -0.1377
  578loPI   PO4 9236  14.505   8.741  11.200 -0.2333  0.0886 -0.0390
  578loPI   GL1 9237  14.381   9.003  10.805  0.0309 -0.0613 -0.1089
  578loPI   GL2 9238  14.248   8.822  10.650 -0.1677  0.1217 -0.1691
  578loPI   C1A 9239  14.339   9.303  10.383  0.0189  0.0441 -0.1776
  578loPI   C2A 9240  14.383   9.336  10.002 -0.2169 -0.0127 -0.0877
  578loPI   C3A 9241  14.466   9.354   9.519  0.0321 -0.1607  0.0509
  578loPI   C4A 9242  14.399   9.322   9.120 -0.0738  0.1221  0.0452
  578loPI   C5A 9243  14.435   9.352   8.568 -0.3231  0.1075  0.2729
  578loPI   C6A 9244  14.311   9.538   8.155  0.1985 -0.0771  0.0373
  578loPI   C1B 9245  14.195   8.935  10.168 -0.2390  0.3229  0.0042
  578loPI   C2B 9246  14.325   8.902   9.723  0.1352 -0.2528  0.5953
  578loPI   C3B 9247  14.252   8.861   9.265 -0.4137  0.1607 -0.1859
  578loPI   C4B 9248  14.248   8.854   8.920  0.0433  0.1355 -0.2038
  579loPI    C1 9249   6.680   5.716  11.063  0.0571  0.0007  0.0198
  579loPI    C2 9250   6.739   5.331  11.157 -0.1072 -0.0553 -0.1011
  579loPI    C3 9251   6.705   5.605  11.447  0.4879 -0.0543 -0.0194
  579loPI   PO4 9252   6.821   5.774  10.872 -0.1029 -0.2284  0.2485
  579loPI   GL1 9253   6.764   5.780  10.425 -0.1843 -0.2442 -0.0879
  579loPI   GL2 9254   6.492   5.771  10.282  0.0643 -0.1646 -0.0090
  579loPI   C1A 9255   6.926   5.753  10.023  0.0796 -0.2448  0.3844
  579loPI   C2A 9256   6.993   5.706   9.598 -0.1454 -0.2213 -0.0446
  579loPI   C3A 9257   7.119   5.796   9.083  0.1537 -0.0627  0.0871
  579loPI   C4A 9258   7.015   5.676   8.723  0.1610  0.4390  0.1380
  579loPI   C5A 9259   7.219   5.624   8.336 -0.0176 -0.0137 -0.0794
  579loPI   C6A 9260   7.481   5.211   8.252  0.0261  0.1476  0.2446
  579loPI   C1B 9261   6.492   5.753   9.871  0.0680 -0.2054  0.0208
  579loPI   C2B 9262   6.485   5.814   9.475  0.0092  0.0748  0.1349
  579loPI   C3B 9263   6.562   5.679   9.035 -0.2698 -0.0902  0.0272
  579loPI   C4B 9264   6.542   5.638   8.569 -0.1009  0.0888  0.1298
  580loPI    C1 9265   8.642   6.207  11.213  0.0031  0.2511  0.1099
  580loPI    C2 9266   8.380   6.248  11.513 -0.1958 -0.0342 -0.0201
  580loPI    C3 9267   8.772   6.284  11.584 -0.2538  0.1447  0.2249
  580loPI   PO4 9268   8.497   6.328  11.045 -0.2111  0.0079 -0.0571
  580loPI   GL1 9269   8.413   6.621  10.746  0.0258 -0.0733 -0.0220
  580loPI   GL2 9270   8.667   6.613  10.671  0.3559 -0.0671  0.0408
  580loPI   C1A 9271   8.314   6.759  10.289  0.2350  0.1712  0.0753
  580loPI   C2A 9272   8.319   6.873   9.760 -0.3171  0.1568 -0.0031
  580loPI   C3A 9273   8.502   6.758   9.348  0.1645 -0.1344 -0.5770
  580loPI   C4A 9274   8.521   6.758   8.891 -0.1892 -0.1820 -0.2112
  580loPI   C5A 9275   8.449   6.905   8.517  0.0347 -0.3253 -0.1207
  580loPI   C6A 9276   8.281   7.348   8.307  0.1299 -0.0428 -0.1358
  580loPI   C1B 9277   8.676   6.440  10.222  0.2476 -0.0553  0.2946
  580loPI   C2B 9278   8.682   6.510   9.795 -0.0606 -0.0245 -0.0392
  580loPI   C3B 9279   8.858   6.399   9.372  0.1946  0.1212 -0.1951
  580loPI   C4B 9280   8.908   6.343   8.941 -0.1807 -0.0367  0.3961
  581loPI    C1 9281  14.850   4.826  11.073  0.1410 -0.1337 -0.0035
  581loPI    C2 9282  14.747   4.504  11.287  0.3077 -0.1205  0.0987
  581loPI    C3 9283  15.025   4.755  11.426 -0.0759  0.2643  0.1903
  581loPI   PO4 9284  14.757   4.837  10.934  0.0134  0.1201  0.0909
  581loPI   GL1 9285  14.661   4.903  10.548  0.0193  0.1937 -0.1816
  581loPI   GL2 9286  14.553   4.648  10.517  0.0076 -0.3756  0.1991
  581loPI   C1A 9287  14.499   4.902  10.071 -0.2982 -0.2079  0.1723
  581loPI   C2A 9288  14.399   4.799   9.649  0.0934 -0.4575  0.1458
  581loPI   C3A 9289  14.429   4.768   9.197  0.2868 -0.2362 -0.0705
  581loPI   C4A 9290  14.315   4.748   8.864  0.0219  0.0125  0.3924
  581loPI   C5A 9291  14.391   4.904   8.485  0.0362  0.3439  0.0177
  581loPI   C6A 9292  14.355   5.162   8.105 -0.0272 -0.1416 -0.0405
  581loPI   C1B 9293  14.259   4.453  10.089  0.2843  0.2041  0.2374
  581loPI   C2B 9294  14.186   4.379   9.692 -0.0562  0.0608  0.2223
  581loPI   C3B 9295  14.165   4.301   9.242 -0.1543 -0.0894 -0.1063
  581loPI   C4B 9296  14.082   4.303   8.783 -0.1166 -0.0043  0.1760
  582loPI    C1 9297  17.245   5.140  10.318  0.0572 -0.0689  0.0533
  582loPI    C2 9298  17.553   5.225  10.559  0.0643  0.0854 -0.0087
  582loPI    C3 9299  17.218   5.066  10.711  0.1067  0.0863  0.0866
  582loPI   PO4 9300  17.418   5.043  10.124  0.0920  0.2120 -0.1813
  582loPI   GL1 9301  17.295   4.944   9.726 -0.0051 -0.1385 -0.0134
  582loPI   GL2 9302  16.958   4.891   9.874  0.0206  0.0455 -0.2120
  582loPI   C1A 9303  17.142   5.211   9.412  0.1003 -0.1365 -0.1347
  582loPI   C2A 9304  17.196   5.369   9.028 -0.2833 -0.0444  0.0750
  582loPI   C3A 9305  17.186   5.638   8.623  0.0788 -0.0244  0.2700
  582loPI   C4A 9306  16.963   5.911   8.283 -0.0116  0.1628  0.4607
  582loPI   C5A 9307  16.731   5.888   7.859 -0.0156  0.1325  0.3727
  582loPI   C6A 9308  16.601   6.136   7.575 -0.0591  0.0074 -0.0389
  582loPI   C1B 9309  16.909   4.784   9.439 -0.0283 -0.0964 -0.1669
  582loPI   C2B 9310  16.817   5.004   9.028 -0.2194  0.2571  0.1796
  582loPI   C3B 9311  16.996   5.148   8.572  0.1974  0.1459 -0.3118
  582loPI   C4B 9312  17.390   5.241   8.492  0.0235 -0.1649  0.2039
  583loPI    C1 9313   1.719   3.873  10.674 -0.0928 -0.0365  0.0223
  583loPI    C2 9314   2.001   3.593  10.721 -0.0848 -0.0253  0.0407
  583loPI    C3 9315   1.648   3.554  10.905 -0.0330  0.0464  0.1570
  583loPI   PO4 9316   1.705   3.918  10.387  0.2448 -0.0802 -0.2205
  583loPI   GL1 9317   1.792   3.982   9.937 -0.0965 -0.0134 -0.1362
  583loPI   GL2 9318   1.749   4.308   9.852  0.1158 -0.0704 -0.1286
  583loPI   C1A 9319   2.147   3.887   9.602 -0.0734  0.0715 -0.0215
  583loPI   C2A 9320   2.246   3.868   9.135 -0.4246  0.1053  0.4985
  583loPI   C3A 9321   2.200   3.790   8.566  0.0891  0.1010 -0.1875
  583loPI   C4A 9322   2.344   3.927   8.209  0.0454 -0.2373  0.2613
  583loPI   C5A 9323   2.341   4.362   8.025 -0.3067  0.2354 -0.1066
  583loPI   C6A 9324   2.288   4.827   7.929 -0.3785  0.1726  0.1214
  583loPI   C1B 9325   1.722   4.335   9.451  0.0386 -0.0906  0.1833
  583loPI   C2B 9326   1.841   4.248   9.093  0.0391  0.0473 -0.0912
  583loPI   C3B 9327   1.722   4.468   8.658 -0.1349 -0.0262 -0.2161
  583loPI   C4B 9328   1.572   4.628   8.378 -0.0764  0.1144  0.1804
  584loPI    C1 9329   3.820   5.136  10.646 -0.0851  0.1420 -0.1156
  584loPI    C2 9330   3.870   5.321  10.996 -0.0529  0.0573 -0.0752
  584loPI    C3 9331   4.147   5.357  10.710  0.1064 -0.1810  0.0457
  584loPI   PO4 9332   3.614   5.257  10.545 -0.1357  0.0931 -0.1657
  584loPI   GL1 9333   3.417   5.338  10.118  0.0976  0.0308 -0.3317
  584loPI   GL2 9334   3.163   5.364  10.055  0.3479 -0.0176  0.1380
  584loPI   C1A 9335   3.541   5.021   9.916 -0.0556  0.0516 -0.2875
  584loPI   C2A 9336   3.724   4.974   9.519  0.1260 -0.0606 -0.1333
  584loPI   C3A 9337   3.706   4.985   9.087 -0.2730 -0.4880 -0.0031
  584loPI   C4A 9338   3.578   4.892   8.657  0.2326  0.2789  0.0186
  584loPI   C5A 9339   3.679   4.954   8.224 -0.0636 -0.0677  0.1194
  584loPI   C6A 9340   3.651   4.723   7.852 -0.0044  0.2851 -0.1692
  584loPI   C1B 9341   3.279   5.400   9.609  0.2124 -0.0031 -0.1478
  584loPI   C2B 9342   3.458   5.358   9.262 -0.3481 -0.0499 -0.0751
  584loPI   C3B 9343   3.432   5.349   8.834  0.0983  0.1353  0.2956
  584loPI   C4B 9344   3.289   5.299   8.455 -0.1683  0.0070  0.1310
  585loPI    C1 9345   4.850   0.390  10.657  0.2603 -0.1643  0.2105
  585loPI    C2 9346   5.159   0.602  10.798  0.1276  0.0679  0.1560
  585loPI    C3 9347   4.949   0.367  11.044  0.2700  0.0054  0.2187
  585loPI   PO4 9348   4.879   0.378  10.425 -0.0896  0.1889 -0.0467
  585loPI   GL1 9349   4.898   0.201   9.997 -0.2718 -0.0008 -0.1486
  585loPI   GL2 9350   5.202   0.122  10.079  0.0793  0.3115  0.0536
  585loPI   C1A 9351   4.857   0.010   9.658 -0.0026  0.3108  0.0708
  585loPI   C2A 9352   5.051  -0.002   9.213 -0.3459  0.1657  0.0466
  585loPI   C3A 9353   4.989   0.094   8.757  0.1735 -0.2366  0.0031
  585loPI   C4A 9354   5.122   0.011   8.401 -0.1447  0.2804  0.1236
  585loPI   C5A 9355   5.013   0.299   8.091  0.0871  0.0921 -0.4371
  585loPI   C6A 9356   5.174   0.488   7.688  0.0731  0.0303 -0.1400
  585loPI   C1B 9357   5.335   0.177   9.594  0.0093  0.1197  0.0493
  585loPI   C2B 9358   5.530   0.069   9.165  0.1254  0.3779  0.0172
  585loPI   C3B 9359   5.564   0.137   8.765  0.1658  0.4235 -0.0442
  585loPI   C4B 9360   5.650   0.236   8.333  0.2960  0.0464 -0.2191
  586loPI    C1 9361   6.286   8.966  10.646  0.0326 -0.2015 -0.0146
  586loPI    C2 9362   6.451   8.808  10.975  0.1486 -0.0537 -0.0006
  586loPI    C3 9363   6.340   9.193  10.971 -0.0790 -0.1184 -0.0535
  586loPI   PO4 9364   6.416   8.939  10.447  0.2277 -0.1634  0.1154
  586loPI   GL1 9365   6.400   9.018   9.987  0.0388  0.0961 -0.3323
  586loPI   GL2 9366   6.265   9.297  10.139  0.0478  0.0491  0.2399
  586loPI   C1A 9367   6.331   8.889   9.529 -0.0710  0.1226  0.2054
  586loPI   C2A 9368   6.371   8.823   9.089  0.0655 -0.0536 -0.0120
  586loPI   C3A 9369   6.474   8.880   8.757 -0.3257 -0.2227  0.5089
  586loPI   C4A 9370   6.512   8.765   8.336 -0.0198 -0.6054 -0.1284
  586loPI   C5A 9371   6.389   9.058   8.021  0.0542  0.1993 -0.0506
  586loPI   C6A 9372   6.293   9.521   7.988 -0.3696  0.0501  0.2800
  586loPI   C1B 9373   6.575   9.328   9.682  0.0395 -0.2075 -0.0126
  586loPI   C2B 9374   6.601   9.275   9.186  0.3446  0.1755  0.1583
  586loPI   C3B 9375   6.719   9.333   8.850 -0.0451 -0.1490  0.0319
  586loPI   C4B 9376   6.619   9.275   8.398  0.0710  0.3416 -0.0884
  587loPI    C1 9377   4.735   6.909  10.844  0.1196  0.4731  0.0024
  587loPI    C2 9378   4.868   6.808  11.208  0.0978  0.2193 -0.0583
  587loPI    C3 9379   4.522   7.005  11.168  0.0266  0.1176  0.0506
  587loPI   PO4 9380   4.673   6.726  10.673 -0.0377  0.2079 -0.3217
  587loPI   GL1 9381   4.768   6.609  10.315 -0.0284  0.0839  0.1276
  587loPI   GL2 9382   4.902   6.235  10.297  0.0371  0.0890 -0.2574
  587loPI   C1A 9383   4.873   6.552   9.881  0.1215  0.0533  0.2305
  587loPI   C2A 9384   4.902   6.432   9.429 -0.0419 -0.1421 -0.1166
  587loPI   C3A 9385   4.807   6.423   8.974  0.0713  0.1100 -0.2598
  587loPI   C4A 9386   4.843   6.446   8.620  0.2715 -0.1879  0.1594
  587loPI   C5A 9387   4.616   6.484   8.254 -0.0266 -0.2092 -0.0489
  587loPI   C6A 9388   4.220   6.377   8.114  0.0203 -0.0420 -0.1598
  587loPI   C1B 9389   5.187   5.993   9.946  0.0901  0.0932 -0.2589
  587loPI   C2B 9390   5.254   5.984   9.440 -0.1024 -0.0708  0.0110
  587loPI   C3B 9391   5.136   6.035   8.986  0.0908 -0.1762  0.3834
  587loPI   C4B 9392   5.187   5.860   8.638 -0.2374 -0.0786 -0.1014
  588loPI    C1 9393  12.480   0.723  10.582 -0.1690  0.0111  0.0047
  588loPI    C2 9394  12.275   0.511  10.852 -0.1485  0.0986  0.0898
  588loPI    C3 9395  12.641   0.644  10.940 -0.0052 -0.1571 -0.1039
  588loPI   PO4 9396  12.514   0.593  10.398  0.1783 -0.0963 -0.0205
  588loPI   GL1 9397  12.550   0.555  10.017 -0.2168 -0.0806 -0.0320
  588loPI   GL2 9398  12.144   0.469  10.071 -0.1219  0.2531 -0.0498
  588loPI   C1A 9399  12.632   0.369   9.609  0.0545 -0.1876  0.3274
  588loPI   C2A 9400  12.679   0.348   9.166  0.3481  0.2052  0.1018
  588loPI   C3A 9401  12.643   0.346   8.631  0.0116  0.1951  0.1976
  588loPI   C4A 9402  12.618   0.259   8.232 -0.0250 -0.1976 -0.0121
  588loPI   C5A 9403  12.483   0.483   7.877  0.0186 -0.1243  0.1226
  588loPI   C6A 9404  12.389   0.493   7.435  0.1701 -0.1824 -0.1276
  588loPI   C1B 9405  12.105   0.408   9.663  0.2958  0.2186 -0.1375
  588loPI   C2B 9406  12.135   0.348   9.106  0.2343  0.0265 -0.0290
  588loPI   C3B 9407  12.139   0.368   8.634  0.1566 -0.1536 -0.0141
  588loPI   C4B 9408  12.063   0.360   8.164 -0.2293  0.1861 -0.0295
  589loPI    C1 9409   2.990  15.021  10.342  0.0146 -0.2082  0.0995
  589loPI    C2 9410   2.627  15.185  10.368 -0.0488 -0.3034 -0.1526
  589loPI    C3 9411   2.913  15.291  10.626 -0.2665 -0.2591  0.0747
  589loPI   PO4 9412   3.024  14.972  10.042 -0.2009 -0.2623  0.3479
  589loPI   GL1 9413   3.078  14.953   9.532 -0.0121 -0.5117 -0.0481
  589loPI   GL2 9414   3.420  14.963   9.664 -0.5445  0.2098 -0.1625
  589loPI   C1A 9415   3.098  15.034   9.109  0.4531 -0.4471 -0.1770
  589loPI   C2A 9416   3.128  15.169   8.738  0.0555  0.2074  0.2190
  589loPI   C3A 9417   3.315  15.383   8.458  0.0913 -0.1343 -0.0876
  589loPI   C4A 9418   3.504  15.473   8.047 -0.2501 -0.1736  0.1280
  589loPI   C5A 9419   3.424  15.709   7.588  0.2556 -0.3438 -0.2513
  589loPI   C6A 9420   3.420  15.751   7.213  0.3832  0.0428  0.0958
  589loPI   C1B 9421   3.502  14.893   9.288 -0.0041  0.2529 -0.0689
  589loPI   C2B 9422   3.549  14.874   8.815 -0.2827  0.0969 -0.0260
  589loPI   C3B 9423   3.691  15.039   8.593 -0.0918 -0.1229 -0.1199
  589loPI   C4B 9424   3.769  15.100   8.183  0.1134 -0.3462 -0.0993
  590loPI    C1 9425  15.055  11.399  10.806 -0.0306 -0.0246  0.2456
  590loPI    C2 9426  14.791  11.323  11.097 -0.0105 -0.0699  0.2521
  590loPI    C3 9427  15.180  11.364  11.184  0.0039 -0.1432  0.2237
  590loPI   PO4 9428  15.009  11.241  10.541  0.1903  0.2035  0.0776
  590loPI   GL1 9429  14.824  10.990  10.201  0.1396 -0.1862 -0.2985
  590loPI   GL2 9430  14.820  11.351  10.110 -0.0644 -0.1162  0.2510
  590loPI   C1A 9431  14.609  10.804   9.910  0.0260  0.1030  0.0131
  590loPI   C2A 9432  14.581  10.748   9.450 -0.1047  0.1698  0.1211
  590loPI   C3A 9433  14.561  10.718   8.996 -0.0254  0.0291  0.0143
  590loPI   C4A 9434  14.652  10.724   8.567 -0.2525 -0.1065 -0.1466
  590loPI   C5A 9435  14.606  10.490   8.211  0.0833 -0.0805  0.0503
  590loPI   C6A 9436  14.406  10.025   8.174  0.0627 -0.0628 -0.0643
  590loPI   C1B 9437  14.760  11.257   9.713  0.1202  0.0620  0.1897
  590loPI   C2B 9438  14.781  11.185   9.319  0.1232 -0.1838 -0.0437
  590loPI   C3B 9439  14.784  11.127   8.899 -0.2581  0.3884 -0.0708
  590loPI   C4B 9440  14.702  11.182   8.390  0.2859 -0.3381  0.2370
  591loPI    C1 9441   1.405   1.969  10.408  0.0793  0.0990 -0.0913
  591loPI    C2 9442   1.253   1.609  10.494 -0.0329  0.0916 -0.3137
  591loPI    C3 9443   1.077   1.940  10.634  0.0296  0.0639 -0.1677
  591loPI   PO4 9444   1.489   1.894  10.146  0.0522 -0.1128  0.4594
  591loPI   GL1 9445   1.548   2.262   9.814  0.0150 -0.1342 -0.0858
  591loPI   GL2 9446   1.764   2.066   9.789 -0.0753  0.2009  0.2421
  591loPI   C1A 9447   1.561   2.418   9.396  0.3438 -0.0835 -0.1595
  591loPI   C2A 9448   1.608   2.472   9.021 -0.0318 -0.1640 -0.1374
  591loPI   C3A 9449   1.692   2.420   8.604 -0.2178  0.0555 -0.2690
  591loPI   C4A 9450   1.619   2.553   8.209 -0.2568 -0.1408  0.0782
  591loPI   C5A 9451   1.803   2.350   7.820 -0.0705 -0.3028  0.3777
  591loPI   C6A 9452   1.896   2.103   7.440  0.1624  0.1316 -0.0824
  591loPI   C1B 9453   1.832   2.034   9.369  0.1023  0.0956 -0.2839
  591loPI   C2B 9454   1.861   1.942   8.960 -0.3550 -0.1396 -0.1576
  591loPI   C3B 9455   2.011   2.046   8.547 -0.2111 -0.2251 -0.2312
  591loPI   C4B 9456   1.948   1.961   8.153  0.1447 -0.1280  0.0061
  592loPI    C1 9457  13.648   8.935  10.963  0.1589 -0.0636  0.0828
  592loPI    C2 9458  14.026   8.844  11.057  0.0660 -0.2993  0.2384
  592loPI    C3 9459  13.743   8.838  11.340 -0.0133  0.1136  0.1739
  592loPI   PO4 9460  13.688   9.083  10.760 -0.4035  0.1221  0.3728
  592loPI   GL1 9461  13.718   8.991  10.288  0.1590 -0.1116  0.2179
  592loPI   GL2 9462  13.386   9.174  10.232  0.1925  0.1101 -0.1394
  592loPI   C1A 9463  13.735   8.918   9.836 -0.1584  0.1695  0.0625
  592loPI   C2A 9464  13.636   8.817   9.359 -0.0692 -0.3436 -0.0999
  592loPI   C3A 9465  13.748   8.825   8.939  0.0181 -0.2212  0.1554
  592loPI   C4A 9466  13.796   8.697   8.521  0.1696  0.0563  0.0378
  592loPI   C5A 9467  13.647   8.569   8.102  0.0069 -0.2386  0.0960
  592loPI   C6A 9468  14.012   8.515   7.893  0.1418 -0.2575 -0.5989
  592loPI   C1B 9469  13.468   9.333   9.831  0.0261  0.2048  0.2855
  592loPI   C2B 9470  13.435   9.285   9.372  0.1896  0.1169 -0.4845
  592loPI   C3B 9471  13.363   9.313   8.877  0.0319 -0.2203  0.0483
  592loPI   C4B 9472  13.452   9.125   8.513 -0.2946 -0.0039  0.1442
  593loPI    C1 9473   0.144  16.623  10.450  0.0248 -0.0988 -0.1437
  593loPI    C2 9474   0.475  16.608  10.674  0.0957 -0.0915 -0.2475
  593loPI    C3 9475   0.150  16.403  10.784  0.0932  0.0015 -0.0785
  593loPI   PO4 9476   0.282  16.795  10.282  0.0726 -0.1284  0.0179
  593loPI   GL1 9477   0.335  16.807   9.883  0.2004  0.2605 -0.0501
  593loPI   GL2 9478   0.127  16.610   9.835  0.1006  0.0364  0.1098
  593loPI   C1A 9479   0.589  17.136   9.561 -0.2491  0.0990  0.0667
  593loPI   C2A 9480   0.634  17.179   9.047 -0.1763  0.1142  0.1994
  593loPI   C3A 9481   0.614  17.314   8.692 -0.0755 -0.1668  0.1124
  593loPI   C4A 9482   0.784  17.481   8.301  0.0747  0.2803  0.3105
  593loPI   C5A 9483   0.911  17.313   7.961 -0.1211  0.2379  0.0093
  593loPI   C6A 9484   0.727  17.615   7.636 -0.1553  0.0774 -0.4838
  593loPI   C1B 9485   0.220  16.821   9.421 -0.0811 -0.2038 -0.0932
  593loPI   C2B 9486   0.233  16.841   8.985 -0.0082  0.0038  0.0855
  593loPI   C3B 9487   0.391  16.848   8.614  0.0824 -0.0865  0.4637
  593loPI   C4B 9488   0.383  16.735   8.191  0.0468 -0.0459  0.0004
  594loPI    C1 9489   2.331  14.797  10.592  0.2248  0.3528 -0.1274
  594loPI    C2 9490   2.718  14.795  10.694  0.0959  0.2226  0.3932
  594loPI    C3 9491   2.508  14.455  10.702  0.0789  0.1988 -0.3643
  594loPI   PO4 9492   2.274  14.853  10.306 -0.3850  0.1358 -0.3390
  594loPI   GL1 9493   2.460  15.167   9.940  0.0695  0.1236 -0.1260
  594loPI   GL2 9494   2.697  15.236   9.807  0.1250  0.0383 -0.1694
  594loPI   C1A 9495   2.152  15.094   9.580  0.3236  0.0563 -0.1603
  594loPI   C2A 9496   2.182  15.085   9.139 -0.1387 -0.1141  0.0610
  594loPI   C3A 9497   2.095  15.182   8.680 -0.5589  0.4996 -0.2234
  594loPI   C4A 9498   2.307  15.287   8.346  0.5608 -0.1389  0.1325
  594loPI   C5A 9499   2.479  15.331   7.903 -0.2841 -0.0325 -0.0964
  594loPI   C6A 9500   2.426  15.623   7.626  0.0256  0.4350  0.1203
  594loPI   C1B 9501   2.695  15.259   9.345  0.1137  0.2321 -0.2250
  594loPI   C2B 9502   2.588  15.261   8.952  0.1301 -0.0509  0.2385
  594loPI   C3B 9503   2.747  15.386   8.547 -0.0641  0.0483 -0.1653
  594loPI   C4B 9504   2.951  15.355   8.119  0.1194 -0.1673  0.0417
  595loPI    C1 9505   6.210   7.843  10.920 -0.4197 -0.1138  0.2911
  595loPI    C2 9506   6.516   7.657  11.097 -0.1425  0.0969  0.0452
  595loPI    C3 9507   6.253   7.863  11.317 -0.0420  0.0122  0.2480
  595loPI   PO4 9508   6.217   7.981  10.779 -0.1861  0.2403 -0.1687
  595loPI   GL1 9509   5.923   8.002  10.369  0.1170  0.1740 -0.3237
  595loPI   GL2 9510   5.758   8.345  10.375 -0.0257 -0.0991 -0.0466
  595loPI   C1A 9511   5.931   7.890   9.940  0.2162  0.1348  0.3809
  595loPI   C2A 9512   6.000   7.921   9.487 -0.2803 -0.1380  0.0880
  595loPI   C3A 9513   5.958   7.925   9.054 -0.2076  0.3604 -0.2950
  595loPI   C4A 9514   6.116   7.877   8.626 -0.0020  0.0776  0.0990
  595loPI   C5A 9515   6.009   8.127   8.262  0.0431 -0.1281  0.4137
  595loPI   C6A 9516   5.736   8.477   8.089  0.0004 -0.0007  0.1296
  595loPI   C1B 9517   5.677   8.315  10.027 -0.1011 -0.0018 -0.1527
  595loPI   C2B 9518   5.661   8.332   9.606  0.1585  0.1149  0.1914
  595loPI   C3B 9519   5.644   8.322   9.153  0.3368 -0.1776  0.1306
  595loPI   C4B 9520   5.685   8.198   8.716  0.0021  0.0312  0.2004
  596loPI    C1 9521   8.148   5.864  11.110  0.3864 -0.0588 -0.1005
  596loPI    C2 9522   8.462   5.766  11.337  0.2401  0.0070  0.1338
  596loPI    C3 9523   8.102   5.817  11.504  0.1040 -0.0647 -0.1317
  596loPI   PO4 9524   8.141   5.690  10.897 -0.0377  0.2132 -0.5391
  596loPI   GL1 9525   8.220   5.563  10.570 -0.0386 -0.0121  0.3291
  596loPI   GL2 9526   7.922   5.763  10.433  0.1239 -0.2866 -0.2089
  596loPI   C1A 9527   8.330   5.477  10.102  0.1412  0.0841 -0.3572
  596loPI   C2A 9528   8.307   5.427   9.768 -0.0466  0.0845 -0.0181
  596loPI   C3A 9529   8.375   5.440   9.363 -0.1924 -0.0064 -0.1711
  596loPI   C4A 9530   8.467   5.367   8.948  0.0610  0.1585  0.0928
  596loPI   C5A 9531   8.512   5.339   8.519 -0.1366  0.1096 -0.2751
  596loPI   C6A 9532   8.608   4.971   8.312 -0.0832  0.2112  0.1454
  596loPI   C1B 9533   8.005   5.866  10.003  0.0015  0.0665 -0.3074
  596loPI   C2B 9534   8.087   5.790   9.522  0.2958  0.1030 -0.0650
  596loPI   C3B 9535   8.113   5.792   9.034  0.5294  0.2215 -0.0307
  596loPI   C4B 9536   8.174   5.929   8.636  0.0945  0.2494  0.0601
  597loPI    C1 9537   1.339   7.660  10.483  0.0877  0.1007  0.3111
  597loPI    C2 9538   0.976   7.815  10.417  0.1069  0.1016  0.2066
  597loPI    C3 9539   1.269   8.046  10.559  0.1050  0.1349  0.1566
  597loPI   PO4 9540   1.415   7.507  10.228 -0.2100 -0.0128 -0.2150
  597loPI   GL1 9541   1.437   7.663   9.828  0.0297  0.1778  0.1536
  597loPI   GL2 9542   1.066   7.866   9.893  0.1373  0.1413 -0.0299
  597loPI   C1A 9543   1.507   7.799   9.424  0.1405 -0.2323 -0.2036
  597loPI   C2A 9544   1.534   7.813   9.022 -0.0242  0.2449  0.0799
  597loPI   C3A 9545   1.490   7.789   8.591  0.1842  0.1350 -0.2225
  597loPI   C4A 9546   1.463   7.701   8.232  0.2289  0.0056 -0.1374
  597loPI   C5A 9547   1.797   7.589   7.946  0.3390  0.1350 -0.1769
  597loPI   C6A 9548   2.147   7.181   7.749  0.2095  0.1034 -0.1446
  597loPI   C1B 9549   0.990   7.858   9.452  0.1087  0.0172 -0.0414
  597loPI   C2B 9550   1.049   7.720   9.028 -0.2651 -0.3799  0.1000
  597loPI   C3B 9551   0.833   7.616   8.620  0.0135 -0.1082  0.0870
  597loPI   C4B 9552   0.698   7.604   8.203  0.0595  0.0582 -0.0710
  598loPI    C1 9553  11.842  14.665  11.141  0.4652 -0.1347  0.0988
  598loPI    C2 9554  11.846  14.988  11.377 -0.1491  0.0372 -0.1058
  598loPI    C3 9555  11.717  14.637  11.520  0.0198  0.0035 -0.0324
  598loPI   PO4 9556  11.646  14.782  10.928 -0.1107  0.0111  0.1905
  598loPI   GL1 9557  11.624  14.699  10.511 -0.2193 -0.1469  0.3235
  598loPI   GL2 9558  11.900  14.540  10.430  0.3708 -0.3569  0.0654
  598loPI   C1A 9559  11.584  14.881  10.204  0.4467 -0.2700  0.2089
  598loPI   C2A 9560  11.520  14.871   9.714  0.1174 -0.1189  0.0689
  598loPI   C3A 9561  11.622  14.863   9.351 -0.0532  0.0316 -0.1250
  598loPI   C4A 9562  11.549  14.845   9.030 -0.0587  0.0837  0.1008
  598loPI   C5A 9563  11.478  14.912   8.653 -0.1161 -0.1705  0.1475
  598loPI   C6A 9564  11.747  14.998   8.326 -0.2355 -0.1978 -0.0722
  598loPI   C1B 9565  11.830  14.543   9.946 -0.4599  0.0592 -0.2703
  598loPI   C2B 9566  11.890  14.502   9.524  0.0669 -0.0420 -0.3485
  598loPI   C3B 9567  11.814  14.454   9.072  0.1895  0.1683 -0.2688
  598loPI   C4B 9568  11.765  14.526   8.559 -0.3374  0.2599 -0.1265
  599loPI    C1 9569  13.334   8.070  11.145 -0.0586 -0.0364 -0.2307
  599loPI    C2 9570  12.938   8.084  11.085 -0.0579  0.0425 -0.2187
  599loPI    C3 9571  13.091   7.837  11.360 -0.1013  0.0333 -0.2029
  599loPI   PO4 9572  13.394   8.156  10.922 -0.0681  0.0199  0.3536
  599loPI   GL1 9573  13.531   8.200  10.447 -0.3134  0.2386  0.2243
  599loPI   GL2 9574  13.781   7.980  10.257  0.1677 -0.1992 -0.0522
  599loPI   C1A 9575  13.546   8.317   9.946 -0.0196 -0.0052  0.1509
  599loPI   C2A 9576  13.424   8.352   9.518  0.0911  0.2773  0.0578
  599loPI   C3A 9577  13.530   8.360   9.062 -0.0477  0.2257  0.0693
  599loPI   C4A 9578  13.518   8.269   8.660 -0.1554  0.0479 -0.1067
  599loPI   C5A 9579  13.521   8.106   8.291 -0.0634  0.1071  0.3611
  599loPI   C6A 9580  13.199   8.252   7.983  0.3861 -0.2373 -0.2679
  599loPI   C1B 9581  13.903   7.936   9.938 -0.3318  0.0012 -0.0337
  599loPI   C2B 9582  13.900   8.026   9.526  0.1077 -0.0056  0.0790
  599loPI   C3B 9583  13.835   7.906   9.118  0.4099  0.5549  0.0366
  599loPI   C4B 9584  13.865   7.890   8.750 -0.1555 -0.0525 -0.0506
  600loPI    C1 9585  15.786   2.173  10.576  0.3475 -0.3046  0.2331
  600loPI    C2 9586  15.742   2.033  10.948  0.2096  0.0029  0.3362
  600loPI    C3 9587  15.627   2.405  10.860  0.0761 -0.1263 -0.0582
  600loPI   PO4 9588  15.702   1.992  10.441  0.1859  0.1917  0.1479
  600loPI   GL1 9589  15.704   1.762  10.120  0.0273 -0.0245 -0.0756
  600loPI   GL2 9590  15.642   1.480  10.292 -0.2508  0.1338  0.4478
  600loPI   C1A 9591  15.719   1.832   9.684  0.3736 -0.1886 -0.0952
  600loPI   C2A 9592  15.625   1.798   9.359 -0.1153 -0.0385  0.0022
  600loPI   C3A 9593  15.598   1.883   8.931  0.1602  0.1108  0.1805
  600loPI   C4A 9594  15.516   1.796   8.502 -0.1254 -0.1055 -0.0737
  600loPI   C5A 9595  15.599   1.830   8.029  0.2506  0.1261 -0.0768
  600loPI   C6A 9596  15.855   2.034   7.836  0.1170 -0.3194  0.0610
  600loPI   C1B 9597  15.511   1.243   9.862 -0.0316  0.1634  0.2141
  600loPI   C2B 9598  15.420   1.301   9.450  0.0156  0.0341  0.2361
  600loPI   C3B 9599  15.432   1.344   9.003  0.3434 -0.0539 -0.0626
  600loPI   C4B 9600  15.241   1.218   8.520 -0.0306  0.0740  0.0739
  601loPI    C1 9601   7.361  10.888  11.298 -0.2958  0.0441 -0.3027
  601loPI    C2 9602   7.586  10.565  11.366 -0.1719  0.1934  0.0177
  601loPI    C3 9603   7.187  10.532  11.353 -0.1564  0.0142 -0.0431
  601loPI   PO4 9604   7.373  10.949  11.068  0.4568  0.0583  0.0211
  601loPI   GL1 9605   7.437  10.811  10.742 -0.1765  0.1087 -0.0735
  601loPI   GL2 9606   7.299  10.601  10.499  0.0320 -0.0877  0.0749
  601loPI   C1A 9607   7.592  10.861  10.259 -0.1175  0.0179  0.4051
  601loPI   C2A 9608   7.740  10.820   9.941  0.1311 -0.0120 -0.0444
  601loPI   C3A 9609   7.737  10.783   9.602  0.0026 -0.1001 -0.3615
  601loPI   C4A 9610   7.747  10.871   9.179 -0.2928 -0.2787  0.3481
  601loPI   C5A 9611   7.661  10.917   8.713 -0.0453  0.3476 -0.0904
  601loPI   C6A 9612   7.355  11.106   8.395  0.1275 -0.0619 -0.1769
  601loPI   C1B 9613   7.117  10.699  10.095 -0.1948  0.5065 -0.1915
  601loPI   C2B 9614   7.255  10.688   9.623  0.2210 -0.2011  0.3965
  601loPI   C3B 9615   7.217  10.731   9.214  0.4495 -0.1108  0.1163
  601loPI   C4B 9616   7.127  10.762   8.804 -0.0732 -0.0646 -0.0778
  602loPI    C1 9617   9.511   6.397  11.039  0.0699 -0.3936  0.0536
  602loPI    C2 9618   9.831   6.572  11.204  0.0560 -0.2277 -0.0923
  602loPI    C3 9619   9.623   6.300  11.410 -0.0470  0.0796  0.2206
  602loPI   PO4 9620   9.560   6.385  10.783 -0.0915 -0.3957  0.1631
  602loPI   GL1 9621   9.708   6.485  10.401  0.0894  0.0202  0.2507
  602loPI   GL2 9622   9.931   6.299  10.410  0.1473 -0.0894 -0.2321
  602loPI   C1A 9623   9.818   6.524   9.973  0.1013 -0.2693 -0.0387
  602loPI   C2A 9624   9.658   6.564   9.475  0.0552  0.5863 -0.1341
  602loPI   C3A 9625   9.821   6.478   9.016  0.1858 -0.1140  0.0205
  602loPI   C4A 9626   9.855   6.516   8.627 -0.0231  0.0403  0.0667
  602loPI   C5A 9627   9.723   6.667   8.205  0.4221 -0.2461  0.0891
  602loPI   C6A 9628   9.638   6.857   7.860 -0.1790  0.2434  0.0124
  602loPI   C1B 9629  10.114   6.153   9.960 -0.0709 -0.2803 -0.0113
  602loPI   C2B 9630  10.086   6.195   9.576  0.4379 -0.1026  0.1172
  602loPI   C3B 9631  10.048   6.079   9.141 -0.0259 -0.2231  0.3279
  602loPI   C4B 9632  10.147   5.998   8.721  0.0836  0.2929 -0.1025
  603loPI    C1 9633  12.238  12.327  10.998  0.0434  0.0838 -0.0857
  603loPI    C2 9634  12.169  12.455  11.370 -0.1108 -0.1761 -0.0220
  603loPI    C3 9635  12.042  12.093  11.257 -0.1203 -0.0744 -0.3471
  603loPI   PO4 9636  12.417  12.312  10.937  0.0689  0.0202 -0.1128
  603loPI   GL1 9637  12.652  12.196  10.595 -0.0025 -0.1187 -0.0983
  603loPI   GL2 9638  12.565  11.894  10.575 -0.1366  0.2035  0.0270
  603loPI   C1A 9639  12.756  12.398  10.228  0.2446  0.2396 -0.1150
  603loPI   C2A 9640  12.847  12.458   9.933  0.1510 -0.0250 -0.0883
  603loPI   C3A 9641  12.801  12.349   9.560 -0.0345  0.0358 -0.4743
  603loPI   C4A 9642  12.856  12.246   9.116  0.0892  0.0798  0.1466
  603loPI   C5A 9643  12.903  12.294   8.729  0.0485 -0.2714  0.2400
  603loPI   C6A 9644  12.901  12.469   8.355 -0.4044  0.2210 -0.1498
  603loPI   C1B 9645  12.573  11.857  10.139 -0.0744  0.0483 -0.3374
  603loPI   C2B 9646  12.581  11.817   9.669  0.1808 -0.0158  0.2250
  603loPI   C3B 9647  12.575  11.858   9.270  0.2370  0.0107  0.1001
  603loPI   C4B 9648  12.601  11.875   8.817 -0.1296  0.0077  0.1523
  604loPI    C1 9649   1.284  15.778  10.614 -0.0446  0.2156 -0.2165
  604loPI    C2 9650   1.681  15.763  10.666 -0.0834 -0.2745 -0.0125
  604loPI    C3 9651   1.444  15.891  10.962 -0.0704  0.2097 -0.2028
  604loPI   PO4 9652   1.278  15.907  10.386  0.2079 -0.4339 -0.1010
  604loPI   GL1 9653   1.390  15.987  10.004 -0.3844 -0.2672  0.1180
  604loPI   GL2 9654   1.182  15.692   9.904 -0.2306  0.1144  0.4242
  604loPI   C1A 9655   1.502  16.009   9.558 -0.0027  0.1211  0.0143
  604loPI   C2A 9656   1.503  16.051   9.164 -0.3266 -0.1813  0.0470
  604loPI   C3A 9657   1.544  16.073   8.748  0.0902  0.1016 -0.1824
  604loPI   C4A 9658   1.590  16.048   8.400 -0.0189 -0.0117 -0.2503
  604loPI   C5A 9659   1.760  16.078   8.059  0.0625  0.2073  0.1383
  604loPI   C6A 9660   1.922  15.987   7.616 -0.2012 -0.1807  0.2870
  604loPI   C1B 9661   1.264  15.573   9.473 -0.3787 -0.0217 -0.1010
  604loPI   C2B 9662   1.300  15.608   9.017  0.1941 -0.3264 -0.0773
  604loPI   C3B 9663   1.279  15.669   8.618 -0.0991  0.1324  0.1115
  604loPI   C4B 9664   1.367  15.650   8.197  0.2625  0.0024 -0.0668
  605loPI    C1 9665  18.030  15.794  10.368  0.0867 -0.0746 -0.0293
  605loPI    C2 9666  18.082  16.181  10.456  0.1551 -0.0835 -0.0301
  605loPI    C3 9667  18.066  15.910  10.749  0.1202 -0.0817 -0.0303
  605loPI   PO4 9668  18.202  15.647  10.112 -0.0269  0.0184  0.0061
  605loPI   GL1 9669  18.323  15.622   9.715  0.0551  0.2089  0.0848
  605loPI   GL2 9670  18.150  15.982   9.570  0.2024 -0.2010 -0.1331
  605loPI   C1A 9671  18.610  15.781   9.459 -0.1255  0.4072 -0.1636
  605loPI   C2A 9672  18.643  15.697   9.100 -0.2032 -0.3035 -0.1753
  605loPI   C3A 9673  18.611  15.892   8.593  0.4161 -0.1140 -0.1294
  605loPI   C4A 9674  18.668  15.861   8.185 -0.0516 -0.2376  0.0578
  605loPI   C5A 9675  18.495  15.840   7.631 -0.2548  0.0160  0.2978
  605loPI   C6A 9676  18.289  15.732   7.192 -0.0988  0.1626 -0.2115
  605loPI   C1B 9677  18.057  15.999   9.151  0.2203 -0.2130  0.0705
  605loPI   C2B 9678  18.104  16.092   8.673 -0.1965 -0.2933 -0.2614
  605loPI   C3B 9679  18.430  16.329   8.309 -0.2416  0.0769 -0.2878
  605loPI   C4B 9680  18.840  16.277   7.964 -0.0228  0.1965  0.0004
  606loPI    C1 9681   6.620   1.931  10.733  0.1472 -0.1677 -0.0396
  606loPI    C2 9682   6.978   1.841  10.888  0.1627 -0.2189 -0.1045
  606loPI    C3 9683   6.644   1.745  11.086  0.1864 -0.0836  0.0021
  606loPI   PO4 9684   6.620   1.860  10.520  0.0064  0.1668  0.2761
  606loPI   GL1 9685   6.570   1.942  10.107 -0.2955  0.0556  0.0712
  606loPI   GL2 9686   6.668   1.623   9.969  0.2258  0.1604 -0.0581
  606loPI   C1A 9687   6.411   2.059   9.678  0.0605 -0.2152  0.0102
  606loPI   C2A 9688   6.375   2.033   9.179 -0.0171  0.1338 -0.0249
  606loPI   C3A 9689   6.458   1.988   8.740  0.2205 -0.0182 -0.4685
  606loPI   C4A 9690   6.551   2.027   8.341  0.1588 -0.1380 -0.0188
  606loPI   C5A 9691   6.607   2.064   7.867  0.2550 -0.2383  0.2612
  606loPI   C6A 9692   6.318   1.904   7.649  0.0920  0.3382  0.0486
  606loPI   C1B 9693   6.690   1.648   9.506 -0.0335 -0.0536 -0.1148
  606loPI   C2B 9694   6.660   1.569   9.019  0.3240 -0.2991  0.2279
  606loPI   C3B 9695   6.748   1.562   8.501 -0.1730 -0.0873 -0.0527
  606loPI   C4B 9696   6.645   1.335   8.055 -0.1707 -0.1821 -0.0675
  607loPI    C1 9697   8.065  13.183  10.996 -0.2043 -0.0022  0.0260
  607loPI    C2 9698   8.018  13.371  11.346  0.2229  0.1018  0.0340
  607loPI    C3 9699   8.046  12.972  11.335 -0.1254  0.0728  0.0777
  607loPI   PO4 9700   8.271  13.245  10.795 -0.0329  0.1232  0.2762
  607loPI   GL1 9701   8.152  13.095  10.431 -0.1702  0.5417  0.4351
  607loPI   GL2 9702   7.860  13.250  10.300 -0.3033  0.2436  0.1337
  607loPI   C1A 9703   8.242  13.149  10.013  0.2618  0.0182  0.1652
  607loPI   C2A 9704   8.225  13.248   9.637 -0.1138  0.1934  0.2506
  607loPI   C3A 9705   8.228  13.080   9.170 -0.1384 -0.0722  0.2191
  607loPI   C4A 9706   8.284  13.129   8.764 -0.0171  0.1081 -0.0079
  607loPI   C5A 9707   8.396  13.070   8.416 -0.0717  0.2653 -0.1122
  607loPI   C6A 9708   8.538  13.171   7.969  0.3342 -0.1514 -0.1425
  607loPI   C1B 9709   7.796  13.171   9.843  0.0273 -0.1755 -0.1144
  607loPI   C2B 9710   7.711  13.130   9.395 -0.0591 -0.5262  0.0722
  607loPI   C3B 9711   7.792  13.049   8.964  0.0182  0.0312 -0.0352
  607loPI   C4B 9712   7.811  13.027   8.550 -0.1779 -0.2101  0.0272
  608loPI    C1 9713   3.453  15.080  10.403 -0.1100 -0.2158 -0.1140
  608loPI    C2 9714   3.822  14.932  10.453  0.0297  0.0860 -0.2262
  608loPI    C3 9715   3.617  15.071  10.768  0.0269 -0.0433 -0.1701
  608loPI   PO4 9716   3.569  15.246  10.151 -0.2438  0.2132  0.1351
  608loPI   GL1 9717   3.713  15.497   9.864  0.1442 -0.2653 -0.0799
  608loPI   GL2 9718   3.836  15.300   9.622  0.0344 -0.4444 -0.0269
  608loPI   C1A 9719   3.726  15.812   9.520  0.2661  0.2493 -0.0236
  608loPI   C2A 9720   3.870  15.862   9.118  0.1837  0.1982  0.1061
  608loPI   C3A 9721   4.013  15.962   8.714  0.0281  0.1107 -0.3126
  608loPI   C4A 9722   4.190  16.039   8.423  0.3595 -0.1414  0.0233
  608loPI   C5A 9723   4.342  16.321   8.055 -0.1174  0.4258 -0.0783
  608loPI   C6A 9724   4.057  16.502   7.738  0.0742  0.0424 -0.1476
  608loPI   C1B 9725   4.023  15.431   9.288 -0.0754 -0.0277 -0.0356
  608loPI   C2B 9726   4.292  15.479   8.940  0.0568 -0.0859  0.4411
  608loPI   C3B 9727   4.427  15.589   8.498  0.2599 -0.0881  0.2151
  608loPI   C4B 9728   4.307  15.732   8.073 -0.1177 -0.0413  0.4140
  609POPI    C1 9729   6.769   2.269  11.062  0.1714 -0.1224  0.2739
  609POPI    C2 9730   6.590   2.417  11.388  0.0209 -0.1717  0.2148
  609POPI    C3 9731   6.975   2.499  11.316  0.0005  0.0035  0.3003
  609POPI   PO4 9732   6.674   2.385  10.881 -0.0477 -0.3642  0.4434
  609POPI   GL1 9733   6.697   2.638  10.428 -0.0767 -0.1419 -0.0658
  609POPI   GL2 9734   6.572   2.342  10.338  0.0994 -0.0006 -0.1428
  609POPI   C1A 9735   7.046   2.627  10.207 -0.2201 -0.2361  0.2668
  609POPI   D2A 9736   7.112   2.484   9.789 -0.2407 -0.0295 -0.5193
  609POPI   C3A 9737   7.137   2.529   9.313  0.1617  0.1147  0.0633
  609POPI   C4A 9738   7.129   2.463   8.809  0.1172 -0.0575  0.1198
  609POPI   C1B 9739   6.557   2.557   9.922  0.1001  0.2245  0.2122
  609POPI   C2B 9740   6.627   2.531   9.433  0.2065  0.2717  0.1987
  609POPI   C3B 9741   6.641   2.464   9.006 -0.1002  0.1108 -0.1526
  609POPI   C4B 9742   6.612   2.495   8.602 -0.0895  0.2861 -0.0909
  610POPI    C1 9743   2.097  16.627  10.664 -0.1341 -0.2360 -0.0132
  610POPI    C2 9744   2.323  16.349  10.843  0.0128 -0.1621 -0.0816
  610POPI    C3 9745   2.048  16.549  11.053 -0.0277 -0.2918 -0.0105
  610POPI   PO4 9746   2.121  16.482  10.280 -0.0003 -0.1257 -0.3187
  610POPI   GL1 9747   2.026  16.614   9.825 -0.2369 -0.2004 -0.1035
  610POPI   GL2 9748   1.898  16.361   9.863  0.1810 -0.2322  0.4129
  610POPI   C1A 9749   2.232  16.516   9.451  0.1039 -0.0253 -0.0532
  610POPI   D2A 9750   2.202  16.535   8.991 -0.2330  0.1325 -0.2187
  610POPI   C3A 9751   2.328  16.479   8.602  0.1951 -0.2475  0.0268
  610POPI   C4A 9752   2.413  16.669   8.325 -0.1091 -0.0667  0.0464
  610POPI   C1B 9753   1.745  16.442   9.501 -0.1395  0.0628 -0.0408
  610POPI   C2B 9754   1.654  16.519   9.026 -0.0186 -0.2079 -0.1563
  610POPI   C3B 9755   1.808  16.507   8.576 -0.2526 -0.0090  0.0431
  610POPI   C4B 9756   1.888  16.600   8.165  0.1356 -0.2590 -0.2371
  611POPI    C1 9757  16.687   2.082  10.425  0.2505 -0.2861  0.1318
  611POPI    C2 9758  16.851   2.437  10.509 -0.0305 -0.1006 -0.0896
  611POPI    C3 9759  16.720   2.203  10.805 -0.0274  0.0696  0.0479
  611POPI   PO4 9760  16.614   2.078  10.224 -0.1260 -0.0221 -0.1456
  611POPI   GL1 9761  16.660   1.886   9.842  0.2426  0.1076  0.0884
  611POPI   GL2 9762  16.501   2.179   9.748  0.1215  0.0655  0.0616
  611POPI   C1A 9763  16.764   1.709   9.410 -0.0600 -0.0186 -0.1086
  611POPI   D2A 9764  16.714   1.776   9.046 -0.2954  0.1732 -0.2351
  611POPI   C3A 9765  17.002   1.655   8.858  0.2859 -0.2067 -0.0354
  611POPI   C4A 9766  17.284   1.413   8.661 -0.0700  0.1039  0.0692
  611POPI   C1B 9767  16.435   2.294   9.272  0.1686  0.0323  0.0969
  611POPI   C2B 9768  16.479   2.209   8.839 -0.1624  0.3259  0.0564
  611POPI   C3B 9769  16.357   2.170   8.417  0.0485 -0.2879  0.2644
  611POPI   C4B 9770  16.329   1.858   7.934 -0.2843  0.0328 -0.1941
  612POPI    C1 9771  16.445   2.528  10.090 -0.0586  0.0574  0.1871
  612POPI    C2 9772  16.533   2.829  10.338 -0.2484  0.2622  0.0102
  612POPI    C3 9773  16.342   2.506  10.476  0.2004  0.0937  0.2600
  612POPI   PO4 9774  16.366   2.661   9.841  0.1377 -0.0495 -0.2141
  612POPI   GL1 9775  16.372   2.885   9.518  0.0748 -0.1919 -0.0430
  612POPI   GL2 9776  16.239   3.142   9.494 -0.0162  0.0534 -0.0352
  612POPI   C1A 9777  16.658   3.060   9.269 -0.2874 -0.0307  0.0595
  612POPI   D2A 9778  16.551   3.080   8.765  0.3620  0.1247 -0.1157
  612POPI   C3A 9779  16.336   2.771   8.480  0.1612 -0.1929  0.2122
  612POPI   C4A 9780  16.451   2.764   8.035  0.0575 -0.2099  0.1242
  612POPI   C1B 9781  16.169   3.108   9.069  0.0691  0.4506  0.2466
  612POPI   C2B 9782  16.015   3.052   8.687  0.3405  0.2436 -0.1935
  612POPI   C3B 9783  16.037   3.101   8.206  0.1308  0.2586 -0.2215
  612POPI   C4B 9784  15.988   3.220   7.805 -0.0583  0.0928 -0.2069
  613POPI    C1 9785   9.414   4.628  10.947 -0.0939  0.0032 -0.1855
  613POPI    C2 9786   9.489   4.287  11.141  0.1225  0.1008 -0.0945
  613POPI    C3 9787   9.279   4.577  11.320 -0.0690  0.0129 -0.1750
  613POPI   PO4 9788   9.632   4.701  10.873 -0.0493  0.1458 -0.2410
  613POPI   GL1 9789   9.649   4.827  10.463 -0.1516 -0.1286  0.1215
  613POPI   GL2 9790   9.999   4.950  10.517  0.1671  0.1542  0.3487
  613POPI   C1A 9791   9.517   4.741  10.052  0.1598 -0.0143  0.0631
  613POPI   D2A 9792   9.603   4.778   9.636  0.0064 -0.0741 -0.0670
  613POPI   C3A 9793   9.544   4.629   9.336 -0.0105  0.0424  0.1054
  613POPI   C4A 9794   9.505   4.552   8.949 -0.2321  0.1630  0.1636
  613POPI   C1B 9795  10.001   4.856  10.030  0.2580  0.0537 -0.2720
  613POPI   C2B 9796  10.091   4.820   9.581 -0.3108 -0.1070  0.3179
  613POPI   C3B 9797  10.120   4.747   9.130 -0.0638  0.1182 -0.1195
  613POPI   C4B 9798   9.979   4.685   8.747  0.2570 -0.1670  0.2431
  614POPI    C1 9799  13.186   2.469  11.012 -0.0377  0.1111 -0.0117
  614POPI    C2 9800  13.238   2.191  11.295  0.0925  0.1639  0.0169
  614POPI    C3 9801  13.367   2.564  11.356 -0.0539  0.2235 -0.0340
  614POPI   PO4 9802  12.895   2.391  10.897  0.1680  0.1252  0.0627
  614POPI   GL1 9803  12.872   2.395  10.481 -0.0163 -0.1209 -0.5066
  614POPI   GL2 9804  12.555   2.656  10.414 -0.4105 -0.0741 -0.1559
  614POPI   C1A 9805  12.937   2.355  10.186 -0.2480  0.1052 -0.0866
  614POPI   D2A 9806  12.827   2.325   9.802 -0.0884  0.0849 -0.0328
  614POPI   C3A 9807  12.931   2.273   9.323  0.0916 -0.2104  0.1836
  614POPI   C4A 9808  12.972   2.153   8.855  0.1393 -0.1558  0.1082
  614POPI   C1B 9809  12.686   2.767   9.990  0.0725  0.3995 -0.3609
  614POPI   C2B 9810  12.515   2.787   9.570  0.0033 -0.0373  0.0161
  614POPI   C3B 9811  12.600   2.664   9.158 -0.0499  0.0491 -0.0015
  614POPI   C4B 9812  12.549   2.593   8.700 -0.0247 -0.0495  0.0476
  615POPI    C1 9813   9.978   1.737  11.168 -0.1439  0.0042  0.0673
  615POPI    C2 9814   9.852   1.383  11.307 -0.1638  0.0179  0.0842
  615POPI    C3 9815  10.228   1.502  11.374 -0.1242 -0.0490 -0.0166
  615POPI   PO4 9816   9.764   1.762  10.925 -0.1933 -0.1281  0.1218
  615POPI   GL1 9817   9.683   1.553  10.475  0.0335  0.0879  0.0765
  615POPI   GL2 9818   9.508   1.807  10.533 -0.0567 -0.0144 -0.3607
  615POPI   C1A 9819   9.522   1.393  10.161 -0.0688 -0.0476 -0.1038
  615POPI   D2A 9820   9.491   1.562   9.773  0.0715  0.2640  0.1686
  615POPI   C3A 9821   9.599   1.525   9.299 -0.2154 -0.2692  0.0330
  615POPI   C4A 9822   9.640   1.430   8.944  0.1734  0.3287 -0.0434
  615POPI   C1B 9823   9.161   1.817  10.096  0.0231 -0.4247 -0.0853
  615POPI   C2B 9824   9.174   1.898   9.558 -0.0603 -0.0142  0.0005
  615POPI   C3B 9825   9.382   1.944   9.197 -0.0344 -0.1603  0.1355
  615POPI   C4B 9826   9.354   1.986   8.804 -0.0060  0.2911  0.1582
  616POPI    C1 9827  17.968   6.817  10.316  0.0691 -0.0695  0.0468
  616POPI    C2 9828  17.600   6.866  10.167  0.0520 -0.4645 -0.0509
  616POPI    C3 9829  17.660   6.884  10.562 -0.0505 -0.2839 -0.0426
  616POPI   PO4 9830  18.106   6.687  10.139  0.1362 -0.2260  0.0425
  616POPI   GL1 9831  18.231   6.649   9.805 -0.1033  0.2319  0.1078
  616POPI   GL2 9832  18.501   6.976   9.805  0.0113 -0.1073  0.3073
  616POPI   C1A 9833  18.174   6.449   9.389 -0.2806  0.1777 -0.0280
  616POPI   D2A 9834  18.227   6.495   8.986 -0.2410  0.1424 -0.3186
  616POPI   C3A 9835  18.116   6.582   8.534  0.0054  0.3277  0.0849
  616POPI   C4A 9836  18.004   6.539   8.115  0.1894 -0.3506 -0.0461
  616POPI   C1B 9837  18.442   6.888   9.403  0.0176 -0.2721  0.0699
  616POPI   C2B 9838  18.561   7.101   9.158  0.3283  0.2206  0.1461
  616POPI   C3B 9839  18.398   7.002   8.786 -0.0110 -0.1019 -0.3112
  616POPI   C4B 9840  18.377   7.069   8.415  0.4416 -0.2365 -0.0965
  617POPI    C1 9841   2.362   0.916  10.364  0.0116  0.0803  0.0341
  617POPI    C2 9842   2.047   1.086  10.540  0.1317  0.0548  0.2779
  617POPI    C3 9843   2.208   0.755  10.696  0.1664 -0.0372  0.0506
  617POPI   PO4 9844   2.380   1.206  10.191  0.0075 -0.0736 -0.1378
  617POPI   GL1 9845   2.317   1.532   9.916  0.0844  0.1538 -0.1460
  617POPI   GL2 9846   2.059   1.624   9.720  0.0073  0.1970 -0.1766
  617POPI   C1A 9847   2.386   1.261   9.508 -0.3278  0.0794  0.2396
  617POPI   D2A 9848   2.470   1.179   9.014 -0.0894  0.0965  0.2374
  617POPI   C3A 9849   2.556   1.235   8.667 -0.2093 -0.2285  0.0420
  617POPI   C4A 9850   2.706   1.244   8.215 -0.0154  0.2789 -0.0333
  617POPI   C1B 9851   2.143   1.676   9.278  0.1297 -0.2476  0.3217
  617POPI   C2B 9852   2.215   1.591   8.825 -0.4758 -0.2053  0.1079
  617POPI   C3B 9853   2.327   1.672   8.404  0.0222 -0.1092 -0.1345
  617POPI   C4B 9854   2.576   1.654   8.029 -0.1059 -0.1009  0.2921
  618POPI    C1 9855   1.353  13.087  10.376  0.2163 -0.0169  0.1604
  618POPI    C2 9856   1.213  12.840  10.658 -0.0088 -0.1734 -0.0834
  618POPI    C3 9857   1.409  13.173  10.763 -0.3228 -0.0907  0.2636
  618POPI   PO4 9858   1.506  12.945  10.169  0.0136  0.0122 -0.1856
  618POPI   GL1 9859   1.710  13.053   9.940 -0.1265 -0.1654  0.0460
  618POPI   GL2 9860   1.815  13.288   9.849 -0.0935 -0.0151 -0.2632
  618POPI   C1A 9861   1.594  12.923   9.461 -0.0446 -0.0484 -0.2215
  618POPI   D2A 9862   1.478  12.843   9.078 -0.0835  0.4185  0.0037
  618POPI   C3A 9863   1.701  12.727   8.842 -0.3467 -0.0784 -0.2313
  618POPI   C4A 9864   1.803  12.523   8.395 -0.0161 -0.2006 -0.0940
  618POPI   C1B 9865   1.806  13.365   9.427 -0.1887 -0.0233 -0.2973
  618POPI   C2B 9866   1.695  13.375   9.002  0.1094 -0.0502 -0.2555
  618POPI   C3B 9867   1.852  13.270   8.582 -0.0525  0.0344 -0.1782
  618POPI   C4B 9868   1.998  13.022   8.215 -0.1781 -0.0897 -0.1699
  619POPI    C1 9869  12.359   6.310  10.988 -0.1907  0.0758  0.3024
  619POPI    C2 9870  12.144   6.287  11.324  0.1264 -0.2969  0.4886
  619POPI    C3 9871  12.483   6.500  11.317 -0.3260  0.4530  0.1407
  619POPI   PO4 9872  12.234   6.329  10.788  0.1547 -0.0924  0.4510
  619POPI   GL1 9873  12.064   6.479  10.386  0.1879 -0.3230  0.0128
  619POPI   GL2 9874  11.754   6.395  10.375 -0.0447 -0.1375 -0.4219
  619POPI   C1A 9875  12.166   6.372  10.035 -0.1811  0.2053  0.2289
  619POPI   D2A 9876  12.285   6.314   9.727 -0.0874 -0.1214 -0.2822
  619POPI   C3A 9877  12.111   6.302   9.412  0.2579  0.1439  0.2030
  619POPI   C4A 9878  12.197   6.425   9.025 -0.0359  0.2722  0.1755
  619POPI   C1B 9879  11.681   6.263   9.960  0.2560 -0.0249  0.2761
  619POPI   C2B 9880  11.666   6.316   9.552 -0.2561  0.0866 -0.2517
  619POPI   C3B 9881  11.647   6.205   9.144 -0.1330  0.0342  0.0125
  619POPI   C4B 9882  11.776   6.208   8.761 -0.1137  0.1931 -0.0449
  620POPI    C1 9883  10.286  12.396  11.095 -0.1251 -0.0954  0.1068
  620POPI    C2 9884  10.339  12.003  11.042 -0.2112 -0.1025  0.0703
  620POPI    C3 9885  10.544  12.196  11.326  0.0406 -0.1203 -0.0966
  620POPI   PO4 9886  10.328  12.533  10.920 -0.0980  0.0850  0.0925
  620POPI   GL1 9887  10.358  12.633  10.478  0.0158 -0.1385 -0.1909
  620POPI   GL2 9888  10.522  12.899  10.657  0.2976  0.0262  0.1318
  620POPI   C1A 9889  10.466  12.522  10.013 -0.1493  0.0350 -0.0235
  620POPI   D2A 9890  10.462  12.485   9.500  0.4172 -0.2124 -0.1356
  620POPI   C3A 9891  10.387  12.570   9.086 -0.1283  0.0440  0.1030
  620POPI   C4A 9892  10.538  12.590   8.650 -0.2587 -0.3522 -0.0598
  620POPI   C1B 9893  10.648  13.024  10.218  0.1650 -0.1061 -0.0139
  620POPI   C2B 9894  10.681  12.899   9.778  0.0010 -0.2954  0.1885
  620POPI   C3B 9895  10.603  12.960   9.296  0.1217 -0.1651 -0.2232
  620POPI   C4B 9896  10.613  13.075   8.896  0.0866 -0.1132  0.0603
  621POPI    C1 9897  17.891   4.106   9.975 -0.0205 -0.0170 -0.1183
  621POPI    C2 9898  17.970   3.798  10.219 -0.0764  0.0484 -0.0169
  621POPI    C3 9899  17.798   4.129  10.364 -0.0271  0.1231 -0.1279
  621POPI   PO4 9900  17.768   4.033   9.792  0.1777  0.2512  0.3086
  621POPI   GL1 9901  17.739   4.131   9.426 -0.0438  0.0849 -0.3246
  621POPI   GL2 9902  17.364   4.097   9.447 -0.1217  0.3568  0.1599
  621POPI   C1A 9903  17.965   4.205   9.018  0.2738  0.0839 -0.0615
  621POPI   D2A 9904  18.049   4.230   8.621  0.0323  0.3122  0.0301
  621POPI   C3A 9905  18.205   4.695   8.487  0.0230  0.1197  0.3630
  621POPI   C4A 9906  18.249   5.003   8.808 -0.1178 -0.2052 -0.1476
  621POPI   C1B 9907  17.101   4.339   9.253 -0.0107  0.1477  0.2480
  621POPI   C2B 9908  16.718   4.499   9.002 -0.2997  0.0374 -0.0595
  621POPI   C3B 9909  16.727   4.330   8.571  0.2878 -0.2079 -0.3856
  621POPI   C4B 9910  17.097   4.229   8.178  0.0645 -0.0550  0.1929
  622POPI    C1 9911  11.257  12.518  11.372 -0.1619 -0.0225 -0.0986
  622POPI    C2 9912  10.966  12.288  11.521 -0.1240  0.0212  0.0442
  622POPI    C3 9913  10.983  12.676  11.616 -0.0363  0.0251  0.0128
  622POPI   PO4 9914  11.306  12.493  11.156 -0.4795 -0.2952  0.0517
  622POPI   GL1 9915  11.338  12.398  10.784 -0.0530  0.2068  0.0297
  622POPI   GL2 9916  11.492  12.603  10.655  0.1216  0.3008 -0.2149
  622POPI   C1A 9917  11.203  12.188  10.476 -0.3470  0.1938  0.0675
  622POPI   D2A 9918  11.174  12.101  10.089 -0.2321 -0.2113 -0.2093
  622POPI   C3A 9919  11.304  12.212   9.657 -0.0384 -0.1363  0.0515
  622POPI   C4A 9920  11.303  12.166   9.216 -0.1774  0.0628  0.2020
  622POPI   C1B 9921  11.425  12.716  10.264 -0.0035 -0.0087 -0.1592
  622POPI   C2B 9922  11.496  12.611   9.847  0.1198  0.1537  0.1501
  622POPI   C3B 9923  11.500  12.610   9.437  0.0440 -0.1687 -0.2135
  622POPI   C4B 9924  11.435  12.683   8.995 -0.0342  0.2701  0.2844
  623POPI    C1 9925   5.486   5.310  10.868 -0.2832 -0.2143 -0.0509
  623POPI    C2 9926   5.439   5.487  11.224 -0.1130 -0.1323 -0.0686
  623POPI    C3 9927   5.351   5.099  11.181  0.1120 -0.2082  0.1293
  623POPI   PO4 9928   5.541   5.555  10.676 -0.0286 -0.1352  0.0693
  623POPI   GL1 9929   5.429   5.640  10.235  0.3313 -0.1409 -0.2787
  623POPI   GL2 9930   5.514   5.933  10.288  0.2148 -0.0129 -0.3438
  623POPI   C1A 9931   5.498   5.666   9.744 -0.2687 -0.1187  0.0064
  623POPI   D2A 9932   5.504   5.520   9.333  0.3261  0.0973  0.2671
  623POPI   C3A 9933   5.489   5.551   8.836  0.2866 -0.4386  0.2641
  623POPI   C4A 9934   5.615   5.606   8.247 -0.0631  0.4873 -0.0944
  623POPI   C1B 9935   5.656   6.094   9.904  0.1034 -0.3112 -0.3759
  623POPI   C2B 9936   5.707   6.144   9.486 -0.3998  0.1542  0.0755
  623POPI   C3B 9937   5.667   6.053   9.032 -0.0821  0.2164  0.1753
  623POPI   C4B 9938   5.713   6.014   8.683  0.2615  0.2433 -0.3017
  624POPI    C1 9939   0.907   5.299  10.412 -0.0251  0.0021  0.1835
  624POPI    C2 9940   0.882   5.695  10.463  0.2699  0.0355  0.0859
  624POPI    C3 9941   1.141   5.481  10.680  0.0864 -0.1102  0.1633
  624POPI   PO4 9942   0.921   5.298  10.190 -0.0356 -0.2175  0.1449
  624POPI   GL1 9943   1.106   5.479   9.979  0.2093 -0.0559 -0.4809
  624POPI   GL2 9944   1.347   5.586   9.835 -0.1896  0.0124  0.0680
  624POPI   C1A 9945   0.948   5.307   9.521 -0.0720 -0.2033 -0.2770
  624POPI   D2A 9946   1.138   5.162   9.187 -0.0096 -0.0650  0.0035
  624POPI   C3A 9947   1.103   5.296   8.842  0.1084 -0.0900  0.1817
  624POPI   C4A 9948   1.019   5.363   8.415  0.2494  0.0206 -0.0699
  624POPI   C1B 9949   1.455   5.598   9.401 -0.3079  0.1284 -0.1207
  624POPI   C2B 9950   1.293   5.744   8.956  0.0163  0.4124  0.1072
  624POPI   C3B 9951   1.204   5.939   8.532 -0.0660 -0.2294 -0.2642
  624POPI   C4B 9952   1.026   5.924   8.126 -0.2338 -0.2496 -0.0691
  625DPPI    C1 9953   9.540   6.939  10.942  0.0425  0.3402  0.1553
  625DPPI    C2 9954   9.861   7.175  10.972  0.2771  0.0366  0.0862
  625DPPI    C3 9955   9.881   6.837  10.758 -0.1211  0.0658 -0.0037
  625DPPI   PO4 9956   9.313   7.110  10.779 -0.1541 -0.0697 -0.2861
  625DPPI   GL1 9957   9.162   7.062  10.432 -0.0520 -0.0355 -0.0079
  625DPPI   GL2 9958   8.981   6.821  10.359 -0.0920  0.2807  0.1683
  625DPPI   C1A 9959   9.092   7.367  10.049  0.2437  0.1277  0.0941
  625DPPI   C2A 9960   9.235   7.383   9.721 -0.0037 -0.2495 -0.0240
  625DPPI   C3A 9961   9.109   7.354   9.263 -0.2042  0.0978 -0.2544
  625DPPI   C4A 9962   9.135   7.403   8.825  0.0059  0.1497 -0.2062
  625DPPI   C1B 9963   8.940   6.900  10.009 -0.0421 -0.1714  0.1570
  625DPPI   C2B 9964   8.998   6.856   9.474 -0.0763  0.0483 -0.0616
  625DPPI   C3B 9965   8.964   6.854   9.023 -0.0693  0.0168  0.3075
  625DPPI   C4B 9966   8.931   6.681   8.596  0.0554 -0.1856 -0.0375
  626DPPI    C1 9967   4.287  15.634  10.589  0.1676 -0.0116  0.0567
  626DPPI    C2 9968   4.181  15.795  10.940 -0.1354 -0.1199  0.0184
  626DPPI    C3 9969   3.937  15.536  10.758  0.1436 -0.2755 -0.1405
  626DPPI   PO4 9970   4.218  15.856  10.286  0.0273 -0.1447 -0.3039
  626DPPI   GL1 9971   4.472  16.058   9.979  0.3890  0.1493 -0.0621
  626DPPI   GL2 9972   4.525  16.404   9.987  0.2470  0.0598 -0.0439
  626DPPI   C1A 9973   4.867  15.951   9.798  0.0264 -0.1140  0.2812
  626DPPI   C2A 9974   5.071  16.011   9.421  0.0983 -0.0147 -0.0755
  626DPPI   C3A 9975   5.071  16.001   8.993  0.0850  0.3347  0.1695
  626DPPI   C4A 9976   5.080  15.861   8.518  0.2254 -0.1335  0.0181
  626DPPI   C1B 9977   4.641  16.401   9.617 -0.0854  0.0883  0.0082
  626DPPI   C2B 9978   4.748  16.480   9.160  0.1624  0.1818 -0.0336
  626DPPI   C3B 9979   4.778  16.528   8.755  0.1176  0.0482 -0.1575
  626DPPI   C4B 9980   4.795  16.548   8.308  0.1387 -0.1367  0.2652
  627DPPI    C1 9981  11.179  17.863  10.942 -0.0400  0.1688 -0.1467
  627DPPI    C2 9982  10.823  17.990  11.073 -0.0062  0.1212 -0.0071
  627DPPI    C3 9983  11.100  17.867  11.334  0.0765  0.0627 -0.1214
  627DPPI   PO4 9984  11.239  17.986  10.834 -0.0717  0.1334  0.2160
  627DPPI   GL1 9985  11.052  18.006  10.370  0.3548  0.1247 -0.1051
  627DPPI   GL2 9986  11.292  17.963  10.334  0.1061 -0.0472  0.4060
  627DPPI   C1A 9987  10.884  17.920   9.978 -0.1022 -0.0034 -0.2250
  627DPPI   C2A 9988  10.869  17.941   9.573 -0.1835 -0.2017  0.1494
  627DPPI   C3A 9989  10.910  17.962   9.081  0.0686 -0.2338 -0.1745
  627DPPI   C4A 9990  10.988  18.065   8.622 -0.1586  0.1866 -0.0849
  627DPPI   C1B 9991  11.394  18.126   9.946 -0.1349 -0.0591 -0.0423
  627DPPI   C2B 9992  11.443  18.176   9.511  0.3395 -0.1148  0.3505
  627DPPI   C3B 9993  11.386  18.062   9.051  0.0055 -0.1211  0.0613
  627DPPI   C4B 9994  11.469  18.099   8.624 -0.2060 -0.1393 -0.2110
  628DPPI    C1 9995  13.102  11.163  10.767 -0.3728 -0.0843 -0.0847
  628DPPI    C2 9996  12.963  11.092  11.135 -0.0292  0.2037  0.1079
  628DPPI    C3 9997  12.863  11.430  10.945 -0.0851  0.1250 -0.0040
  628DPPI   PO4 9998  13.091  10.907  10.620 -0.2283  0.1185 -0.1342
  628DPPI   GL1 9999  13.201  10.948  10.306 -0.0700 -0.0341  0.1435
  628DPPI   GL210000  13.053  10.686  10.193 -0.0787 -0.4992  0.0402
  628DPPI   C1A10001  13.259  11.110   9.864 -0.0523 -0.0387 -0.2336
  628DPPI   C2A10002  13.254  11.042   9.527 -0.1550  0.1468  0.0215
  628DPPI   C3A10003  13.244  10.883   9.092 -0.1570 -0.0632 -0.0830
  628DPPI   C4A10004  13.281  10.972   8.550  0.1407  0.0282 -0.1427
  628DPPI   C1B10005  13.098  10.613   9.745 -0.2477  0.2629  0.1497
  628DPPI   C2B10006  13.026  10.535   9.373  0.2315  0.2225  0.0374
  628DPPI   C3B10007  12.932  10.543   8.908 -0.0162  0.0235 -0.2636
  628DPPI   C4B10008  12.929  10.563   8.499 -0.0571  0.2800 -0.0822
  629DPPI    C110009   4.607   8.119  10.682  0.0824 -0.0105 -0.0845
  629DPPI    C210010   4.367   8.361  10.892  0.1728  0.1884 -0.2071
  629DPPI    C310011   4.406   7.977  10.997 -0.0475  0.2020 -0.0694
  629DPPI   PO410012   4.468   8.060  10.411  0.1023  0.0600  0.1940
  629DPPI   GL110013   4.554   8.119   9.991  0.0266 -0.0603  0.1728
  629DPPI   GL210014   4.822   7.802  10.106  0.1350 -0.1222 -0.0684
  629DPPI   C1A10015   4.699   8.146   9.552 -0.0944  0.2292  0.0939
  629DPPI   C2A10016   4.660   8.189   9.062 -0.0632 -0.0623 -0.0676
  629DPPI   C3A10017   4.562   8.155   8.578 -0.2837  0.2796  0.3022
  629DPPI   C4A10018   4.723   8.323   8.244 -0.1414 -0.0176  0.1500
  629DPPI   C1B10019   4.908   7.718   9.734  0.1372 -0.1568  0.5715
  629DPPI   C2B10020   5.026   7.776   9.355  0.0701 -0.1394  0.0363
  629DPPI   C3B10021   4.967   7.777   8.912  0.0067  0.1179 -0.0258
  629DPPI   C4B10022   4.994   7.795   8.498  0.1947 -0.0953 -0.4141
  630DPPI    C110023  10.060  16.555  11.022  0.0211 -0.0242  0.0907
  630DPPI    C210024   9.699  16.513  11.189  0.0002 -0.1564  0.0133
  630DPPI    C310025   9.989  16.707  11.385 -0.0230 -0.3115  0.2046
  630DPPI   PO410026  10.028  16.591  10.697 -0.0770  0.0758 -0.0559
  630DPPI   GL110027  10.308  16.774  10.379  0.1409  0.0620 -0.2905
  630DPPI   GL210028  10.466  16.486  10.371 -0.0432  0.2148  0.0418
  630DPPI   C1A10029  10.254  16.675   9.882  0.0541  0.2416 -0.1965
  630DPPI   C2A10030  10.184  16.548   9.419 -0.3388 -0.3727  0.2645
  630DPPI   C3A10031  10.277  16.505   9.036  0.0896  0.1116 -0.2527
  630DPPI   C4A10032  10.312  16.614   8.588 -0.3739 -0.3982 -0.0004
  630DPPI   C1B10033  10.556  16.211  10.084 -0.0715 -0.1438  0.1093
  630DPPI   C2B10034  10.458  16.225   9.797  0.0243 -0.2002  0.3713
  630DPPI   C3B10035  10.459  16.143   9.395  0.2546  0.2014 -0.1050
  630DPPI   C4B10036  10.668  16.074   8.858 -0.1405  0.1474 -0.2258
  631DPPI    C110037   2.504   7.519  10.372  0.1146 -0.2593 -0.0762
  631DPPI    C210038   2.221   7.246  10.295  0.0194 -0.2093  0.0915
  631DPPI    C310039   2.383   7.269  10.660  0.0967 -0.1052  0.0511
  631DPPI   PO410040   2.703   7.492  10.249  0.1290 -0.2102 -0.3641
  631DPPI   GL110041   2.964   7.470   9.930  0.0200 -0.3960 -0.1673
  631DPPI   GL210042   3.176   7.561  10.037 -0.0772 -0.0440  0.1528
  631DPPI   C1A10043   2.810   7.559   9.574 -0.1812  0.3037  0.0036
  631DPPI   C2A10044   2.892   7.630   9.161 -0.1686 -0.2654 -0.0659
  631DPPI   C3A10045   2.849   7.561   8.767  0.2522 -0.0662 -0.2684
  631DPPI   C4A10046   2.821   7.445   8.315 -0.1037 -0.0240 -0.2989
  631DPPI   C1B10047   3.370   7.588   9.622  0.3203  0.3314 -0.3687
  631DPPI   C2B10048   3.399   7.655   9.234  0.2031  0.0960  0.0237
  631DPPI   C3B10049   3.339   7.601   8.802 -0.1259 -0.1620  0.0388
  631DPPI   C4B10050   3.452   7.526   8.455 -0.0077  0.0852  0.0819
  632DPPI    C110051  14.874  17.266  11.025  0.1806 -0.0508 -0.1426
  632DPPI    C210052  14.826  17.617  11.211 -0.0419 -0.0381 -0.2214
  632DPPI    C310053  14.952  17.298  11.417 -0.0650  0.0312 -0.0988
  632DPPI   PO410054  15.037  17.299  10.827  0.0391  0.1622  0.3739
  632DPPI   GL110055  15.020  17.391  10.372  0.2590  0.0102  0.4566
  632DPPI   GL210056  14.859  17.161  10.205  0.2104  0.1384 -0.1028
  632DPPI   C1A10057  15.057  17.538   9.961 -0.0081 -0.3225 -0.1422
  632DPPI   C2A10058  15.152  17.599   9.560 -0.0679  0.1452  0.0835
  632DPPI   C3A10059  15.082  17.678   9.174  0.0885  0.1403  0.2553
  632DPPI   C4A10060  15.077  17.677   8.766 -0.0564  0.3114 -0.0079
  632DPPI   C1B10061  14.983  17.100   9.758  0.0613 -0.0848 -0.1036
  632DPPI   C2B10062  14.930  17.156   9.293  0.1532  0.0838 -0.1050
  632DPPI   C3B10063  14.857  17.164   8.792 -0.0082 -0.2533 -0.1031
  632DPPI   C4B10064  14.857  17.406   8.465 -0.1913  0.2316  0.6310
  633DPPI    C110065  11.389   8.338  10.827  0.0911 -0.0284 -0.2524
  633DPPI    C210066  11.170   8.209  11.136  0.1548 -0.0757 -0.2269
  633DPPI    C310067  11.221   8.601  11.077  0.0841 -0.0651 -0.2184
  633DPPI   PO410068  11.275   8.121  10.666 -0.0801 -0.1743 -0.1269
  633DPPI   GL110069  11.201   8.057  10.309 -0.1025 -0.0539 -0.0330
  633DPPI   GL210070  10.987   7.941  10.245 -0.3185  0.0299 -0.0299
  633DPPI   C1A10071  11.382   8.069   9.892 -0.2791 -0.0069 -0.0544
  633DPPI   C2A10072  11.432   8.156   9.468  0.1096 -0.1669 -0.0810
  633DPPI   C3A10073  11.443   8.058   9.037  0.0058  0.2158  0.0372
  633DPPI   C4A10074  11.509   8.002   8.526 -0.1090  0.0365  0.2524
  633DPPI   C1B10075  10.899   7.982   9.859  0.2820 -0.0386 -0.3812
  633DPPI   C2B10076  10.836   8.038   9.411 -0.1386  0.0938 -0.2399
  633DPPI   C3B10077  10.944   8.026   9.057  0.1406 -0.0466  0.1387
  633DPPI   C4B10078  11.008   7.952   8.702  0.0263 -0.0198 -0.0564
  634DPPI    C110079   8.050   9.743  10.978  0.0865 -0.0031 -0.0389
  634DPPI    C210080   8.038   9.850  11.363 -0.0217 -0.0121 -0.0395
  634DPPI    C310081   7.864   9.510  11.245  0.0120 -0.0096 -0.0962
  634DPPI   PO410082   8.280   9.691  10.882 -0.3586  0.1782  0.0549
  634DPPI   GL110083   8.276   9.595  10.458 -0.3757  0.0194 -0.0798
  634DPPI   GL210084   8.558   9.398  10.461  0.0715 -0.2803 -0.0321
  634DPPI   C1A10085   8.088   9.512  10.068 -0.1777 -0.0026 -0.1340
  634DPPI   C2A10086   8.028   9.503   9.675  0.1158  0.2930  0.2365
  634DPPI   C3A10087   8.095   9.558   9.290  0.0222 -0.0390  0.0740
  634DPPI   C4A10088   8.162   9.540   8.938 -0.4037  0.3325  0.1672
  634DPPI   C1B10089   8.579   9.506  10.029  0.2692  0.1107  0.1155
  634DPPI   C2B10090   8.548   9.523   9.505 -0.0352  0.0896  0.3804
  634DPPI   C3B10091   8.622   9.615   9.141  0.1064 -0.3142  0.1839
  634DPPI   C4B10092   8.656   9.715   8.703 -0.0474  0.0747 -0.1645
  635PYPI    C110093  11.880   9.351  11.005 -0.2033  0.1516 -0.1054
  635PYPI    C210094  11.902   9.670  11.245 -0.0146  0.0034  0.0781
  635PYPI    C310095  11.645   9.374  11.328  0.2108 -0.1532  0.2292
  635PYPI   PO410096  12.019   9.422  10.723 -0.3357 -0.1637  0.1505
  635PYPI   GL110097  11.893   9.662  10.540 -0.2305  0.0315 -0.2756
  635PYPI   GL210098  12.146   9.571  10.204  0.0037 -0.2405 -0.2064
  635PYPI   C1A10099  11.626   9.554  10.172 -0.0024 -0.1438 -0.0053
  635PYPI   C2A10100  11.542   9.421   9.703  0.2959  0.0311 -0.2503
  635PYPI   D3A10101  11.594   9.472   9.320  0.1688  0.0466  0.0437
  635PYPI   C4A10102  11.505   9.450   8.972  0.1746  0.1106  0.0877
  635PYPI   C1B10103  12.069   9.589   9.781 -0.0325 -0.1202 -0.1706
  635PYPI   C2B10104  12.086   9.556   9.348  0.2155  0.2170 -0.2018
  635PYPI   C3B10105  12.086   9.469   8.866  0.3031 -0.0864 -0.2263
  635PYPI   C4B10106  11.958   9.502   8.444 -0.1409 -0.2742 -0.3273
  636PYPI    C110107  10.235  13.237  10.947 -0.2797 -0.1400  0.1428
  636PYPI    C210108  10.117  13.339  11.315 -0.1784  0.2131  0.0809
  636PYPI    C310109  10.501  13.251  11.245 -0.2258 -0.0068  0.0888
  636PYPI   PO410110  10.029  13.114  10.930 -0.0909 -0.0158 -0.0616
  636PYPI   GL110111   9.991  13.016  10.551 -0.1252  0.2836 -0.0460
  636PYPI   GL210112   9.964  13.289  10.502 -0.2915 -0.4990  0.0306
  636PYPI   C1A10113  10.106  12.914  10.107 -0.0799  0.0528 -0.5308
  636PYPI   C2A10114  10.180  12.835   9.730  0.2064  0.0453  0.1207
  636PYPI   D3A10115  10.047  12.915   9.350 -0.2455  0.1198  0.4753
  636PYPI   C4A10116  10.090  12.981   9.003  0.4456  0.0314 -0.2127
  636PYPI   C1B10117   9.889  13.324  10.136  0.0915  0.2848  0.0174
  636PYPI   C2B10118   9.808  13.206   9.785 -0.1398  0.2748  0.2311
  636PYPI   C3B10119   9.855  13.348   9.373  0.1438 -0.1023  0.0538
  636PYPI   C4B10120   9.866  13.423   8.853  0.1409  0.1833 -0.2009
  637PYPI    C110121   0.324   5.947  10.390 -0.1784 -0.3830 -0.1178
  637PYPI    C210122   0.542   5.912  10.724  0.0019 -0.0236 -0.1928
  637PYPI    C310123   0.144   5.878  10.741  0.0285 -0.2645  0.0139
  637PYPI   PO410124   0.443   5.972  10.204 -0.1029 -0.0452  0.3064
  637PYPI   GL110125   0.765   5.915   9.960 -0.0237  0.0539  0.1702
  637PYPI   GL210126   0.991   5.934  10.021 -0.0118  0.0831 -0.0102
  637PYPI   C1A10127   0.887   5.803   9.546  0.1062  0.0029  0.2200
  637PYPI   C2A10128   0.767   5.715   9.125  0.3241 -0.0866 -0.0510
  637PYPI   D3A10129   0.706   5.722   8.643  0.0525  0.2971  0.1764
  637PYPI   C4A10130   0.542   5.861   8.369 -0.5039  0.1322  0.0599
  637PYPI   C1B10131   1.206   6.147   9.796 -0.0347 -0.0225  0.1816
  637PYPI   C2B10132   1.367   6.292   9.459  0.1902 -0.0198  0.4726
  637PYPI   C3B10133   1.347   6.294   9.003  0.0624  0.2277 -0.1195
  637PYPI   C4B10134   1.330   6.407   8.613  0.2613  0.1625 -0.4435
  638PYPI    C110135  15.798  10.957  10.745  0.0438 -0.2427  0.1902
  638PYPI    C210136  15.748  11.190  11.066  0.0665 -0.1619  0.1354
  638PYPI    C310137  15.430  11.032  10.882  0.0025  0.3323 -0.1992
  638PYPI   PO410138  15.866  11.090  10.513  0.2696 -0.1241  0.0704
  638PYPI   GL110139  15.861  11.356  10.286  0.2128  0.0321  0.1817
  638PYPI   GL210140  16.050  11.573  10.110 -0.1503  0.1147  0.0074
  638PYPI   C1A10141  15.811  11.293   9.788  0.0976 -0.1474 -0.1268
  638PYPI   C2A10142  15.829  11.245   9.370 -0.0090 -0.1666 -0.1859
  638PYPI   D3A10143  15.822  11.241   8.963  0.1473 -0.1622  0.0927
  638PYPI   C4A10144  15.874  11.277   8.568 -0.0135  0.4102 -0.1692
  638PYPI   C1B10145  16.125  11.719   9.751  0.0528  0.1415  0.1590
  638PYPI   C2B10146  16.041  11.705   9.323 -0.0808  0.1702 -0.0847
  638PYPI   C3B10147  16.096  11.719   8.918 -0.0046 -0.0451  0.0620
  638PYPI   C4B10148  16.104  11.794   8.561  0.0899  0.1817 -0.0817
  639PYPI    C110149   7.824  11.244  11.382 -0.2006 -0.1694  0.1074
  639PYPI    C210150   7.603  11.077  11.670 -0.0231  0.0722  0.3892
  639PYPI    C310151   7.924  11.294  11.766  0.1562 -0.0125 -0.0025
  639PYPI   PO410152   7.641  11.369  11.103  0.1120  0.1760 -0.1148
  639PYPI   GL110153   7.514  11.439  10.684  0.1833  0.2787 -0.0577
  639PYPI   GL210154   7.841  11.360  10.580  0.0417  0.0204 -0.1289
  639PYPI   C1A10155   7.445  11.376  10.247 -0.0027  0.3055 -0.1716
  639PYPI   C2A10156   7.468  11.219   9.781 -0.1857 -0.0691 -0.1277
  639PYPI   D3A10157   7.375  11.209   9.396  0.2722 -0.2691 -0.2372
  639PYPI   C4A10158   7.365  11.226   9.035 -0.1740  0.1143  0.1196
  639PYPI   C1B10159   7.872  11.256  10.105 -0.0806 -0.1044 -0.3033
  639PYPI   C2B10160   7.935  11.290   9.706  0.1953  0.0061 -0.0387
  639PYPI   C3B10161   7.971  11.338   9.268  0.1706  0.2440  0.2036
  639PYPI   C4B10162   7.866  11.297   8.888  0.2911 -0.2220  0.0745
  640PYPI    C110163   7.873   7.842  10.984 -0.0010 -0.0287 -0.1502
  640PYPI    C210164   8.123   7.561  10.848  0.1456  0.0345 -0.0148
  640PYPI    C310165   7.979   7.536  11.220  0.2032  0.1677  0.0168
  640PYPI   PO410166   7.758   7.935  10.755 -0.1045  0.0333  0.0056
  640PYPI   GL110167   7.891   7.918  10.452 -0.1503  0.2893 -0.0372
  640PYPI   GL210168   7.823   8.196  10.322  0.0544  0.0978 -0.0788
  640PYPI   C1A10169   7.759   7.655  10.167  0.1827 -0.0931 -0.2411
  640PYPI   C2A10170   7.749   7.675   9.689  0.3667  0.3021 -0.1292
  640PYPI   D3A10171   7.818   7.630   9.222  0.0690 -0.0195  0.2611
  640PYPI   C4A10172   7.858   7.447   8.785 -0.1432 -0.2528  0.0844
  640PYPI   C1B10173   7.910   8.137   9.865 -0.1734 -0.1100 -0.0977
  640PYPI   C2B10174   7.998   8.161   9.408  0.0322  0.1158 -0.0423
  640PYPI   C3B10175   7.997   8.012   9.002  0.1942 -0.1249  0.0737
  640PYPI   C4B10176   8.071   8.258   8.632 -0.1174 -0.0328  0.1326
  641ERGO   ROH10177   8.928  17.324  10.221  0.1989  0.3174 -0.0622
  641ERGO    R110178   9.021  17.470   9.998  0.0731  0.1860 -0.2013
  641ERGO    R210179   9.162  17.352   9.791 -0.1353  0.0471 -0.2601
  641ERGO    R310180   8.967  17.464   9.637 -0.2141  0.0494 -0.1616
  641ERGO    R410181   9.175  17.380   9.447 -0.1554  0.3220 -0.2420
  641ERGO    R510182   9.088  17.579   9.465 -0.2828  0.2626 -0.0784
  641ERGO    C110183   9.000  17.500   9.102 -0.2412  0.4841 -0.1390
  641ERGO    C210184   9.211  17.393   8.835  0.0231  0.3058  0.1949
  642ERGO   ROH10185   0.865   6.856   9.708  0.0503 -0.0047 -0.1029
  642ERGO    R110186   1.022   6.877   9.473  0.1110 -0.1363 -0.0751
  642ERGO    R210187   1.027   6.681   9.279 -0.2199 -0.0328 -0.1929
  642ERGO    R310188   0.961   6.886   9.114  0.1543  0.1899 -0.0782
  642ERGO    R410189   1.085   6.688   8.938 -0.3429 -0.0276 -0.2143
  642ERGO    R510190   1.141   6.898   8.957  0.1254 -0.1425 -0.1469
  642ERGO    C110191   1.057   6.885   8.585 -0.0632  0.1846 -0.1190
  642ERGO    C210192   1.135   6.874   8.211  0.1851 -0.0149  0.1778
  643ERGO   ROH10193   8.215   5.042  10.325  0.2548 -0.1458  0.0427
  643ERGO    R110194   8.148   4.902  10.089  0.2045 -0.0554  0.0049
  643ERGO    R210195   8.046   5.027   9.865  0.1932  0.0320  0.0696
  643ERGO    R310196   8.254   4.905   9.741  0.1546  0.0443 -0.0126
  643ERGO    R410197   8.115   5.049   9.527  0.0524  0.0542  0.0400
  643ERGO    R510198   8.165   4.837   9.529  0.0654  0.0471  0.0153
  643ERGO    C110199   8.350   4.947   9.214 -0.0659  0.0787 -0.0543
  643ERGO    C210200   8.200   4.951   8.868 -0.2599  0.0706  0.3061
  644ERGO   ROH10201  10.225   9.756  10.086 -0.0113  0.0461 -0.0408
  644ERGO    R110202  10.105   9.670   9.844 -0.0153  0.0358 -0.0350
  644ERGO    R210203  10.018   9.847   9.650 -0.0086  0.0269 -0.0451
  644ERGO    R310204  10.178   9.698   9.489 -0.0154  0.0104 -0.0370
  644ERGO    R410205  10.045   9.887   9.308  0.2013  0.1915 -0.0113
  644ERGO    R510206  10.050   9.670   9.288  0.0737  0.1973 -0.1223
  644ERGO    C110207  10.211   9.771   8.957  0.3172  0.2719  0.0160
  644ERGO    C210208  10.147   9.791   8.626 -0.0316 -0.1740 -0.2697
  645ERGO   ROH10209  12.579   9.750  10.045 -0.1194  0.1778 -0.0383
  645ERGO    R110210  12.674   9.687   9.786 -0.0415  0.0380  0.0219
  645ERGO    R210211  12.547   9.505   9.621 -0.0977  0.0801  0.0089
  645ERGO    R310212  12.549   9.712   9.445  0.1333  0.0361 -0.0417
  645ERGO    R410213  12.534   9.471   9.278  0.0256  0.0161  0.0109
  645ERGO    R510214  12.681   9.632   9.262  0.1501 -0.1009  0.0340
  645ERGO    C110215  12.528   9.646   8.912  0.3142 -0.0624 -0.0354
  645ERGO    C210216  12.486   9.533   8.572  0.0901 -0.1866 -0.3674
  646ERGO   ROH10217   3.998  13.717  10.120  0.3766  0.2796 -0.0368
  646ERGO    R110218   3.902  13.637   9.866  0.2938  0.1565  0.0330
  646ERGO    R210219   3.814  13.817   9.676  0.0837  0.0564  0.0320
  646ERGO    R310220   3.995  13.689   9.518  0.0814  0.1281 -0.0293
  646ERGO    R410221   3.820  13.833   9.331 -0.0598  0.0284  0.0271
  646ERGO    R510222   3.868  13.620   9.327  0.0388  0.0512  0.0269
  646ERGO    C110223   3.994  13.723   8.982 -0.1455  0.0794 -0.0332
  646ERGO    C210224   4.031  13.650   8.594 -0.1656  0.0335 -0.1238
  647ERGO   ROH10225  14.452   0.921  10.306 -0.1412 -0.0685  0.0260
  647ERGO    R110226  14.595   0.913  10.062 -0.1290  0.1110  0.0256
  647ERGO    R210227  14.641   0.677   9.924  0.2507  0.1479  0.0742
  647ERGO    R310228  14.526   0.814   9.719  0.0211 -0.0766  0.0484
  647ERGO    R410229  14.745   0.664   9.595  0.1997  0.1801  0.0568
  647ERGO    R510230  14.710   0.878   9.580 -0.0957  0.1286 -0.0109
  647ERGO    C110231  14.698   0.785   9.210 -0.0455 -0.0121  0.0225
  647ERGO    C210232  14.677   0.697   8.806  0.1904  0.1965 -0.0473
  648ERGO   ROH10233   0.989   0.881   9.900  0.2288 -0.1765 -0.0992
  648ERGO    R110234   0.881   0.857   9.639  0.1774  0.0418 -0.0990
  648ERGO    R210235   0.857   1.073   9.467  0.4920  0.1168 -0.0488
  648ERGO    R310236   0.997   0.912   9.299  0.2429 -0.0592 -0.0944
  648ERGO    R410237   0.906   1.134   9.131  0.5658  0.1316 -0.0359
  648ERGO    R510238   0.876   0.922   9.093  0.2400  0.1781 -0.0874
  648ERGO    C110239   1.066   1.019   8.777  0.3748 -0.0251 -0.0713
  648ERGO    C210240   1.114   1.022   8.563  0.1004  0.1264  0.0971
  649ERGO   ROH10241  14.972  14.433  10.188 -0.1205  0.1810 -0.0542
  649ERGO    R110242  14.796  14.319   9.997 -0.0598  0.1913 -0.1170
  649ERGO    R210243  14.686  14.465   9.790  0.0757  0.1815 -0.1972
  649ERGO    R310244  14.794  14.268   9.637  0.0984  0.1255 -0.1094
  649ERGO    R410245  14.693  14.465   9.445  0.2069  0.0997 -0.1950
  649ERGO    R510246  14.647  14.252   9.449  0.1666  0.1085 -0.1619
  649ERGO    C110247  14.798  14.280   9.100  0.3044 -0.0006 -0.1112
  649ERGO    C210248  14.757  14.282   8.688 -0.2640 -0.0957  0.2545
  650ERGO   ROH10249  10.184   0.246  10.266  0.0794 -0.1477 -0.0831
  650ERGO    R110250  10.108   0.110  10.029 -0.0269 -0.0589 -0.1019
  650ERGO    R210251   9.944   0.224   9.838  0.0222  0.0792 -0.0696
  650ERGO    R310252  10.149   0.161   9.671 -0.0277 -0.0156 -0.0945
  650ERGO    R410253   9.917   0.192   9.495 -0.0139  0.1408 -0.0722
  650ERGO    R510254  10.050   0.020   9.506 -0.1155  0.0666 -0.1074
  650ERGO    C110255  10.095   0.114   9.139 -0.0821  0.0875 -0.0970
  650ERGO    C210256  10.086   0.141   8.782 -0.0849 -0.3032  0.1313
  651ERGO   ROH10257  11.179  16.350  10.186  0.0224 -0.2196 -0.0543
  651ERGO    R110258  11.156  16.179   9.962 -0.2173 -0.0951 -0.1295
  651ERGO    R210259  10.965  16.216   9.765 -0.2380  0.1946 -0.0640
  651ERGO    R310260  11.182  16.213   9.600 -0.2823  0.0486 -0.1201
  651ERGO    R410261  10.951  16.210   9.420 -0.3275  0.2298 -0.0604
  651ERGO    R510262  11.117  16.070   9.420 -0.4313  0.1098 -0.1141
  651ERGO    C110263  11.145  16.205   9.064 -0.4211  0.1135 -0.1111
  651ERGO    C210264  11.164  16.208   8.708  0.1144 -0.1403  0.1888
  652ERGO   ROH10265   9.476  13.764  10.476  0.2788  0.0272  0.1034
  652ERGO    R110266   9.540  13.851  10.214  0.2736 -0.1970  0.0251
  652ERGO    R210267   9.630  13.679  10.018 -0.0443 -0.4269  0.0701
  652ERGO    R310268   9.422  13.783   9.877  0.0221 -0.2266  0.1170
  652ERGO    R410269   9.602  13.669   9.674  0.0206 -0.1079  0.0527
  652ERGO    R510270   9.524  13.873   9.679  0.0926 -0.0858  0.2182
  652ERGO    C110271   9.390  13.761   9.340  0.1206  0.2659  0.0866
  652ERGO    C210272   9.538  13.799   8.914 -0.3320  0.1185  0.2421
  653ERGO   ROH10273   6.750  13.541   6.239 -0.2360 -0.0464  0.0226
  653ERGO    R110274   6.865  13.705   6.439 -0.1133 -0.1207  0.0134
  653ERGO    R210275   6.721  13.900   6.572  0.0303 -0.0120  0.0096
  653ERGO    R310276   6.811  13.769   6.793 -0.0589 -0.0664  0.0118
  653ERGO    R410277   6.769  14.045   6.883  0.2244 -0.0092 -0.0203
  653ERGO    R510278   6.952  13.928   6.903  0.1154 -0.1845 -0.0359
  653ERGO    C110279   6.882  14.006   7.270  0.2536 -0.0586 -0.0356
  653ERGO    C210280   6.716  14.179   7.479 -0.0155 -0.2133  0.2811
  654ERGO   ROH10281  17.560  10.728   9.817 -0.1693  0.0138 -0.0769
  654ERGO    R110282  17.597  10.621   9.558 -0.1135  0.0500 -0.0855
  654ERGO    R210283  17.386  10.545   9.396 -0.0873  0.0161 -0.1111
  654ERGO    R310284  17.505  10.713   9.218 -0.1032  0.0744 -0.0853
  654ERGO    R410285  17.372  10.512   9.052 -0.0782  0.0706 -0.1164
  654ERGO    R510286  17.582  10.570   9.043 -0.0744  0.1077 -0.1070
  654ERGO    C110287  17.475  10.650   8.685 -0.0878  0.1572 -0.0954
  654ERGO    C210288  17.518  10.614   8.326 -0.3337 -0.1542 -0.0494
  655ERGO   ROH10289   4.668   2.688  10.147  0.0093 -0.0443 -0.0009
  655ERGO    R110290   4.641   2.752   9.872 -0.0890 -0.1805 -0.0251
  655ERGO    R210291   4.820   2.916   9.739 -0.3985  0.1605 -0.0525
  655ERGO    R310292   4.837   2.704   9.569  0.0612  0.1290  0.0211
  655ERGO    R410293   4.821   2.939   9.394 -0.4844  0.0292 -0.0612
  655ERGO    R510294   4.693   2.763   9.387 -0.0905 -0.2647  0.0123
  655ERGO    C110295   4.838   2.754   9.034 -0.1030 -0.0768  0.0026
  655ERGO    C210296   4.780   2.879   8.882  0.0936 -0.2342  0.0479
  656ERGO   ROH10297   4.107  11.496  10.321 -0.1899 -0.1887  0.2228
  656ERGO    R110298   4.070  11.344  10.085 -0.2181 -0.0657  0.1464
  656ERGO    R210299   3.855  11.382   9.914 -0.0930  0.2119  0.0441
  656ERGO    R310300   4.051  11.410   9.728  0.0364  0.0885  0.1589
  656ERGO    R410301   3.811  11.347   9.574  0.1288  0.0475  0.0298
  656ERGO    R510302   4.001  11.243   9.564  0.1212  0.0132  0.2090
  656ERGO    C110303   3.968  11.353   9.200  0.3794 -0.1640  0.1294
  656ERGO    C210304   4.004  11.267   8.818 -0.0328 -0.2622  0.1137
  657ERGO   ROH10305  11.609   8.426  10.369 -0.2803 -0.2314 -0.0218
  657ERGO    R110306  11.504   8.524  10.125 -0.2291 -0.1502 -0.0146
  657ERGO    R210307  11.623   8.731   9.984 -0.2052 -0.0763  0.0807
  657ERGO    R310308  11.618   8.551   9.781 -0.1354 -0.0186  0.0312
  657ERGO    R410309  11.641   8.811   9.649 -0.0185 -0.0265  0.1036
  657ERGO    R510310  11.491   8.659   9.609 -0.0144  0.0268 -0.0106
  657ERGO    C110311  11.647   8.689   9.262  0.1557  0.0566  0.0706
  657ERGO    C210312  11.702   8.606   8.995 -0.1932 -0.0035 -0.0937
  658ERGO   ROH10313   1.536   3.469   9.978  0.0891 -0.1949 -0.1157
  658ERGO    R110314   1.764   3.525   9.819  0.0534 -0.0766 -0.1245
  658ERGO    R210315   1.900   3.329   9.680  0.1407 -0.0009 -0.1360
  658ERGO    R310316   1.855   3.494   9.469  0.0557 -0.0163 -0.1313
  658ERGO    R410317   2.008   3.272   9.357  0.1415  0.0335 -0.1425
  658ERGO    R510318   2.056   3.483   9.340  0.0569  0.0600 -0.1456
  658ERGO    C110319   2.029   3.393   8.970  0.0622  0.0392 -0.1418
  658ERGO    C210320   1.967   3.367   8.589  0.0648 -0.2172  0.0467
  659ERGO   ROH10321   6.321   4.432  10.418  0.2528  0.1706  0.0011
  659ERGO    R110322   6.437   4.451  10.161  0.0709  0.2131 -0.0794
  659ERGO    R210323   6.497   4.229  10.008  0.2544  0.2239 -0.0216
  659ERGO    R310324   6.346   4.356   9.821 -0.0232 -0.0404  0.0137
  659ERGO    R410325   6.546   4.207   9.667  0.3145  0.4293 -0.0278
  659ERGO    R510326   6.503   4.420   9.652 -0.1484  0.3522  0.0352
  659ERGO    C110327   6.433   4.314   9.293  0.0889  0.3007  0.0018
  659ERGO    C210328   6.413   4.374   8.946 -0.1986  0.1054 -0.1499
  660ERGO   ROH10329   8.034   6.503   6.605  0.2844 -0.1007  0.0219
  660ERGO    R110330   8.037   6.565   6.881 -0.0071 -0.0120  0.0086
  660ERGO    R210331   7.823   6.513   7.047 -0.0243 -0.3670 -0.1161
  660ERGO    R310332   8.009   6.380   7.193  0.1396  0.0209  0.0420
  660ERGO    R410333   7.774   6.392   7.368 -0.0554 -0.4835 -0.1641
  660ERGO    R510334   7.976   6.457   7.417 -0.2263 -0.0517  0.0196
  660ERGO    C110335   7.922   6.197   7.691  0.0804 -0.1873 -0.0436
  660ERGO    C210336   7.970   5.955   7.933  0.2907  0.1153 -0.3728
  661ERGO   ROH10337  11.366   9.860  10.410  0.2685  0.0214  0.0283
  661ERGO    R110338  11.209   9.867  10.174  0.0692 -0.0198  0.1556
  661ERGO    R210339  11.266  10.036   9.962 -0.2029  0.0615  0.1385
  661ERGO    R310340  11.263   9.805   9.819 -0.1817  0.0879  0.0974
  661ERGO    R410341  11.216  10.016   9.621 -0.0884  0.1247  0.1185
  661ERGO    R510342  11.092   9.839   9.654 -0.1194  0.1351  0.0453
  661ERGO    C110343  11.184   9.787   9.288 -0.0018  0.1863  0.0684
  661ERGO    C210344  11.226   9.993   8.911  0.0498 -0.1769 -0.3044
  662ERGO   ROH10345   4.386   6.250  10.082 -0.2174  0.1539 -0.1153
  662ERGO    R110346   4.282   6.369   9.847 -0.2291 -0.0015 -0.1894
  662ERGO    R210347   4.443   6.493   9.658 -0.2727  0.2244 -0.0800
  662ERGO    R310348   4.319   6.321   9.488  0.0867  0.0372 -0.1651
  662ERGO    R410349   4.429   6.529   9.315 -0.0380  0.1574 -0.0994
  662ERGO    R510350   4.222   6.462   9.321  0.0400 -0.1094 -0.2631
  662ERGO    C110351   4.304   6.389   8.955  0.4362 -0.0573 -0.1905
  662ERGO    C210352   4.290   6.283   8.610  0.0133 -0.0478  0.0453
  663ERGO   ROH10353  16.637  15.746   9.725  0.0326 -0.3206 -0.0013
  663ERGO    R110354  16.688  15.808   9.453  0.0267  0.2140  0.1101
  663ERGO    R210355  16.625  15.635   9.246  0.6580  0.3005 -0.1744
  663ERGO    R310356  16.490  15.851   9.151  0.0753  0.0595  0.0544
  663ERGO    R410357  16.539  15.686   8.916  0.4026  0.3599 -0.1020
  663ERGO    R510358  16.590  15.896   8.939 -0.1072  0.4843  0.0458
  663ERGO    C110359  16.362  15.919   8.634 -0.2934  0.1683  0.1550
  663ERGO    C210360  16.302  16.078   8.313 -0.1795 -0.1565  0.0716
  664ERGO   ROH10361   9.712   2.734  10.533 -0.0599 -0.2525  0.0031
  664ERGO    R110362   9.620   2.713  10.266  0.0915 -0.2337 -0.0516
  664ERGO    R210363   9.553   2.934  10.114 -0.0715 -0.2355  0.0170
  664ERGO    R310364   9.731   2.826   9.939  0.1313  0.0321  0.0510
  664ERGO    R410365   9.522   2.944   9.770 -0.0309 -0.2987  0.0112
  664ERGO    R510366   9.595   2.739   9.762  0.2939 -0.1912  0.0317
  664ERGO    C110367   9.671   2.848   9.405  0.1832 -0.0844  0.0398
  664ERGO    C210368   9.699   2.865   9.083  0.0864 -0.3297 -0.0281
  665ERGO   ROH10369  15.956  12.522  10.154  0.0923  0.0510  0.0682
  665ERGO    R110370  15.908  12.658   9.910 -0.0103 -0.0205  0.0459
  665ERGO    R210371  16.092  12.662   9.703  0.0172  0.1326  0.0616
  665ERGO    R310372  15.881  12.569   9.559  0.1191 -0.0923  0.0560
  665ERGO    R410373  16.060  12.691   9.360 -0.0621  0.1759  0.0734
  665ERGO    R510374  15.848  12.735   9.389 -0.1089 -0.0966  0.1025
  665ERGO    C110375  15.843  12.621   9.025 -0.0126 -0.0101  0.0751
  665ERGO    C210376  16.014  12.627   8.785  0.0001  0.1662  0.1324
  666ERGO   ROH10377  15.265  15.546   9.980 -0.1951  0.0050  0.0806
  666ERGO    R110378  15.304  15.504   9.703 -0.0719  0.0372  0.0916
  666ERGO    R210379  15.307  15.252   9.589  0.0497  0.0445  0.0717
  666ERGO    R310380  15.115  15.358   9.429  0.0806 -0.0002  0.0060
  666ERGO    R410381  15.269  15.182   9.253  0.0624 -0.1094  0.1024
  666ERGO    R510382  15.224  15.392   9.219  0.1008 -0.1196 -0.0021
  666ERGO    C110383  15.067  15.240   8.906  0.0989 -0.2410  0.0585
  666ERGO    C210384  15.149  15.226   8.583  0.0912  0.0331  0.0642
  667ERGO   ROH10385   8.302   7.616  10.264 -0.0424 -0.0931 -0.1461
  667ERGO    R110386   8.211   7.655   9.998  0.0782  0.0360 -0.1699
  667ERGO    R210387   8.317   7.849   9.832  0.2778  0.0042 -0.0896
  667ERGO    R310388   8.356   7.639   9.665  0.1870  0.0127 -0.1207
  667ERGO    R410389   8.341   7.874   9.489 -0.1871 -0.0211 -0.1290
  667ERGO    R510390   8.222   7.691   9.473 -0.0957 -0.0923  0.0463
  667ERGO    C110391   8.391   7.690   9.131 -0.5430 -0.0279 -0.1811
  667ERGO    C210392   8.333   7.636   8.786 -0.0804 -0.1633 -0.0205
  668ERGO   ROH10393  16.627   7.280  10.024  0.2153  0.3529 -0.1045
  668ERGO    R110394  16.568   7.374   9.763  0.1633  0.2805 -0.1200
  668ERGO    R210395  16.733   7.328   9.547  0.0867  0.1597 -0.1569
  668ERGO    R310396  16.507   7.226   9.436  0.0240  0.1838 -0.0510
  668ERGO    R410397  16.663   7.327   9.209 -0.0784  0.1770 -0.1226
  668ERGO    R510398  16.456   7.377   9.257 -0.0500  0.1931 -0.0210
  668ERGO    C110399  16.409   7.231   8.908 -0.2332  0.2097 -0.0032
  668ERGO    C210400  16.421   7.394   8.640  0.3225  0.0325  0.2967
  669ERGO   ROH10401   4.383   0.548   9.821  0.0910 -0.0065  0.1376
  669ERGO    R110402   4.596   0.486   9.646  0.0849  0.0400  0.1131
  669ERGO    R210403   4.564   0.324   9.424  0.1044 -0.0021  0.1400
  669ERGO    R310404   4.672   0.537   9.294  0.0131  0.0162  0.0940
  669ERGO    R410405   4.652   0.327   9.090  0.0491 -0.0186  0.1256
  669ERGO    R510406   4.831   0.440   9.143  0.0207  0.0479  0.0815
  669ERGO    C110407   4.805   0.528   8.773 -0.0688 -0.0111  0.0739
  669ERGO    C210408   4.712   0.702   8.501 -0.0745  0.3465 -0.0088
  670ERGO   ROH10409  10.051   1.152  10.305  0.1596  0.1588  0.1046
  670ERGO    R110410   9.981   1.007  10.071  0.0650  0.1287  0.1507
  670ERGO    R210411   9.800   1.103   9.885  0.0618  0.1482  0.1625
  670ERGO    R310412  10.005   1.058   9.712  0.0143  0.0382  0.1341
  670ERGO    R410413   9.775   1.112   9.540  0.0199  0.1682  0.1664
  670ERGO    R510414   9.906   0.939   9.531 -0.0764  0.0960  0.1454
  670ERGO    C110415   9.953   1.075   9.178 -0.0490  0.0765  0.1420
  670ERGO    C210416   9.977   1.077   8.790  0.0680  0.0716 -0.1947
  671ERGO   ROH10417  10.385  15.758  10.338 -0.1171  0.0272 -0.1223
  671ERGO    R110418  10.347  15.646  10.081 -0.1164  0.0355 -0.1265
  671ERGO    R210419  10.188  15.766   9.889 -0.1292  0.0345 -0.1192
  671ERGO    R310420  10.413  15.746   9.737 -0.1306  0.0548 -0.1230
  671ERGO    R410421  10.194  15.686   9.552 -0.1201 -0.0354 -0.1023
  671ERGO    R510422  10.369  15.563   9.589 -0.0914  0.0145 -0.0827
  671ERGO    C110423  10.408  15.621   9.215 -0.1163 -0.0570 -0.0960
  671ERGO    C210424  10.397  15.602   8.874 -0.1522  0.3696 -0.0415
  672ERGO   ROH10425  17.174   2.262   9.511 -0.2551  0.1535  0.0783
  672ERGO    R110426  17.111   2.354   9.251 -0.0063  0.0414 -0.0254
  672ERGO    R210427  17.236   2.256   9.024  0.0985 -0.1762  0.1191
  672ERGO    R310428  16.980   2.208   8.944  0.1236 -0.0582 -0.0331
  672ERGO    R410429  17.145   2.145   8.710  0.2302 -0.1401  0.0684
  672ERGO    R510430  16.975   2.281   8.716  0.2915 -0.0619 -0.0371
  672ERGO    C110431  16.853   2.035   8.451  0.3304 -0.0084 -0.1041
  672ERGO    C210432  16.769   1.713   8.351  0.0566  0.5019 -0.1293
  673ERGO   ROH10433  16.065   3.587   9.746 -0.1466 -0.0767  0.0568
  673ERGO    R110434  15.880   3.640   9.540 -0.0937  0.0021  0.0290
  673ERGO    R210435  15.929   3.824   9.339 -0.0060  0.0161  0.0629
  673ERGO    R310436  15.873   3.613   9.177 -0.0333  0.0532  0.0238
  673ERGO    R410437  15.900   3.842   8.995 -0.0546  0.0937  0.0709
  673ERGO    R510438  15.731   3.705   9.007 -0.0558  0.0942  0.0644
  673ERGO    C110439  15.831   3.654   8.642 -0.1086  0.1737  0.0388
  673ERGO    C210440  15.902   3.667   8.331  0.4514  0.4163 -0.0331
  674PSPI    C110441   2.275   3.159   5.484 -0.0636 -0.2449 -0.0171
  674PSPI    C210442   2.023   2.906   5.304  0.1111 -0.2617 -0.2427
  674PSPI    C310443   2.377   2.988   5.137  0.1807 -0.0985 -0.0198
  674PSPI   PO410444   2.172   3.075   5.761 -0.2174 -0.0391 -0.2703
  674PSPI   GL110445   2.358   3.127   6.271 -0.1382  0.2450  0.1311
  674PSPI   GL210446   2.088   3.355   6.285  0.1889 -0.1305  0.2399
  674PSPI   C1A10447   2.484   3.141   6.662 -0.0689 -0.0560  0.1737
  674PSPI   C2A10448   2.511   3.035   7.048 -0.1287  0.0680  0.0907
  674PSPI   C3A10449   2.339   2.811   7.371  0.2203  0.0578 -0.1725
  674PSPI   C4A10450   2.117   2.800   7.772  0.0398 -0.0020  0.1420
  674PSPI   C1B10451   2.019   2.989   6.613 -0.1049  0.2600 -0.0028
  674PSPI   C2B10452   2.129   2.767   6.872 -0.1626 -0.1429  0.1554
  674PSPI   C3B10453   2.229   2.470   7.023 -0.0212  0.2230  0.0226
  674PSPI   C4B10454   2.488   2.329   7.218  0.2063  0.2905 -0.2714
  675PSPI    C110455  12.572   1.780   5.699  0.0143  0.1252  0.0496
  675PSPI    C210456  12.522   1.826   5.305 -0.0861 -0.3908 -0.0054
  675PSPI    C310457  12.783   2.057   5.502 -0.2302  0.0554 -0.3205
  675PSPI   PO410458  12.265   1.858   5.836 -0.0531 -0.1457 -0.1281
  675PSPI   GL110459  12.263   1.867   6.275 -0.2741  0.2921  0.1148
  675PSPI   GL210460  12.486   2.053   6.263 -0.3017 -0.1858 -0.0625
  675PSPI   C1A10461  12.413   1.699   6.725 -0.2183  0.2023  0.1559
  675PSPI   C2A10462  12.354   1.780   7.190  0.1236 -0.2342  0.0224
  675PSPI   C3A10463  12.469   1.838   7.664 -0.2386 -0.0293 -0.1831
  675PSPI   C4A10464  12.567   1.784   8.176 -0.1635 -0.1280 -0.1287
  675PSPI   C1B10465  12.434   2.251   6.624  0.0813  0.0504  0.0612
  675PSPI   C2B10466  12.404   2.338   6.987  0.1147 -0.0439  0.2830
  675PSPI   C3B10467  12.304   2.712   7.206  0.0925 -0.0327 -0.1115
  675PSPI   C4B10468  12.200   2.765   7.587  0.0420  0.1288  0.1115
  676PSPI    C110469   4.887  14.844   5.897 -0.0715  0.1936  0.3158
  676PSPI    C210470   4.832  14.449   5.939  0.0238  0.1648  0.1762
  676PSPI    C310471   4.601  14.706   6.140 -0.3112  0.0412 -0.0433
  676PSPI   PO410472   5.115  14.828   5.918  0.2695 -0.1596  0.1354
  676PSPI   GL110473   5.363  15.074   6.263 -0.0445 -0.0155 -0.1976
  676PSPI   GL210474   5.024  15.006   6.417  0.0953 -0.0274  0.0426
  676PSPI   C1A10475   5.461  14.859   6.614 -0.1521  0.0363  0.1899
  676PSPI   C2A10476   5.452  14.962   7.095 -0.3247 -0.1346  0.0564
  676PSPI   C3A10477   5.176  15.212   7.378 -0.2663 -0.1400 -0.1853
  676PSPI   C4A10478   5.071  15.349   7.631  0.0143 -0.0042 -0.0694
  676PSPI   C1B10479   5.015  15.067   6.797 -0.1966  0.0655 -0.0351
  676PSPI   C2B10480   4.941  15.494   7.057  0.1871  0.0322 -0.0303
  676PSPI   C3B10481   4.660  15.531   7.288  0.1095 -0.2352 -0.0547
  676PSPI   C4B10482   4.645  15.591   7.737  0.1190  0.2816 -0.6347
  677PSPI    C110483  16.601  12.755   5.587  0.6240  0.1492  0.0717
  677PSPI    C210484  16.799  12.409   5.618 -0.0574 -0.2675 -0.0133
  677PSPI    C310485  16.538  12.463   5.320 -0.0331  0.2897  0.0570
  677PSPI   PO410486  16.415  12.737   5.823  0.1035  0.0865 -0.0123
  677PSPI   GL110487  16.642  12.630   6.101  0.0108  0.0433  0.1721
  677PSPI   GL210488  16.960  12.706   6.221  0.1019  0.2057  0.1604
  677PSPI   C1A10489  16.593  12.598   6.482  0.1305  0.6813 -0.1614
  677PSPI   C2A10490  16.918  12.497   6.789  0.0484 -0.0641 -0.1173
  677PSPI   C3A10491  16.944  12.365   7.222  0.1975  0.0230  0.0107
  677PSPI   C4A10492  17.063  12.465   7.654 -0.0158  0.2030  0.1429
  677PSPI   C1B10493  17.228  12.419   6.370  0.1265  0.0874 -0.1477
  677PSPI   C2B10494  17.296  12.143   6.653 -0.0731  0.0671 -0.3944
  677PSPI   C3B10495  17.250  11.712   6.884  0.1905  0.1466  0.0783
  677PSPI   C4B10496  17.301  11.267   7.148  0.0923 -0.0460 -0.1103
  678PSPI    C110497   4.850   3.581   5.873 -0.1122  0.1236  0.0077
  678PSPI    C210498   4.957   3.879   5.628 -0.0398  0.0475 -0.0536
  678PSPI    C310499   4.849   3.525   5.477  0.1874 -0.0598  0.0303
  678PSPI   PO410500   5.064   3.509   6.019 -0.2246  0.2855  0.2947
  678PSPI   GL110501   5.137   3.381   6.436  0.2617  0.0409 -0.1977
  678PSPI   GL210502   5.297   3.647   6.403 -0.1419  0.0232 -0.1048
  678PSPI   C1A10503   5.039   3.362   6.934  0.0054 -0.0586 -0.0988
  678PSPI   C2A10504   5.036   3.480   7.395  0.0855  0.2708 -0.2036
  678PSPI   C3A10505   4.964   3.176   7.731 -0.0066 -0.3246 -0.1410
  678PSPI   C4A10506   4.973   2.826   8.031  0.0736 -0.0510 -0.0108
  678PSPI   C1B10507   5.099   3.912   6.681 -0.0930 -0.0165  0.1121
  678PSPI   C2B10508   5.022   4.040   7.036  0.0313  0.1810 -0.1349
  678PSPI   C3B10509   4.915   4.150   7.424 -0.0573  0.2048  0.0390
  678PSPI   C4B10510   5.046   4.025   7.805  0.0902  0.0175 -0.1936
  679PSPI    C110511   8.357  15.820   6.014 -0.0500 -0.1059 -0.2168
  679PSPI    C210512   8.526  15.463   5.950  0.2557  0.0056 -0.0556
  679PSPI    C310513   8.637  15.779   5.731  0.2174  0.0695  0.0170
  679PSPI   PO410514   8.110  15.786   6.168 -0.0401  0.0865  0.0255
  679PSPI   GL110515   8.035  15.917   6.671  0.1531  0.2469  0.0702
  679PSPI   GL210516   7.878  15.640   6.562 -0.0113 -0.0615  0.3522
  679PSPI   C1A10517   8.387  15.959   6.752 -0.0530 -0.0864  0.0667
  679PSPI   C2A10518   8.722  16.134   6.578  0.0315  0.0041 -0.0985
  679PSPI   C3A10519   8.967  16.486   6.688 -0.0389 -0.1776 -0.0100
  679PSPI   C4A10520   9.126  16.710   7.067  0.2730  0.2156 -0.2212
  679PSPI   C1B10521   7.908  15.449   6.849 -0.0546 -0.0016  0.1161
  679PSPI   C2B10522   7.726  15.396   7.243 -0.1556  0.0896 -0.1102
  679PSPI   C3B10523   7.683  15.253   7.601  0.2082 -0.1820 -0.0469
  679PSPI   C4B10524   7.631  15.272   7.949  0.0436 -0.5413 -0.1551
  680PSPI    C110525  17.046   0.900   5.607 -0.0541 -0.0472 -0.0062
  680PSPI    C210526  16.865   0.760   5.279 -0.0598 -0.2236  0.0714
  680PSPI    C310527  17.253   0.685   5.341 -0.0192 -0.0548  0.0270
  680PSPI   PO410528  16.887   0.819   5.820 -0.1759 -0.3176  0.0028
  680PSPI   GL110529  16.875   0.892   6.288 -0.2510  0.3134  0.2261
  680PSPI   GL210530  16.530   0.734   6.383 -0.1012  0.1059 -0.0699
  680PSPI   C1A10531  16.772   1.252   6.496 -0.1517 -0.0301  0.1658
  680PSPI   C2A10532  16.708   1.348   6.825  0.0197  0.0212 -0.3340
  680PSPI   C3A10533  16.850   1.265   7.201  0.0219 -0.0025 -0.0405
  680PSPI   C4A10534  17.149   1.370   7.571 -0.0822 -0.1438  0.2655
  680PSPI   C1B10535  16.766   0.652   6.804  0.0158 -0.4468 -0.1050
  680PSPI   C2B10536  16.443   0.489   7.120 -0.1738  0.1742 -0.2895
  680PSPI   C3B10537  16.115   0.608   7.450 -0.1400 -0.1395 -0.0989
  680PSPI   C4B10538  15.848   0.426   7.559  0.3065  0.0369  0.0170
  681PSPI    C110539   2.153  13.136   5.849  0.0822  0.0994 -0.0627
  681PSPI    C210540   1.878  13.359   5.663 -0.0836 -0.0816 -0.0378
  681PSPI    C310541   2.170  13.185   5.452 -0.0640  0.0034 -0.0814
  681PSPI   PO410542   2.204  13.366   6.087 -0.1089 -0.0386 -0.1491
  681PSPI   GL110543   2.054  13.466   6.523  0.0233 -0.0069 -0.1451
  681PSPI   GL210544   2.119  13.825   6.376 -0.2157 -0.0757 -0.0476
  681PSPI   C1A10545   1.611  13.477   6.697  0.1311  0.0902 -0.1302
  681PSPI   C2A10546   1.790  13.529   7.131  0.0979 -0.0797 -0.3183
  681PSPI   C3A10547   1.873  13.510   7.587  0.0746 -0.4180 -0.0754
  681PSPI   C4A10548   2.164  13.506   7.986  0.1829 -0.0161  0.2342
  681PSPI   C1B10549   2.109  13.846   6.903  0.1515 -0.1750  0.2034
  681PSPI   C2B10550   2.172  13.849   7.318  0.0435 -0.1436 -0.0199
  681PSPI   C3B10551   2.273  13.890   7.738 -0.0447  0.1235 -0.1260
  681PSPI   C4B10552   2.384  13.988   8.134  0.0307 -0.1141 -0.0699
  682PSPI    C110553   1.529   4.310   5.870  0.2751 -0.0619  0.0288
  682PSPI    C210554   1.460   4.582   5.585 -0.1978 -0.0091  0.1847
  682PSPI    C310555   1.518   4.199   5.486 -0.0648  0.0576 -0.0003
  682PSPI   PO410556   1.723   4.412   6.015 -0.0891 -0.1005 -0.1155
  682PSPI   GL110557   1.657   4.652   6.380 -0.1365  0.1254 -0.2097
  682PSPI   GL210558   1.664   5.003   6.402  0.1213 -0.2489  0.0559
  682PSPI   C1A10559   1.270   4.815   6.600  0.2552  0.1012 -0.0128
  682PSPI   C2A10560   1.002   4.627   6.832 -0.2211 -0.2346 -0.0025
  682PSPI   C3A10561   1.048   4.304   7.172 -0.1729 -0.0415  0.1420
  682PSPI   C4A10562   1.405   4.046   7.411  0.1862 -0.3426 -0.1140
  682PSPI   C1B10563   1.618   5.119   6.765 -0.0100  0.2897  0.0362
  682PSPI   C2B10564   1.304   5.034   7.077 -0.1131  0.2011 -0.1494
  682PSPI   C3B10565   1.174   4.754   7.386 -0.0988 -0.0938  0.3100
  682PSPI   C4B10566   1.051   4.363   7.661 -0.1078  0.0813  0.1539
  683PSPI    C110567   6.532  17.376   5.458  0.1227  0.1520 -0.0306
  683PSPI    C210568   6.254  17.662   5.424 -0.0618  0.0021  0.1825
  683PSPI    C310569   6.601  17.696   5.228 -0.1237  0.3188  0.1218
  683PSPI   PO410570   6.429  17.322   5.764 -0.0720 -0.3082  0.3898
  683PSPI   GL110571   6.369  17.379   6.218 -0.1124  0.1899  0.2423
  683PSPI   GL210572   6.477  17.644   6.154  0.4111  0.3667 -0.0481
  683PSPI   C1A10573   6.358  17.397   6.613  0.2102  0.0322 -0.1397
  683PSPI   C2A10574   6.260  17.220   6.935 -0.1730 -0.0605 -0.1969
  683PSPI   C3A10575   6.480  17.426   7.281 -0.1534 -0.3033 -0.2178
  683PSPI   C4A10576   6.513  17.248   7.722 -0.0138 -0.0958  0.2643
  683PSPI   C1B10577   6.528  17.978   6.569 -0.1814  0.0062 -0.0552
  683PSPI   C2B10578   6.419  17.790   6.899  0.0238 -0.1902 -0.2855
  683PSPI   C3B10579   6.339  18.036   7.204  0.1647  0.0224  0.1053
  683PSPI   C4B10580   6.319  18.406   7.335  0.1178 -0.1833 -0.0362
  684PSPI    C110581  13.919  12.052   5.745  0.2240 -0.2203  0.0665
  684PSPI    C210582  13.617  12.258   5.908  0.3590 -0.1488  0.2298
  684PSPI    C310583  13.542  11.925   5.699  0.1311  0.1083 -0.1100
  684PSPI   PO410584  14.108  12.166   5.976  0.2879  0.1709  0.1069
  684PSPI   GL110585  14.219  12.503   6.280 -0.0326  0.0813 -0.0050
  684PSPI   GL210586  14.393  12.203   6.370  0.1306 -0.0167  0.0120
  684PSPI   C1A10587  14.135  12.672   6.655  0.0667  0.0824 -0.1779
  684PSPI   C2A10588  14.162  12.707   7.084  0.1931 -0.0492 -0.1386
  684PSPI   C3A10589  14.186  12.856   7.470 -0.1206  0.3883 -0.0698
  684PSPI   C4A10590  14.275  13.018   7.888  0.0685  0.0198 -0.0617
  684PSPI   C1B10591  14.597  12.412   6.748  0.0520 -0.4222 -0.2046
  684PSPI   C2B10592  14.694  12.616   7.223 -0.4552  0.1346 -0.1892
  684PSPI   C3B10593  14.784  12.629   7.634  0.0980  0.0689  0.4649
  684PSPI   C4B10594  14.565  12.586   7.980  0.1033  0.0474 -0.0948
  685PSPI    C110595  12.805  12.868   5.651 -0.1050 -0.1526  0.1875
  685PSPI    C210596  12.553  12.997   5.368  0.0539 -0.0253  0.1021
  685PSPI    C310597  12.810  12.701   5.288 -0.1194 -0.2089  0.2131
  685PSPI   PO410598  12.949  13.088   5.742  0.2270  0.0969  0.2792
  685PSPI   GL110599  13.050  13.477   5.982  0.2162  0.0158 -0.0187
  685PSPI   GL210600  12.694  13.492   6.073  0.0546 -0.0715 -0.1298
  685PSPI   C1A10601  13.385  13.426   6.298  0.2367  0.0511 -0.0925
  685PSPI   C2A10602  13.501  13.191   6.644  0.1073  0.3315 -0.1416
  685PSPI   C3A10603  13.352  13.168   7.169  0.2302 -0.1533 -0.0599
  685PSPI   C4A10604  13.166  13.402   7.470  0.2922 -0.1065  0.1581
  685PSPI   C1B10605  12.942  13.310   6.509 -0.1136 -0.1080  0.0207
  685PSPI   C2B10606  12.864  13.220   6.950  0.1091  0.1499 -0.2764
  685PSPI   C3B10607  12.751  13.124   7.411 -0.3694  0.2082  0.0939
  685PSPI   C4B10608  12.786  13.160   7.894 -0.0199  0.0202 -0.1015
  686PSPI    C110609   8.852  12.801   5.943 -0.0566  0.0652 -0.1141
  686PSPI    C210610   9.022  12.450   5.853 -0.0441  0.0927 -0.1979
  686PSPI    C310611   8.667  12.547   5.696 -0.1662  0.0101  0.0227
  686PSPI   PO410612   8.984  12.893   6.190  0.2200  0.1085 -0.2344
  686PSPI   GL110613   8.868  12.950   6.617 -0.0976 -0.1595 -0.1091
  686PSPI   GL210614   8.618  13.086   6.715  0.0523  0.0449 -0.0679
  686PSPI   C1A10615   9.262  12.837   6.888  0.2817  0.2266 -0.2304
  686PSPI   C2A10616   9.487  13.152   7.134  0.2308 -0.0523 -0.2073
  686PSPI   C3A10617   9.865  13.330   7.250 -0.0081  0.3492 -0.4922
  686PSPI   C4A10618  10.254  13.440   7.154  0.1388  0.1560  0.0037
  686PSPI   C1B10619   8.541  13.108   7.141  0.0267 -0.0320 -0.1400
  686PSPI   C2B10620   8.784  13.265   7.536  0.1547  0.0945 -0.3287
  686PSPI   C3B10621   9.197  13.409   7.476 -0.1377 -0.0921  0.2742
  686PSPI   C4B10622   9.604  13.412   7.734  0.2297 -0.2892 -0.1370
  687PSPI    C110623  13.557   1.212   5.737 -0.3004  0.0456  0.0504
  687PSPI    C210624  13.504   1.591   5.856  0.0161  0.0262  0.2639
  687PSPI    C310625  13.676   1.514   5.503 -0.3724  0.0800  0.0578
  687PSPI   PO410626  13.713   1.071   5.906  0.1115  0.1240 -0.0686
  687PSPI   GL110627  13.651   1.348   6.256 -0.2101  0.1618 -0.0698
  687PSPI   GL210628  13.350   1.330   6.287  0.2919 -0.0342 -0.3270
  687PSPI   C1A10629  13.556   1.574   6.725  0.1108  0.1856 -0.3679
  687PSPI   C2A10630  13.837   1.493   7.151  0.1450 -0.0602  0.0050
  687PSPI   C3A10631  14.047   1.514   7.555  0.3323 -0.3458  0.3977
  687PSPI   C4A10632  14.446   1.465   7.636  0.0424 -0.1698 -0.0524
  687PSPI   C1B10633  13.403   1.064   6.655  0.1620  0.0946  0.0766
  687PSPI   C2B10634  13.555   1.115   7.065 -0.0652  0.0402 -0.4575
  687PSPI   C3B10635  14.030   1.006   7.233 -0.0521  0.1055 -0.1771
  687PSPI   C4B10636  14.415   0.938   7.407  0.0146 -0.4082 -0.1856
  688PSPI    C110637   6.251  12.017   5.998  0.1983  0.1165  0.1138
  688PSPI    C210638   6.477  11.851   6.283  0.0098  0.0881  0.2492
  688PSPI    C310639   6.643  12.093   6.011  0.2016  0.0675  0.3462
  688PSPI   PO410640   6.055  12.198   6.126 -0.1910 -0.1047 -0.1447
  688PSPI   GL110641   6.003  12.014   6.481  0.3096  0.0637 -0.1919
  688PSPI   GL210642   6.073  11.768   6.529  0.1571  0.1688  0.1095
  688PSPI   C1A10643   6.201  12.178   6.817 -0.4116 -0.0380 -0.1695
  688PSPI   C2A10644   6.160  12.562   7.098  0.2684  0.0411 -0.2375
  688PSPI   C3A10645   6.043  12.921   7.356 -0.1106  0.1692  0.0514
  688PSPI   C4A10646   5.826  13.346   7.512 -0.0996  0.0360 -0.3628
  688PSPI   C1B10647   5.912  11.661   6.883 -0.0856  0.3233 -0.0390
  688PSPI   C2B10648   5.844  11.337   7.085  0.0967 -0.2951  0.1090
  688PSPI   C3B10649   5.476  11.201   7.378  0.0462  0.2116 -0.0014
  688PSPI   C4B10650   5.178  11.389   7.571  0.2078 -0.1269  0.0227
  689PSPI    C110651   0.578  13.810   5.768 -0.0480 -0.2402  0.0478
  689PSPI    C210652   0.763  13.455   5.769 -0.0183 -0.2276  0.4667
  689PSPI    C310653   0.903  13.755   5.994  0.2629  0.2199 -0.2707
  689PSPI   PO410654   0.331  13.856   5.850  0.1269  0.1472  0.0362
  689PSPI   GL110655   0.069  14.147   6.112 -0.2195 -0.3429  0.0616
  689PSPI   GL210656   0.374  14.152   6.249 -0.2241  0.2675  0.2214
  689PSPI   C1A10657  -0.238  14.372   6.438 -0.0734 -0.0562 -0.2367
  689PSPI   C2A10658  -0.378  14.523   6.795  0.2875 -0.4029 -0.0410
  689PSPI   C3A10659  -0.331  14.523   7.292  0.0534  0.0731  0.0687
  689PSPI   C4A10660  -0.333  14.341   7.588  0.0302 -0.1486 -0.0411
  689PSPI   C1B10661   0.440  14.014   6.654  0.1601 -0.0204 -0.1781
  689PSPI   C2B10662   0.737  13.903   6.932 -0.2878  0.1152 -0.0699
  689PSPI   C3B10663   0.792  13.528   7.206 -0.0261  0.0381 -0.2134
  689PSPI   C4B10664   0.486  13.350   7.434  0.0184 -0.1470  0.1011
  690PSPI    C110665   3.608   8.764   5.972 -0.2625 -0.0360 -0.1079
  690PSPI    C210666   3.705   8.977   5.647 -0.1007  0.0811  0.0150
  690PSPI    C310667   3.840   8.603   5.689  0.1257  0.1695  0.0857
  690PSPI   PO410668   3.403   8.890   6.079 -0.0061 -0.4847 -0.0682
  690PSPI   GL110669   3.219   9.153   6.345 -0.3181  0.5383  0.2792
  690PSPI   GL210670   3.182   9.322   6.653 -0.1386  0.0750 -0.4839
  690PSPI   C1A10671   3.683   9.369   6.662 -0.1439  0.1960  0.2381
  690PSPI   C2A10672   3.839   9.442   7.045 -0.4818  0.4085  0.4620
  690PSPI   C3A10673   4.162   9.265   7.315 -0.0626  0.2373 -0.2550
  690PSPI   C4A10674   4.236   8.851   7.385 -0.0904 -0.0297  0.3920
  690PSPI   C1B10675   3.301   9.635   6.866 -0.0023  0.0238  0.1595
  690PSPI   C2B10676   3.313   9.789   7.280  0.0929 -0.1858  0.2218
  690PSPI   C3B10677   3.454   9.870   7.627 -0.0727  0.3364  0.1345
  690PSPI   C4B10678   3.257  10.182   7.835 -0.1173 -0.2448 -0.0748
  691PSPI    C110679  11.060  12.194   6.034  0.1682 -0.1172 -0.0477
  691PSPI    C210680  11.110  11.819   5.903  0.0341 -0.0922 -0.1717
  691PSPI    C310681  11.232  12.127   5.679 -0.1055 -0.0530 -0.1949
  691PSPI   PO410682  11.131  12.137   6.328 -0.0437  0.2314 -0.1525
  691PSPI   GL110683  10.851  12.045   6.659 -0.0101  0.1524  0.1754
  691PSPI   GL210684  10.551  11.993   6.750 -0.0754 -0.4278 -0.1126
  691PSPI   C1A10685  11.065  12.226   7.032 -0.1571  0.0533 -0.2218
  691PSPI   C2A10686  11.055  12.309   7.397  0.0423 -0.0234  0.1623
  691PSPI   C3A10687  10.983  12.199   7.779 -0.0027  0.0203  0.1789
  691PSPI   C4A10688  11.071  12.017   8.194  0.0574  0.1227 -0.3077
  691PSPI   C1B10689  10.708  11.885   7.150  0.0308 -0.0226  0.1452
  691PSPI   C2B10690  10.963  11.778   7.524  0.0257 -0.3556  0.1087
  691PSPI   C3B10691  11.367  11.760   7.711 -0.1091  0.0998  0.0440
  691PSPI   C4B10692  11.741  11.621   8.006 -0.2196 -0.2444  0.1292
  692PSPI    C110693  17.971   9.704   5.641  0.0367 -0.1462  0.0903
  692PSPI    C210694  18.340   9.676   5.489 -0.0366 -0.3334 -0.0583
  692PSPI    C310695  18.203  10.029   5.618  0.2517 -0.2932  0.1477
  692PSPI   PO410696  17.926   9.570   5.822  0.0564 -0.0090  0.2142
  692PSPI   GL110697  18.012   9.406   6.168 -0.0187  0.2352  0.1209
  692PSPI   GL210698  17.888   9.192   6.317  0.0012  0.0485  0.2005
  692PSPI   C1A10699  18.334   9.360   6.488  0.2650  0.1768 -0.2446
  692PSPI   C2A10700  18.611   9.239   6.767 -0.3532  0.0272 -0.0608
  692PSPI   C3A10701  18.535   9.070   7.213  0.0525 -0.0702  0.0244
  692PSPI   C4A10702  18.487   8.962   7.703 -0.0893 -0.0397 -0.0204
  692PSPI   C1B10703  17.683   9.208   6.610 -0.0412  0.0272 -0.2556
  692PSPI   C2B10704  17.712   8.929   7.010 -0.1746  0.1910 -0.0243
  692PSPI   C3B10705  17.449   8.860   7.400  0.1858  0.0072  0.0561
  692PSPI   C4B10706  17.091   8.755   7.531 -0.1312 -0.2942  0.0801
  693POPI    C110707   5.068   8.727   5.694  0.0493  0.2100  0.0398
  693POPI    C210708   5.082   8.577   5.323  0.1441 -0.1122  0.1704
  693POPI    C310709   4.737   8.716   5.470  0.1387  0.1596 -0.0913
  693POPI   PO410710   5.317   8.574   5.766 -0.0635 -0.2143 -0.2082
  693POPI   GL110711   5.403   8.416   6.108 -0.0046 -0.1550 -0.1032
  693POPI   GL210712   5.639   8.665   6.260  0.2086  0.3014 -0.2633
  693POPI   C1A10713   5.459   8.121   6.405  0.2171  0.0454 -0.3568
  693POPI   D2A10714   5.238   7.897   6.766 -0.1591  0.0796  0.0511
  693POPI   C3A10715   5.522   7.675   7.046 -0.1115 -0.0105 -0.1364
  693POPI   C4A10716   5.744   7.369   7.302  0.1470  0.0304 -0.1012
  693POPI   C1B10717   5.331   8.603   6.604  0.2296  0.0429 -0.0608
  693POPI   C2B10718   5.284   8.458   7.037  0.0100 -0.3082  0.0802
  693POPI   C3B10719   5.299   8.520   7.454 -0.2916  0.0931  0.2008
  693POPI   C4B10720   5.437   8.741   7.834  0.2340 -0.3472 -0.0947
  694POPI    C110721   0.521  16.408   5.523  0.0848 -0.0354 -0.1960
  694POPI    C210722   0.570  16.029   5.640 -0.0558  0.0498  0.1510
  694POPI    C310723   0.459  16.109   5.264 -0.1670 -0.2589  0.1148
  694POPI   PO410724   0.572  16.558   5.774  0.1976 -0.1995 -0.1923
  694POPI   GL110725   0.395  16.345   6.130 -0.0419 -0.4327  0.1474
  694POPI   GL210726   0.237  16.758   6.146  0.0362 -0.0929 -0.1366
  694POPI   C1A10727  -0.100  16.454   6.373  0.2208  0.0502  0.1359
  694POPI   D2A10728  -0.184  16.518   6.821 -0.0483  0.2250 -0.1696
  694POPI   C3A10729  -0.238  16.564   7.282 -0.0840 -0.0056  0.0850
  694POPI   C4A10730  -0.275  16.503   7.646 -0.2355 -0.0724 -0.1013
  694POPI   C1B10731   0.270  16.657   6.591 -0.2835  0.1063 -0.1127
  694POPI   C2B10732   0.285  16.666   7.026  0.1945 -0.0569 -0.1314
  694POPI   C3B10733   0.358  16.708   7.369  0.0224 -0.2862  0.0273
  694POPI   C4B10734   0.628  16.783   7.665  0.0238  0.0111  0.1071
  695POPI    C110735   9.845   1.848   6.074 -0.2264  0.0337 -0.1331
  695POPI    C210736  10.112   1.552   6.048 -0.0843  0.1376  0.1045
  695POPI    C310737  10.235   1.932   6.046 -0.2579  0.1943 -0.1019
  695POPI   PO410738   9.694   1.872   6.311 -0.0191 -0.1334  0.0905
  695POPI   GL110739   9.656   1.953   6.766  0.0882 -0.0363 -0.1520
  695POPI   GL210740   9.828   2.142   6.845  0.3227 -0.0310 -0.1658
  695POPI   C1A10741   9.734   1.535   7.004  0.0560 -0.0120  0.3944
  695POPI   D2A10742   9.510   1.356   7.332  0.0368  0.2185 -0.0796
  695POPI   C3A10743   9.717   1.079   7.690 -0.0128  0.0901  0.0094
  695POPI   C4A10744  10.014   1.102   7.955 -0.2734 -0.0988 -0.1984
  695POPI   C1B10745   9.677   2.226   7.225 -0.2945  0.1499  0.2567
  695POPI   C2B10746   9.497   2.378   7.588  0.0530 -0.0574 -0.1396
  695POPI   C3B10747   9.236   2.587   7.965  0.0517  0.0836 -0.0631
  695POPI   C4B10748   9.121   2.675   8.402  0.1063 -0.1380  0.0838
  696POPI    C110749   3.131   0.255   5.795 -0.0114 -0.1482 -0.1901
  696POPI    C210750   3.264  -0.083   5.961 -0.0947 -0.0724  0.0357
  696POPI    C310751   2.883  -0.055   5.844 -0.1103 -0.0277  0.0965
  696POPI   PO410752   3.224   0.434   6.002 -0.0135  0.0024  0.2564
  696POPI   GL110753   3.420   0.759   6.173  0.4235  0.3914 -0.0939
  696POPI   GL210754   3.733   0.741   6.189 -0.1745  0.1432 -0.1206
  696POPI   C1A10755   3.364   0.788   6.589 -0.0232  0.2890 -0.0934
  696POPI   D2A10756   3.109   0.682   6.894 -0.1690 -0.3007 -0.2846
  696POPI   C3A10757   3.082   0.632   7.324  0.1363 -0.1387 -0.0391
  696POPI   C4A10758   2.725   0.428   7.584 -0.0846  0.0837 -0.1138
  696POPI   C1B10759   3.880   0.475   6.574 -0.3704  0.1135 -0.0669
  696POPI   C2B10760   3.931   0.348   7.049 -0.3020 -0.0053  0.1306
  696POPI   C3B10761   3.612   0.661   7.119  0.0791 -0.0849 -0.1263
  696POPI   C4B10762   3.487   0.995   7.331  0.0585 -0.3906 -0.2030
  697POPI    C110763  16.021  15.524   5.819  0.0769  0.1584 -0.0091
  697POPI    C210764  15.699  15.516   5.582 -0.0780 -0.2360  0.2040
  697POPI    C310765  16.066  15.531   5.422 -0.1891 -0.1772 -0.0498
  697POPI   PO410766  15.992  15.691   5.972 -0.2792 -0.2101  0.0955
  697POPI   GL110767  16.090  15.649   6.435  0.1204 -0.2163 -0.1383
  697POPI   GL210768  16.224  15.237   6.341  0.5225 -0.2059  0.0306
  697POPI   C1A10769  16.414  15.487   6.719  0.0934 -0.0626 -0.2005
  697POPI   D2A10770  16.436  15.371   7.122  0.1235  0.0015 -0.0173
  697POPI   C3A10771  16.244  15.061   7.428 -0.1735 -0.1723  0.0176
  697POPI   C4A10772  16.177  14.794   7.712 -0.1308  0.1886 -0.2489
  697POPI   C1B10773  15.928  15.298   6.709 -0.0658 -0.0849 -0.0692
  697POPI   C2B10774  15.893  15.439   7.084 -0.1691 -0.0638  0.1304
  697POPI   C3B10775  15.889  15.378   7.459  0.3700  0.2304  0.0184
  697POPI   C4B10776  15.844  15.268   7.828  0.0113 -0.1555 -0.0446
  698POPI    C110777   4.332  16.747   5.610  0.0506  0.0048  0.0327
  698POPI    C210778   4.688  16.783   5.430  0.0189 -0.0172 -0.0344
  698POPI    C310779   4.371  16.981   5.288 -0.0131 -0.0591 -0.0216
  698POPI   PO410780   4.300  16.517   5.664  0.0450  0.0468 -0.0443
  698POPI   GL110781   4.028  16.339   6.014  0.0649 -0.0459  0.0083
  698POPI   GL210782   4.135  16.086   6.239 -0.2229  0.0123 -0.1130
  698POPI   C1A10783   4.209  16.536   6.335 -0.1257 -0.1034  0.1376
  698POPI   D2A10784   4.497  16.385   6.551  0.0504  0.1728 -0.0815
  698POPI   C3A10785   4.407  16.342   7.003  0.1287 -0.3246  0.1918
  698POPI   C4A10786   4.460  15.974   7.180  0.1292  0.0244 -0.0893
  698POPI   C1B10787   4.223  15.923   6.655  0.1258  0.0919  0.0880
  698POPI   C2B10788   4.584  15.755   6.724  0.0902 -0.1894  0.1778
  698POPI   C3B10789   4.805  15.550   6.540 -0.2448 -0.1075  0.1683
  698POPI   C4B10790   5.177  15.573   6.355  0.3258  0.0368 -0.1048
  699POPI    C110791   6.632   4.733   6.295 -0.0443  0.1964  0.0213
  699POPI    C210792   6.394   4.736   5.973 -0.1978 -0.1598  0.1272
  699POPI    C310793   6.311   4.971   6.285 -0.1728  0.0245 -0.0038
  699POPI   PO410794   6.608   4.480   6.378  0.0627  0.0791  0.4470
  699POPI   GL110795   6.436   4.410   6.695 -0.2293 -0.2206  0.1213
  699POPI   GL210796   6.261   4.694   6.698  0.1409 -0.0680  0.0549
  699POPI   C1A10797   6.322   4.206   7.049  0.0188 -0.0499 -0.2359
  699POPI   D2A10798   6.070   4.100   7.370  0.2597 -0.1153  0.0558
  699POPI   C3A10799   6.055   4.212   7.771  0.2957 -0.0118  0.3079
  699POPI   C4A10800   6.315   4.426   8.115 -0.1087 -0.0862 -0.2204
  699POPI   C1B10801   6.196   5.132   6.764 -0.1630 -0.3678  0.2357
  699POPI   C2B10802   6.172   5.347   7.187 -0.0633 -0.2395  0.3001
  699POPI   C3B10803   6.313   5.239   7.505  0.0528 -0.1322 -0.4053
  699POPI   C4B10804   6.554   5.304   7.962  0.1565 -0.1412  0.2802
  700POPI    C110805  14.186   8.394   6.243 -0.0098  0.0788  0.0055
  700POPI    C210806  13.791   8.431   6.296 -0.0169  0.1665 -0.1040
  700POPI    C310807  13.950   8.487   5.933  0.0600 -0.1720 -0.1253
  700POPI   PO410808  14.274   8.517   6.493  0.1448 -0.2669  0.0699
  700POPI   GL110809  14.674   8.582   6.769  0.3679  0.3081  0.2235
  700POPI   GL210810  14.958   8.493   6.618  0.0533  0.0830 -0.1542
  700POPI   C1A10811  14.558   8.756   7.073  0.1379  0.0064  0.3969
  700POPI   D2A10812  14.799   8.956   7.414  0.2054  0.2148 -0.1253
  700POPI   C3A10813  14.837   8.735   7.794 -0.0865 -0.2502  0.3857
  700POPI   C4A10814  15.058   8.278   8.014  0.0357  0.2881 -0.0754
  700POPI   C1B10815  15.104   8.203   6.915 -0.0721 -0.1104  0.2269
  700POPI   C2B10816  15.237   7.817   7.194  0.1294 -0.3355 -0.2435
  700POPI   C3B10817  15.684   7.663   7.264  0.3377  0.1240  0.1513
  700POPI   C4B10818  15.883   7.448   7.677 -0.1196 -0.0437 -0.3082
  701POPI    C110819   3.849  13.833   5.841 -0.0082 -0.0862  0.0198
  701POPI    C210820   4.202  13.672   5.744 -0.0137 -0.0995  0.0220
  701POPI    C310821   4.097  14.028   5.595 -0.1381 -0.2423 -0.2394
  701POPI   PO410822   3.817  13.721   6.068  0.3386  0.0120  0.1081
  701POPI   GL110823   3.871  13.928   6.498  0.3450 -0.0507  0.1449
  701POPI   GL210824   4.170  13.740   6.662  0.0259 -0.0317  0.0316
  701POPI   C1A10825   3.794  13.900   6.949 -0.3450  0.0377 -0.3860
  701POPI   D2A10826   3.793  13.970   7.342 -0.0535  0.0386  0.2010
  701POPI   C3A10827   3.821  13.785   7.766  0.1972  0.1418 -0.2337
  701POPI   C4A10828   3.651  13.387   8.049 -0.3525 -0.1334 -0.4713
  701POPI   C1B10829   3.998  13.459   6.920  0.0805 -0.2203 -0.0863
  701POPI   C2B10830   3.764  13.497   7.302 -0.1333  0.1903 -0.1854
  701POPI   C3B10831   3.540  13.266   7.516  0.0583  0.6798  0.0876
  701POPI   C4B10832   3.703  12.943   7.716  0.1929 -0.0299  0.2253
  702POPI    C110833   7.460  17.099   5.648 -0.2458 -0.0237  0.0507
  702POPI    C210834   7.198  16.967   5.376 -0.1681  0.0202 -0.0459
  702POPI    C310835   7.423  17.288   5.298 -0.0367 -0.0570  0.0094
  702POPI   PO410836   7.275  17.065   5.858  0.0392  0.1208 -0.0514
  702POPI   GL110837   7.347  17.059   6.234 -0.1874 -0.1927  0.1850
  702POPI   GL210838   6.989  17.044   6.246 -0.0869  0.2334 -0.1895
  702POPI   C1A10839   7.446  17.149   6.569 -0.0077  0.0393 -0.3517
  702POPI   D2A10840   7.472  17.088   6.957  0.3458  0.0878 -0.1305
  702POPI   C3A10841   7.240  16.803   7.125  0.1678  0.0082  0.3039
  702POPI   C4A10842   6.899  16.636   7.238 -0.1697  0.1832 -0.0920
  702POPI   C1B10843   6.966  16.794   6.677 -0.2805 -0.1234 -0.4340
  702POPI   C2B10844   7.115  16.293   6.983  0.2268 -0.4444  0.0465
  702POPI   C3B10845   7.260  16.214   7.365  0.2094  0.0877 -0.2943
  702POPI   C4B10846   7.645  16.037   7.565  0.1585  0.0029 -0.4103
  703POPI    C110847   6.372   6.454   6.110 -0.2529 -0.1791 -0.1094
  703POPI    C210848   6.648   6.501   5.825 -0.2653 -0.1340 -0.1139
  703POPI    C310849   6.289   6.352   5.733 -0.3465  0.0879 -0.1633
  703POPI   PO410850   6.260   6.685   6.267 -0.0492 -0.0855  0.1124
  703POPI   GL110851   6.382   6.849   6.648  0.1801 -0.2123 -0.3085
  703POPI   GL210852   6.676   6.653   6.721 -0.1972 -0.0442  0.5805
  703POPI   C1A10853   6.458   7.031   6.999  0.2701  0.1293 -0.0877
  703POPI   D2A10854   6.422   7.025   7.503 -0.1912 -0.3577 -0.1290
  703POPI   C3A10855   6.235   7.185   7.898  0.0581 -0.2322 -0.2194
  703POPI   C4A10856   5.921   6.925   8.099  0.1922 -0.3180 -0.2094
  703POPI   C1B10857   6.740   6.593   7.137 -0.1300 -0.0151 -0.2157
  703POPI   C2B10858   6.923   6.777   7.525 -0.0848  0.1555  0.1477
  703POPI   C3B10859   6.903   7.216   7.787  0.1368  0.2113 -0.2131
  703POPI   C4B10860   6.736   7.467   8.085 -0.0180  0.1786 -0.2185
  704POPI    C110861   4.106  12.844   5.788 -0.2423  0.0953  0.0554
  704POPI    C210862   4.385  12.910   6.066  0.0089  0.3010 -0.2383
  704POPI    C310863   4.379  12.562   5.869 -0.3274  0.0518  0.1938
  704POPI   PO410864   3.909  12.907   5.811 -0.1776  0.3637  0.2786
  704POPI   GL110865   3.756  12.828   6.139  0.1293  0.0806 -0.2423
  704POPI   GL210866   3.911  12.807   6.348 -0.1211 -0.0469  0.0738
  704POPI   C1A10867   3.497  13.045   6.473 -0.0424 -0.2265 -0.1510
  704POPI   D2A10868   3.149  13.038   6.731  0.1152  0.1476 -0.0079
  704POPI   C3A10869   3.216  13.006   7.196 -0.1737  0.0149 -0.1112
  704POPI   C4A10870   3.043  13.352   7.497 -0.0080 -0.1650 -0.0161
  704POPI   C1B10871   3.526  12.581   6.543  0.0949  0.3357 -0.2460
  704POPI   C2B10872   3.501  12.661   7.000 -0.3535 -0.1108 -0.3946
  704POPI   C3B10873   3.667  12.752   7.279  0.0634  0.3822  0.1506
  704POPI   C4B10874   4.016  13.013   7.314  0.2717  0.0499  0.1538
  705POPI    C110875  17.919  15.880   5.682  0.0006 -0.2945  0.0322
  705POPI    C210876  17.860  15.757   5.306 -0.2913  0.1938 -0.0905
  705POPI    C310877  18.207  15.927   5.408 -0.0874 -0.2336 -0.0504
  705POPI   PO410878  17.922  15.619   5.860 -0.1090 -0.0078  0.4585
  705POPI   GL110879  17.781  15.574   6.366  0.0587  0.0986 -0.0595
  705POPI   GL210880  18.123  15.464   6.289 -0.0578  0.0605 -0.2872
  705POPI   C1A10881  17.613  15.190   6.320 -0.1305 -0.0947  0.1256
  705POPI   D2A10882  17.485  14.726   6.503 -0.0347 -0.0628  0.0458
  705POPI   C3A10883  17.105  14.565   6.390 -0.0986  0.2022  0.6576
  705POPI   C4A10884  16.814  14.450   6.025 -0.2977 -0.0313  0.1984
  705POPI   C1B10885  18.289  15.538   6.659 -0.1695  0.3453 -0.3324
  705POPI   C2B10886  18.354  15.298   6.989 -0.3239  0.1310 -0.2095
  705POPI   C3B10887  18.303  15.349   7.501  0.2298 -0.3521 -0.2168
  705POPI   C4B10888  17.990  15.497   7.699 -0.2313 -0.0321  0.0073
  706POPI    C110889   6.960   7.219   6.190  0.1188 -0.0088 -0.0489
  706POPI    C210890   6.699   6.930   6.281  0.1574 -0.0294 -0.0026
  706POPI    C310891   6.694   7.097   5.918  0.0576 -0.0056  0.0094
  706POPI   PO410892   6.960   7.435   6.394 -0.0337 -0.1165 -0.1896
  706POPI   GL110893   6.768   7.801   6.660  0.0864  0.1137 -0.4086
  706POPI   GL210894   6.916   8.109   6.647 -0.0610  0.2007  0.3183
  706POPI   C1A10895   6.517   7.705   6.944 -0.1155  0.2240  0.2810
  706POPI   D2A10896   6.311   7.446   7.322  0.0425  0.0933 -0.1006
  706POPI   C3A10897   6.050   7.569   7.626  0.4677  0.0350  0.0058
  706POPI   C4A10898   5.814   7.667   8.009  0.4590 -0.1257  0.2250
  706POPI   C1B10899   6.946   8.341   7.008 -0.4844 -0.4082 -0.1424
  706POPI   C2B10900   6.763   8.389   7.301  0.0938 -0.0297 -0.0601
  706POPI   C3B10901   6.726   8.195   7.716  0.1480  0.0242 -0.1353
  706POPI   C4B10902   6.737   8.347   8.178 -0.3973  0.0383  0.2044
  707POPI    C110903   9.397   8.435   6.016 -0.0912 -0.2382 -0.3856
  707POPI    C210904   9.387   8.714   5.730  0.1515  0.1705 -0.0092
  707POPI    C310905   9.730   8.525   5.813  0.0814  0.0516  0.0120
  707POPI   PO410906   9.065   8.398   6.097 -0.0959 -0.0711  0.0703
  707POPI   GL110907   8.976   8.547   6.436  0.2472 -0.2417 -0.5138
  707POPI   GL210908   9.100   8.176   6.492  0.1366 -0.3799 -0.1426
  707POPI   C1A10909   8.914   8.538   6.965  0.1538  0.1572  0.0182
  707POPI   D2A10910   8.813   8.642   7.352  0.0208  0.2748  0.0584
  707POPI   C3A10911   8.793   8.430   7.706  0.0032  0.0642 -0.3214
  707POPI   C4A10912   8.429   8.547   7.944  0.4328  0.1198  0.0010
  707POPI   C1B10913   9.184   8.011   6.908 -0.1355 -0.0201  0.0210
  707POPI   C2B10914   9.019   7.752   7.107 -0.1456  0.0220  0.4271
  707POPI   C3B10915   8.749   7.672   7.400 -0.0233  0.2059 -0.0810
  707POPI   C4B10916   8.414   7.360   7.756 -0.3874 -0.2222 -0.1877
  708POPI    C110917  13.057   1.827   5.882 -0.0272 -0.0984 -0.1687
  708POPI    C210918  12.779   1.705   6.143  0.1531  0.1130  0.1278
  708POPI    C310919  13.024   1.439   5.973 -0.0337 -0.0385  0.0927
  708POPI   PO410920  13.015   2.101   5.965  0.1090  0.3046  0.0281
  708POPI   GL110921  13.068   2.089   6.393  0.1483  0.0269  0.0112
  708POPI   GL210922  13.305   1.805   6.355  0.2798 -0.3670  0.1584
  708POPI   C1A10923  12.815   1.986   6.680  0.2270  0.1364  0.0399
  708POPI   D2A10924  12.872   1.915   7.162  0.1705 -0.2144  0.4077
  708POPI   C3A10925  12.629   2.189   7.393 -0.0782 -0.2306  0.2054
  708POPI   C4A10926  12.439   2.409   7.794 -0.1179  0.1289 -0.1966
  708POPI   C1B10927  13.285   1.952   6.869 -0.0328  0.1217 -0.2664
  708POPI   C2B10928  13.372   1.880   7.254 -0.0393  0.1005 -0.3091
  708POPI   C3B10929  13.575   1.677   7.580  0.1525 -0.1298  0.1444
  708POPI   C4B10930  13.624   1.842   7.925  0.0989 -0.1544  0.0146
  709POPI    C110931  16.699   7.277   5.662 -0.0850 -0.1756 -0.0719
  709POPI    C210932  16.644   7.673   5.659  0.1277 -0.1416  0.1730
  709POPI    C310933  16.719   7.480   5.317  0.1016  0.0400  0.0629
  709POPI   PO410934  16.540   7.225   5.855 -0.2791 -0.0546 -0.0060
  709POPI   GL110935  16.484   7.102   6.215  0.0333  0.1336 -0.1803
  709POPI   GL210936  16.689   7.148   6.359  0.3864  0.0758 -0.0391
  709POPI   C1A10937  16.211   7.160   6.660 -0.0390  0.2416  0.0568
  709POPI   D2A10938  16.107   6.923   6.994 -0.3467 -0.1464  0.1765
  709POPI   C3A10939  15.906   6.592   7.171  0.2604 -0.0494  0.1162
  709POPI   C4A10940  15.725   6.230   7.139 -0.1010 -0.1870  0.1855
  709POPI   C1B10941  17.014   7.194   6.628 -0.1704  0.1711  0.1996
  709POPI   C2B10942  17.263   7.341   6.904  0.1903 -0.0115  0.2824
  709POPI   C3B10943  17.362   7.733   6.835 -0.2215 -0.3030 -0.1661
  709POPI   C4B10944  17.125   8.197   6.734  0.1934  0.2057  0.2985
  710POPI    C110945  15.095  15.244   5.887 -0.4494  0.0216  0.0794
  710POPI    C210946  14.921  15.050   5.584 -0.3983  0.2191 -0.0782
  710POPI    C310947  15.275  15.228   5.530 -0.2302 -0.0254  0.1900
  710POPI   PO410948  14.897  15.372   6.015 -0.0631 -0.0836 -0.1365
  710POPI   GL110949  14.768  15.338   6.512 -0.1963  0.0574  0.4439
  710POPI   GL210950  14.607  15.119   6.396  0.0298  0.0903  0.1797
  710POPI   C1A10951  14.742  15.120   6.904  0.2187  0.1922 -0.0501
  710POPI   D2A10952  14.491  14.989   7.161  0.2322 -0.0651 -0.0091
  710POPI   C3A10953  14.383  14.570   7.200  0.0063 -0.0834  0.2779
  710POPI   C4A10954  14.066  14.408   7.294 -0.0495  0.2051  0.1868
  710POPI   C1B10955  14.367  14.798   6.581  0.1560  0.0473 -0.4333
  710POPI   C2B10956  14.055  14.555   6.810 -0.3748  0.1618 -0.1555
  710POPI   C3B10957  13.749  14.286   6.818  0.2823  0.1649  0.1444
  710POPI   C4B10958  13.383  14.114   6.873  0.0521  0.0107 -0.2041
  711POPI    C110959   7.845   9.558   5.943  0.0656  0.0312 -0.2304
  711POPI    C210960   7.987   9.747   6.266  0.0334 -0.1139 -0.1305
  711POPI    C310961   8.042   9.904   5.902 -0.0962  0.1480 -0.0393
  711POPI   PO410962   7.531   9.336   6.060  0.1682  0.0789  0.0505
  711POPI   GL110963   7.129   9.494   6.300 -0.0635 -0.2237 -0.2720
  711POPI   GL210964   7.365   9.313   6.510 -0.1667 -0.0512  0.0485
  711POPI   C1A10965   6.829   9.506   6.701 -0.1324  0.2596  0.1849
  711POPI   D2A10966   6.585   9.296   7.062 -0.2503 -0.2288  0.0396
  711POPI   C3A10967   6.785   9.184   7.452 -0.0447  0.2450 -0.0470
  711POPI   C4A10968   6.832   9.272   7.930  0.2478 -0.1489 -0.2339
  711POPI   C1B10969   7.176   9.026   6.752  0.2040  0.0098 -0.1860
  711POPI   C2B10970   6.966   8.838   7.097 -0.0159 -0.0986 -0.1224
  711POPI   C3B10971   7.037   8.755   7.518 -0.0205 -0.2138  0.0470
  711POPI   C4B10972   6.891   8.795   8.026  0.0105  0.3196  0.0628
  712POPI    C110973   0.165  17.976   5.542 -0.2168 -0.1682 -0.2084
  712POPI    C210974   0.194  17.860   5.160  0.0234  0.1460 -0.2895
  712POPI    C310975   0.401  18.177   5.289 -0.0031  0.0017  0.1197
  712POPI   PO410976   0.293  17.804   5.649  0.0553  0.0171  0.0788
  712POPI   GL110977   0.184  17.667   6.039  0.0492  0.0415  0.0522
  712POPI   GL210978   0.213  18.091   6.076  0.0042 -0.2235 -0.2612
  712POPI   C1A10979   0.147  17.366   6.423 -0.2321 -0.3338 -0.1296
  712POPI   D2A10980   0.273  17.177   6.810 -0.0642 -0.2204 -0.1835
  712POPI   C3A10981  -0.010  17.117   7.165 -0.1560 -0.2095 -0.0995
  712POPI   C4A10982  -0.326  17.120   7.571 -0.1391  0.1086  0.1148
  712POPI   C1B10983   0.430  18.176   6.536  0.0212 -0.1163  0.0447
  712POPI   C2B10984   0.589  18.118   6.832  0.0245  0.3941  0.1568
  712POPI   C3B10985   0.556  17.984   7.267 -0.0497 -0.1595 -0.0855
  712POPI   C4B10986   0.266  17.778   7.567 -0.1375  0.2147 -0.1074
  713POPI    C110987   8.111   0.079   5.804 -0.0125  0.1161 -0.2670
  713POPI    C210988   8.369   0.380   5.745 -0.0288  0.2364  0.2357
  713POPI    C310989   7.982   0.458   5.810 -0.1033  0.0826 -0.0097
  713POPI   PO410990   8.244  -0.044   6.027 -0.1653  0.1576  0.0222
  713POPI   GL110991   8.184  -0.020   6.453 -0.1326  0.2678  0.0547
  713POPI   GL210992   7.922  -0.077   6.546 -0.1921  0.0062  0.1027
  713POPI   C1A10993   8.562   0.067   6.822 -0.1627  0.0792  0.0948
  713POPI   D2A10994   8.620  -0.029   7.296 -0.0419  0.1233 -0.1481
  713POPI   C3A10995   8.296  -0.009   7.639  0.0407  0.0727  0.0945
  713POPI   C4A10996   8.142  -0.425   7.695 -0.0230  0.0374  0.2371
  713POPI   C1B10997   7.808  -0.250   6.970 -0.1231 -0.0476  0.1196
  713POPI   C2B10998   7.711  -0.295   7.362  0.0738 -0.0588  0.1450
  713POPI   C3B10999   7.821  -0.052   7.659  0.1029 -0.2533 -0.2217
  713POPI   C4B11000   8.016   0.017   8.121  0.0078 -0.1079  0.2185
  714POPI    C111001  11.569  14.527   6.049 -0.0563 -0.0908  0.2882
  714POPI    C211002  11.451  14.734   5.727  0.0784 -0.1651  0.1902
  714POPI    C311003  11.367  14.869   6.094  0.2741  0.1310  0.1300
  714POPI   PO411004  11.541  14.311   5.982 -0.1299 -0.1972  0.1786
  714POPI   GL111005  11.474  13.978   6.384  0.0559  0.4017 -0.1194
  714POPI   GL211006  11.701  14.233   6.529 -0.2676  0.1106  0.0083
  714POPI   C1A11007  11.420  13.831   6.819 -0.1132 -0.1369  0.2163
  714POPI   D2A11008  11.657  13.741   7.103 -0.0157 -0.2134 -0.2450
  714POPI   C3A11009  11.705  14.142   7.314 -0.1008 -0.3785  0.2525
  714POPI   C4A11010  11.455  14.469   7.279  0.0002  0.0905 -0.1261
  714POPI   C1B11011  11.889  14.187   6.844 -0.3550  0.2961  0.0042
  714POPI   C2B11012  12.167  13.865   7.105 -0.0628 -0.0466  0.0020
  714POPI   C3B11013  12.114  13.619   7.465 -0.2211 -0.0189 -0.1044
  714POPI   C4B11014  12.030  13.463   7.914 -0.0179 -0.1894 -0.0540
  715POPI    C111015   9.657  16.317   6.042 -0.0048 -0.2044 -0.3163
  715POPI    C211016   9.526  16.308   5.665 -0.1575 -0.0538 -0.2685
  715POPI    C311017   9.367  16.567   5.925  0.2311  0.1285 -0.2061
  715POPI   PO411018   9.890  16.169   6.115 -0.1573 -0.1181  0.3615
  715POPI   GL111019  10.125  16.341   6.474  0.0326  0.0236 -0.1181
  715POPI   GL211020  10.026  16.125   6.626 -0.1050  0.3117 -0.2027
  715POPI   C1A11021  10.233  16.470   6.977 -0.0920  0.1583 -0.2338
  715POPI   D2A11022  10.431  16.680   7.124 -0.1148  0.0856  0.2326
  715POPI   C3A11023  10.527  16.975   7.446  0.0042  0.0032  0.3614
  715POPI   C4A11024  10.549  17.157   7.907 -0.1201 -0.2737  0.0977
  715POPI   C1B11025   9.785  15.738   6.654  0.0220 -0.0035  0.3043
  715POPI   C2B11026   9.890  15.541   7.040  0.0330  0.1385  0.1098
  715POPI   C3B11027   9.911  15.551   7.495  0.6438 -0.1168 -0.0526
  715POPI   C4B11028   9.873  15.362   7.937  0.0599 -0.4265 -0.0464
  716POPI    C111029   1.036   4.256   5.608 -0.1048 -0.0866  0.1668
  716POPI    C211030   0.686   4.319   5.425 -0.0558 -0.0352  0.0903
  716POPI    C311031   0.938   4.041   5.286 -0.0197  0.0022  0.0808
  716POPI   PO411032   0.971   4.333   5.796  0.2439  0.3796 -0.1140
  716POPI   GL111033   0.701   4.389   6.319  0.1079  0.2013 -0.0098
  716POPI   GL211034   0.709   4.722   6.327 -0.1371  0.2825  0.0988
  716POPI   C1A11035   0.843   4.125   6.583 -0.0568  0.2702  0.0294
  716POPI   D2A11036   1.064   3.877   6.822  0.0036 -0.2172  0.0059
  716POPI   C3A11037   0.958   3.734   7.258  0.3414  0.0878 -0.2303
  716POPI   C4A11038   1.037   3.777   7.627 -0.0895 -0.0793 -0.0500
  716POPI   C1B11039   0.534   4.641   6.734  0.2054  0.2318  0.0773
  716POPI   C2B11040   0.287   4.931   7.019  0.0881  0.0761  0.0619
  716POPI   C3B11041   0.032   5.022   7.179  0.0748 -0.1743  0.1562
  716POPI   C4B11042  -0.125   4.996   7.598  0.0398  0.1193  0.0948
  717POPI    C111043  14.307  16.988   5.906 -0.1131 -0.1306 -0.1760
  717POPI    C211044  14.233  17.364   5.792  0.0764 -0.0829 -0.1458
  717POPI    C311045  14.418  17.112   5.543 -0.5065 -0.3120 -0.3643
  717POPI   PO411046  14.085  17.030   6.169 -0.2683  0.1383 -0.0189
  717POPI   GL111047  14.166  17.130   6.521 -0.1055 -0.0959  0.0162
  717POPI   GL211048  14.204  16.887   6.626  0.2637  0.0027 -0.0622
  717POPI   C1A11049  14.070  17.458   6.810 -0.1258 -0.2126 -0.0511
  717POPI   D2A11050  14.170  17.921   7.145 -0.1192 -0.2239 -0.1962
  717POPI   C3A11051  14.391  18.186   6.937  0.1938 -0.2150 -0.1695
  717POPI   C4A11052  14.656  18.300   6.658  0.0020  0.1683 -0.1034
  717POPI   C1B11053  14.301  17.095   7.017  0.0693  0.0339 -0.2815
  717POPI   C2B11054  14.245  17.433   7.298 -0.0154  0.2200  0.1169
  717POPI   C3B11055  14.116  17.731   7.660  0.0932  0.0788  0.0323
  717POPI   C4B11056  14.082  17.470   8.052  0.1280  0.1965 -0.1983
  718POPI    C111057   1.359   2.955   5.608  0.1970  0.0319 -0.1901
  718POPI    C211058   1.043   2.968   5.363  0.0450 -0.0220  0.0005
  718POPI    C311059   1.228   3.306   5.469  0.0311  0.0127 -0.0852
  718POPI   PO411060   1.289   2.832   5.799 -0.2878  0.0623 -0.0688
  718POPI   GL111061   0.954   2.758   6.065 -0.1634  0.0811 -0.4729
  718POPI   GL211062   1.070   2.421   6.005 -0.1966  0.2291  0.2688
  718POPI   C1A11063   1.041   2.749   6.450  0.2250 -0.2064 -0.1640
  718POPI   D2A11064   0.904   2.621   6.817 -0.0983  0.1636  0.1351
  718POPI   C3A11065   1.001   2.303   7.147 -0.1724 -0.0441 -0.3296
  718POPI   C4A11066   1.401   2.332   7.248 -0.1161 -0.0293  0.1928
  718POPI   C1B11067   1.280   2.306   6.383 -0.0834  0.0784  0.0306
  718POPI   C2B11068   1.487   2.004   6.402 -0.0672  0.0933 -0.0826
  718POPI   C3B11069   1.875   1.728   6.606 -0.0365 -0.3148  0.0733
  718POPI   C4B11070   2.279   1.714   6.673  0.0321  0.3145 -0.1491
  719POPI    C111071   5.931  13.655   5.479 -0.0840 -0.0785 -0.1429
  719POPI    C211072   6.292  13.523   5.368 -0.0995 -0.1660 -0.0904
  719POPI    C311073   6.014  13.604   5.091  0.0325  0.1134 -0.1440
  719POPI   PO411074   5.930  13.841   5.701  0.1975  0.0379  0.1616
  719POPI   GL111075   5.920  13.771   6.217 -0.5100 -0.0251  0.1841
  719POPI   GL211076   6.245  14.014   6.345  0.1870 -0.1363 -0.2393
  719POPI   C1A11077   5.806  13.915   6.609  0.0878  0.0311  0.0813
  719POPI   D2A11078   5.748  14.149   6.980 -0.1170 -0.1129 -0.2420
  719POPI   C3A11079   5.894  14.154   7.340 -0.0751  0.0111  0.0198
  719POPI   C4A11080   6.238  14.351   7.581 -0.0054 -0.2308  0.1681
  719POPI   C1B11081   6.464  14.328   6.555 -0.0034  0.0895  0.2015
  719POPI   C2B11082   6.596  14.536   7.018 -0.2671  0.1972  0.2710
  719POPI   C3B11083   6.599  14.707   7.351  0.0740 -0.0146  0.3420
  719POPI   C4B11084   6.566  14.620   7.775 -0.0803 -0.1067 -0.3575
  720POPI    C111085   6.563   3.935   6.133 -0.2878  0.0149  0.1329
  720POPI    C211086   6.586   4.275   5.924  0.1657  0.0029  0.1539
  720POPI    C311087   6.640   3.924   5.741 -0.1621 -0.0532  0.1590
  720POPI   PO411088   6.310   3.928   6.259  0.1543  0.3476  0.1066
  720POPI   GL111089   5.945   3.702   6.519  0.3100 -0.3597  0.0607
  720POPI   GL211090   5.718   3.450   6.584  0.0199 -0.3323  0.3063
  720POPI   C1A11091   6.001   3.744   7.035 -0.0676 -0.0901 -0.1067
  720POPI   D2A11092   5.910   3.643   7.413  0.4653 -0.3439  0.0644
  720POPI   C3A11093   6.010   3.742   7.823 -0.1078  0.1451 -0.0682
  720POPI   C4A11094   6.083   3.757   8.255 -0.3205 -0.1129  0.1363
  720POPI   C1B11095   5.585   3.439   6.969  0.1119  0.1143  0.3818
  720POPI   C2B11096   5.528   3.265   7.341  0.2614 -0.0350 -0.0059
  720POPI   C3B11097   5.620   3.241   7.638  0.1511  0.3457 -0.3531
  720POPI   C4B11098   5.759   3.386   8.022 -0.1636 -0.0364  0.3172
  721POPI    C111099  13.323   2.619   5.662 -0.2995  0.0598  0.3661
  721POPI    C211100  12.940   2.580   5.553 -0.2828  0.3422  0.1967
  721POPI    C311101  13.154   2.891   5.422  0.1030  0.0070  0.0109
  721POPI   PO411102  13.383   2.590   5.951 -0.0952  0.1352 -0.1130
  721POPI   GL111103  13.501   2.622   6.299 -0.3299  0.2258  0.0277
  721POPI   GL211104  13.508   2.344   6.587 -0.0696  0.0077  0.1773
  721POPI   C1A11105  13.333   2.799   6.724 -0.3001 -0.2929  0.1376
  721POPI   D2A11106  13.159   2.865   7.146  0.0929 -0.0535 -0.3002
  721POPI   C3A11107  13.249   2.756   7.538 -0.1126 -0.1058  0.1695
  721POPI   C4A11108  12.961   3.017   7.885  0.0723 -0.1678  0.0003
  721POPI   C1B11109  13.423   2.429   7.035  0.2622  0.0153 -0.2998
  721POPI   C2B11110  13.130   2.325   7.403  0.0664  0.0407  0.0426
  721POPI   C3B11111  12.934   2.302   7.825  0.0446 -0.2249  0.0148
  721POPI   C4B11112  12.824   2.218   8.298  0.2051  0.0545  0.3658
  722POPI    C111113   2.077  11.119   5.870  0.0685 -0.0868 -0.0650
  722POPI    C211114   2.095  11.168   5.474  0.0297  0.1319 -0.0406
  722POPI    C311115   1.753  11.051   5.645  0.0298  0.0951 -0.0653
  722POPI   PO411116   2.323  11.331   5.944  0.0843 -0.1098 -0.1553
  722POPI   GL111117   2.602  11.520   6.263  0.0590 -0.0373 -0.0518
  722POPI   GL211118   2.916  11.553   6.235 -0.0672 -0.0523  0.2534
  722POPI   C1A11119   2.391  11.538   6.691 -0.1326 -0.1592  0.0760
  722POPI   D2A11120   2.219  11.467   7.049  0.1783  0.1165  0.0535
  722POPI   C3A11121   1.921  11.749   7.228 -0.2255  0.0083  0.0986
  722POPI   C4A11122   1.532  11.637   7.500  0.1623 -0.2473  0.0773
  722POPI   C1B11123   2.952  11.666   6.625  0.0041 -0.1422 -0.0417
  722POPI   C2B11124   2.805  11.644   7.024 -0.2982 -0.0763  0.2463
  722POPI   C3B11125   2.984  11.618   7.396 -0.0809 -0.1229 -0.1721
  722POPI   C4B11126   3.271  11.948   7.474 -0.0664 -0.1407  0.2357
  723POPI    C111127   2.964  10.786   5.597 -0.2193  0.1685 -0.0344
  723POPI    C211128   2.672  10.625   5.378 -0.2096  0.0496  0.0387
  723POPI    C311129   2.996  10.777   5.199 -0.0650 -0.3154 -0.0176
  723POPI   PO411130   3.003  10.602   5.763  0.1860 -0.4533 -0.0221
  723POPI   GL111131   3.062  10.701   6.185 -0.2238  0.1410 -0.2307
  723POPI   GL211132   3.105  10.569   6.442  0.1186  0.0397  0.3260
  723POPI   C1A11133   2.590  10.518   6.383  0.0090  0.2225 -0.2827
  723POPI   D2A11134   2.509  10.354   6.758 -0.2580 -0.1576 -0.2077
  723POPI   C3A11135   2.535  10.218   7.131 -0.0022 -0.0451  0.0790
  723POPI   C4A11136   2.399  10.066   7.539  0.1808 -0.2094 -0.0913
  723POPI   C1B11137   2.925  10.602   6.812 -0.2641 -0.0289  0.1651
  723POPI   C2B11138   2.934  10.641   7.279  0.0284  0.1162 -0.1049
  723POPI   C3B11139   2.723  10.861   7.623  0.1236 -0.1170  0.1376
  723POPI   C4B11140   2.658  11.098   8.021 -0.0758  0.0847 -0.0667
  724POPI    C111141  13.540   4.748   5.896 -0.1489 -0.0938 -0.2637
  724POPI    C211142  13.937   4.801   5.896 -0.1435 -0.1204  0.0189
  724POPI    C311143  13.756   4.644   5.576  0.0455  0.0905 -0.1946
  724POPI   PO411144  13.523   4.587   6.170  0.1292  0.1345  0.1401
  724POPI   GL111145  13.388   4.426   6.501 -0.1081 -0.2891 -0.2474
  724POPI   GL211146  13.712   4.421   6.602 -0.0221  0.0619  0.0743
  724POPI   C1A11147  13.391   4.560   6.965  0.0707 -0.2927 -0.1155
  724POPI   D2A11148  13.169   4.858   7.415 -0.2288  0.1948  0.0814
  724POPI   C3A11149  13.171   4.930   7.894  0.1079 -0.2768 -0.2966
  724POPI   C4A11150  13.002   4.885   8.297 -0.1435  0.0002  0.1969
  724POPI   C1B11151  13.874   4.286   7.027  0.2175 -0.1600 -0.2204
  724POPI   C2B11152  13.931   4.516   7.469  0.0846  0.1399  0.0940
  724POPI   C3B11153  13.573   4.626   7.815 -0.0030 -0.2196  0.0204
  724POPI   C4B11154  13.510   4.732   8.309  0.0301 -0.0796  0.0742
  725POPI    C111155  14.721   3.127   5.613 -0.0296 -0.0831  0.0044
  725POPI    C211156  14.442   3.335   5.417  0.0989 -0.0085 -0.1006
  725POPI    C311157  14.804   3.282   5.254  0.1046 -0.2158 -0.0231
  725POPI   PO411158  14.673   3.212   5.856 -0.0010 -0.3825 -0.2146
  725POPI   GL111159  14.508   3.048   6.204 -0.1211 -0.1291 -0.0696
  725POPI   GL211160  14.270   2.874   6.254  0.0429 -0.3655  0.2220
  725POPI   C1A11161  14.567   3.283   6.627  0.1489 -0.0033  0.0934
  725POPI   D2A11162  14.404   3.360   7.009 -0.2053 -0.2695 -0.2411
  725POPI   C3A11163  14.495   3.032   7.192  0.2335 -0.0143  0.0307
  725POPI   C4A11164  14.630   2.842   7.629 -0.1665 -0.3376 -0.1867
  725POPI   C1B11165  14.054   3.029   6.682  0.1716  0.2117 -0.0169
  725POPI   C2B11166  13.954   3.071   7.163 -0.2133 -0.0902  0.1868
  725POPI   C3B11167  14.152   3.006   7.529 -0.1988 -0.0829 -0.4257
  725POPI   C4B11168  14.223   2.699   7.929  0.2021  0.1571  0.3554
  726POPI    C111169   4.028  11.001   5.695  0.0056  0.1992 -0.0137
  726POPI    C211170   4.064  10.890   5.312  0.2624 -0.0614  0.0819
  726POPI    C311171   3.871  11.228   5.406  0.0262 -0.0962 -0.2619
  726POPI   PO411172   4.316  10.834   5.777  0.1838 -0.2955 -0.3043
  726POPI   GL111173   4.446  10.654   6.116  0.0335 -0.0045  0.1149
  726POPI   GL211174   4.573  10.360   6.288  0.0767 -0.0885  0.0778
  726POPI   C1A11175   4.221  10.804   6.489 -0.0109 -0.1173  0.0921
  726POPI   D2A11176   3.940  10.734   6.910 -0.1863  0.0209 -0.0894
  726POPI   C3A11177   3.786  10.386   7.069  0.0273  0.0692  0.0409
  726POPI   C4A11178   3.852  10.033   7.341  0.2294 -0.1614 -0.1199
  726POPI   C1B11179   4.736  10.659   6.516  0.2355 -0.2005  0.0253
  726POPI   C2B11180   5.019  10.908   6.668  0.0507 -0.1229  0.1280
  726POPI   C3B11181   5.079  11.078   7.073  0.0473  0.0309 -0.0921
  726POPI   C4B11182   5.075  10.827   7.330 -0.0079  0.2024 -0.2220
  727POPI    C111183  11.685   2.551   5.767 -0.1299 -0.0569  0.0159
  727POPI    C211184  11.482   2.354   5.485 -0.1550  0.1008 -0.0775
  727POPI    C311185  11.789   2.588   5.382  0.0378 -0.0895  0.0573
  727POPI   PO411186  11.568   2.427   6.088  0.2456 -0.2890  0.0316
  727POPI   GL111187  11.739   2.371   6.494 -0.1117 -0.1504 -0.0512
  727POPI   GL211188  12.022   2.452   6.536  0.0805  0.2371 -0.0124
  727POPI   C1A11189  11.460   2.201   6.827 -0.1498 -0.0714 -0.0289
  727POPI   D2A11190  11.010   2.245   7.047 -0.0543  0.2226  0.2573
  727POPI   C3A11191  10.679   2.277   7.146  0.3757 -0.2105  0.0946
  727POPI   C4A11192  10.541   2.397   7.534 -0.0065 -0.1021  0.0851
  727POPI   C1B11193  11.993   2.685   6.854 -0.0604 -0.0146 -0.1709
  727POPI   C2B11194  11.844   2.941   7.251  0.2796 -0.0347 -0.2320
  727POPI   C3B11195  11.550   3.014   7.549  0.1235  0.3107 -0.0402
  727POPI   C4B11196  11.192   2.848   7.845  0.0728  0.0548 -0.3812
  728POPI    C111197   1.579  15.450   5.512 -0.0973 -0.0677 -0.0721
  728POPI    C211198   1.188  15.391   5.451 -0.0760 -0.0904 -0.1881
  728POPI    C311199   1.373  15.700   5.277 -0.0562 -0.0402 -0.0790
  728POPI   PO411200   1.654  15.292   5.716  0.1472 -0.4356  0.0711
  728POPI   GL111201   1.748  15.556   6.089  0.1133  0.1658 -0.1228
  728POPI   GL211202   1.414  15.780   6.180 -0.1881 -0.0822 -0.1393
  728POPI   C1A11203   1.620  15.475   6.522 -0.0199  0.1402 -0.0268
  728POPI   D2A11204   1.782  15.577   6.960 -0.0788 -0.1607 -0.0283
  728POPI   C3A11205   1.778  15.330   7.234 -0.2636  0.1175 -0.2340
  728POPI   C4A11206   2.076  15.182   7.549 -0.0402 -0.0625  0.1454
  728POPI   C1B11207   1.621  16.010   6.473  0.1230  0.2109 -0.1436
  728POPI   C2B11208   1.661  16.304   6.884 -0.2348  0.2628  0.1424
  728POPI   C3B11209   1.581  16.079   7.250 -0.1070 -0.0456 -0.2176
  728POPI   C4B11210   1.322  16.038   7.676  0.1568  0.2785  0.3147
  729POPI    C111211   1.637   3.718   5.690  0.0998  0.1108 -0.0677
  729POPI    C211212   1.996   3.595   5.818  0.0384  0.1700  0.1656
  729POPI    C311213   1.939   3.979   5.722  0.1216  0.0999 -0.1787
  729POPI   PO411214   1.483   3.662   5.948  0.3576  0.0822 -0.2761
  729POPI   GL111215   1.514   3.623   6.357 -0.0974 -0.0503  0.0834
  729POPI   GL211216   1.689   3.980   6.293  0.0920 -0.0539 -0.4702
  729POPI   C1A11217   1.738   3.367   6.630  0.0628 -0.3196  0.0277
  729POPI   D2A11218   1.611   3.217   7.001 -0.0024  0.0608 -0.0692
  729POPI   C3A11219   1.757   3.056   7.292  0.0562 -0.0029 -0.1159
  729POPI   C4A11220   1.814   2.683   7.254 -0.0171 -0.0975  0.1233
  729POPI   C1B11221   1.655   3.908   6.702  0.0275 -0.1666  0.2762
  729POPI   C2B11222   1.567   3.673   7.000  0.6284 -0.1298  0.3996
  729POPI   C3B11223   1.666   3.536   7.357  0.0446  0.0512 -0.0822
  729POPI   C4B11224   1.309   3.236   7.434 -0.2529  0.0820 -0.1715
  730POPI    C111225   6.883  14.316   5.682  0.0779 -0.0442 -0.2618
  730POPI    C211226   7.014  13.948   5.596  0.1526 -0.0896  0.0366
  730POPI    C311227   6.622  14.017   5.634  0.1486 -0.1823  0.1714
  730POPI   PO411228   7.211  14.365   5.834  0.3318 -0.3116  0.1307
  730POPI   GL111229   7.282  14.717   6.160  0.3187  0.1201 -0.0439
  730POPI   GL211230   7.578  14.538   6.214 -0.1882  0.2146  0.2110
  730POPI   C1A11231   7.339  14.804   6.686 -0.0750 -0.0306 -0.2603
  730POPI   D2A11232   7.090  14.795   7.193  0.0237  0.2307  0.3364
  730POPI   C3A11233   6.975  14.910   7.575 -0.1645 -0.0837 -0.0284
  730POPI   C4A11234   7.116  15.294   7.786 -0.1162  0.0192 -0.1523
  730POPI   C1B11235   7.643  14.361   6.647  0.2289 -0.1278  0.0522
  730POPI   C2B11236   8.006  14.373   6.948  0.1258  0.2970  0.1242
  730POPI   C3B11237   7.869  14.221   7.359  0.2286  0.2654 -0.0556
  730POPI   C4B11238   7.730  14.204   7.728  0.2642 -0.3591 -0.2935
  731POPI    C111239  12.351   8.869   6.092  0.2025  0.1093  0.0024
  731POPI    C211240  12.142   8.718   6.397 -0.0797 -0.1108 -0.2930
  731POPI    C311241  12.184   9.114   6.360  0.1565 -0.0873  0.1555
  731POPI   PO411242  12.642   8.732   6.119  0.0141 -0.0442  0.1785
  731POPI   GL111243  12.758   8.522   6.563  0.0331 -0.2058 -0.1742
  731POPI   GL211244  12.562   8.847   6.600  0.3150  0.0563 -0.0736
  731POPI   C1A11245  12.583   8.608   7.043  0.1630 -0.0874 -0.0611
  731POPI   D2A11246  12.301   8.685   7.355  0.2750 -0.0411  0.1245
  731POPI   C3A11247  12.298   8.918   7.688  0.2196 -0.1183  0.3220
  731POPI   C4A11248  12.364   8.830   8.116  0.2841 -0.0323  0.3029
  731POPI   C1B11249  12.455   9.096   6.910  0.0377  0.1813  0.0866
  731POPI   C2B11250  12.475   9.214   7.306 -0.4580 -0.2607 -0.4501
  731POPI   C3B11251  12.731   9.180   7.669  0.0927  0.0341 -0.2661
  731POPI   C4B11252  12.742   9.290   8.097 -0.0119  0.0115  0.1716
  732POPI    C111253   1.664  16.416   5.694 -0.1601  0.0491  0.0868
  732POPI    C211254   1.615  16.302   6.075  0.1377  0.0122  0.1159
  732POPI    C311255   1.957  16.475   5.959  0.1023 -0.0996 -0.1645
  732POPI   PO411256   1.452  16.347   5.520 -0.2908 -0.0531  0.0697
  732POPI   GL111257   1.070  16.460   5.820 -0.0761  0.3593 -0.1885
  732POPI   GL211258   0.898  16.242   6.047 -0.2469 -0.0120  0.1017
  732POPI   C1A11259   1.289  16.610   6.156  0.1653  0.0387  0.1583
  732POPI   D2A11260   1.578  16.587   6.507  0.0306  0.0365  0.0310
  732POPI   C3A11261   1.983  16.380   6.436 -0.0444 -0.0023 -0.0520
  732POPI   C4A11262   2.395  16.297   6.218  0.0543 -0.0134 -0.0076
  732POPI   C1B11263   1.154  16.147   6.432  0.2230 -0.0369 -0.2372
  732POPI   C2B11264   1.292  15.925   6.846 -0.0784 -0.0022 -0.0759
  732POPI   C3B11265   1.289  15.587   7.190 -0.2666  0.1874  0.2346
  732POPI   C4B11266   1.512  15.650   7.534  0.2419 -0.1293  0.4009
  733POPI    C111267  16.959  15.442   5.488 -0.0915 -0.0326  0.1010
  733POPI    C211268  16.799  15.095   5.373 -0.0233 -0.0672  0.1102
  733POPI    C311269  17.174  15.106   5.510  0.2110  0.1066 -0.5071
  733POPI   PO411270  16.728  15.549   5.611  0.0433 -0.0256  0.0011
  733POPI   GL111271  16.519  15.584   6.070 -0.3729  0.0954  0.0693
  733POPI   GL211272  16.509  15.875   6.052  0.1654  0.2900  0.0215
  733POPI   C1A11273  16.743  15.561   6.380  0.0933  0.1246  0.1427
  733POPI   D2A11274  16.951  15.519   6.739  0.2152  0.0935 -0.0272
  733POPI   C3A11275  16.935  15.665   7.115 -0.0621  0.0233  0.0300
  733POPI   C4A11276  16.763  15.854   7.493  0.1258 -0.0169  0.0104
  733POPI   C1B11277  16.400  16.098   6.452 -0.3511  0.0136  0.0017
  733POPI   C2B11278  16.623  15.975   6.939  0.0175  0.0505  0.3035
  733POPI   C3B11279  16.894  16.231   7.139 -0.0257 -0.1511  0.2443
  733POPI   C4B11280  16.889  16.396   7.502  0.0137 -0.0865 -0.3853
  734POPI    C111281   2.709   4.597   5.856  0.0065 -0.0042  0.0256
  734POPI    C211282   2.586   4.320   5.596 -0.1278  0.0611  0.0183
  734POPI    C311283   2.472   4.700   5.551 -0.2902  0.0441  0.2669
  734POPI   PO411284   2.765   4.473   6.126 -0.0050 -0.1720  0.0999
  734POPI   GL111285   2.460   4.258   6.432 -0.0905  0.0345  0.1784
  734POPI   GL211286   2.597   4.449   6.776 -0.1100 -0.0114  0.6753
  734POPI   C1A11287   2.651   3.899   6.744 -0.0000 -0.0040  0.0078
  734POPI   D2A11288   2.668   3.773   7.149 -0.0785 -0.0229 -0.0000
  734POPI   C3A11289   2.602   3.378   7.461  0.0552  0.2406  0.0158
  734POPI   C4A11290   2.712   3.047   7.824  0.4337  0.0866  0.2731
  734POPI   C1B11291   2.330   4.527   7.147  0.0139  0.1977  0.1186
  734POPI   C2B11292   2.152   4.600   7.501 -0.0988 -0.1813  0.0596
  734POPI   C3B11293   1.908   4.480   7.741  0.1316  0.0375  0.1301
  734POPI   C4B11294   1.448   4.580   7.864  0.2801 -0.1294  0.3383
  735POPI    C111295   5.245  14.376   5.665 -0.2265 -0.0227  0.0835
  735POPI    C211296   5.202  14.273   5.281 -0.0810  0.2084  0.0036
  735POPI    C311297   4.981  14.569   5.434 -0.2201  0.0414  0.1296
  735POPI   PO411298   5.191  14.128   5.867  0.3933  0.0041  0.0657
  735POPI   GL111299   5.265  14.188   6.350  0.2834  0.0003  0.0981
  735POPI   GL211300   5.096  14.529   6.366  0.2134 -0.0585 -0.0081
  735POPI   C1A11301   5.429  14.394   6.727 -0.1611 -0.1205  0.1285
  735POPI   D2A11302   5.248  14.544   7.031  0.0710 -0.3483  0.1823
  735POPI   C3A11303   5.439  14.410   7.401 -0.1097 -0.0766  0.3258
  735POPI   C4A11304   5.614  14.507   7.699  0.1328  0.0116 -0.0010
  735POPI   C1B11305   4.648  14.580   6.595  0.2228  0.1118 -0.3010
  735POPI   C2B11306   4.459  14.349   6.740 -0.3448 -0.1334 -0.1249
  735POPI   C3B11307   4.319  14.082   7.030 -0.0786 -0.0975  0.1769
  735POPI   C4B11308   4.302  13.997   7.430 -0.0849 -0.0335  0.0548
  736POPI    C111309   4.904   9.146   6.029 -0.1803  0.1663  0.1245
  736POPI    C211310   4.690   9.158   5.692  0.1257  0.1721 -0.0744
  736POPI    C311311   4.597   8.895   5.979 -0.1277  0.1569 -0.1674
  736POPI   PO411312   4.902   9.451   6.099 -0.1061 -0.1139 -0.0799
  736POPI   GL111313   5.032   9.698   6.445  0.4699 -0.1259 -0.1214
  736POPI   GL211314   5.003  10.019   6.476 -0.0382  0.0353 -0.0466
  736POPI   C1A11315   4.691   9.447   6.746 -0.1526 -0.1957 -0.1543
  736POPI   D2A11316   4.325   9.565   6.940 -0.1424 -0.0254 -0.0299
  736POPI   C3A11317   4.133   9.855   6.894 -0.2355 -0.0586  0.1787
  736POPI   C4A11318   3.717   9.911   6.768 -0.0818  0.0925 -0.1639
  736POPI   C1B11319   4.673  10.122   6.747  0.0185  0.1865  0.4020
  736POPI   C2B11320   4.594  10.000   7.128  0.2641 -0.1092 -0.3276
  736POPI   C3B11321   4.326   9.795   7.470  0.0862  0.4011  0.1185
  736POPI   C4B11322   4.380   9.794   8.002 -0.2940 -0.0606 -0.0733
  737POPS   CNO11323  11.019   3.042   5.934 -0.1579  0.2727 -0.2086
  737POPS   PO411324  11.440   2.962   6.051 -0.0957 -0.2294 -0.1117
  737POPS   GL111325  11.360   2.748   6.422 -0.0599  0.0274 -0.0243
  737POPS   GL211326  11.619   2.912   6.559 -0.0733  0.0577 -0.0407
  737POPS   C1A11327  11.182   2.718   6.908  0.1835  0.0016 -0.0925
  737POPS   D2A11328  11.331   2.649   7.258  0.0266 -0.0014  0.1776
  737POPS   C3A11329  11.066   2.494   7.507  0.0387 -0.0706  0.0012
  737POPS   C4A11330  11.101   2.204   7.845  0.2132 -0.0027 -0.0461
  737POPS   C1B11331  12.017   3.139   6.727 -0.0319  0.1489  0.2798
  737POPS   C2B11332  12.436   3.167   6.944 -0.1624  0.0219  0.1413
  737POPS   C3B11333  12.813   3.232   7.004  0.0495 -0.2077  0.2401
  737POPS   C4B11334  13.032   3.211   7.453 -0.2223  0.0465  0.0029
  738POPS   CNO11335  11.437   2.002   6.322 -0.0316 -0.0562 -0.2536
  738POPS   PO411336  11.063   1.621   6.203 -0.2642 -0.0356  0.0284
  738POPS   GL111337  11.277   1.159   6.508  0.1840 -0.0443 -0.1401
  738POPS   GL211338  11.591   1.352   6.709 -0.1388  0.1058 -0.1827
  738POPS   C1A11339  11.391   1.011   6.903 -0.2486  0.0299  0.0472
  738POPS   D2A11340  11.664   1.156   7.271 -0.0081  0.1787  0.1547
  738POPS   C3A11341  11.849   1.592   7.352  0.1404  0.1563  0.0384
  738POPS   C4A11342  11.999   1.747   7.759 -0.3412 -0.1101 -0.1111
  738POPS   C1B11343  11.426   1.661   6.928  0.1141 -0.1048 -0.1406
  738POPS   C2B11344  11.420   1.899   7.302  0.1939 -0.0937  0.0830
  738POPS   C3B11345  11.503   1.914   7.710 -0.0623 -0.0823  0.1503
  738POPS   C4B11346  11.615   1.966   8.115  0.5456 -0.0436  0.3487
  739POPS   CNO11347   5.253   9.543   5.777 -0.1863  0.0429 -0.1922
  739POPS   PO411348   5.592   9.560   6.048 -0.2336 -0.2243  0.0726
  739POPS   GL111349   5.404   9.381   6.351  0.0725 -0.1794  0.0832
  739POPS   GL211350   5.443   9.052   6.459  0.3488  0.1093 -0.2823
  739POPS   C1A11351   5.278   9.488   6.832 -0.0847  0.1188  0.1466
  739POPS   D2A11352   4.936   9.599   7.181  0.0214 -0.0012  0.1109
  739POPS   C3A11353   4.998   9.394   7.628  0.0435 -0.1559  0.1380
  739POPS   C4A11354   4.929   9.181   8.113  0.0707  0.2550  0.1166
  739POPS   C1B11355   5.304   8.984   6.928 -0.1501  0.2393  0.1323
  739POPS   C2B11356   5.178   9.174   7.230  0.0044  0.0535 -0.0721
  739POPS   C3B11357   4.985   8.887   7.641 -0.2156  0.2037  0.1941
  739POPS   C4B11358   4.566   8.774   7.761 -0.0310  0.2422 -0.0764
  740POPS   CNO11359   8.053   8.303   5.947  0.3465 -0.2969  0.2281
  740POPS   PO411360   8.070   8.614   6.275 -0.1936 -0.0978 -0.1968
  740POPS   GL111361   8.176   8.803   6.681  0.1443  0.0015  0.0023
  740POPS   GL211362   8.533   8.780   6.729  0.0772  0.0886 -0.2151
  740POPS   C1A11363   7.902   8.670   6.908  0.2122 -0.1997  0.0677
  740POPS   D2A11364   7.771   8.254   6.971 -0.1199 -0.1650 -0.0476
  740POPS   C3A11365   7.649   7.928   7.293  0.0337  0.0458 -0.0668
  740POPS   C4A11366   7.576   7.980   7.715 -0.0240  0.0590 -0.2722
  740POPS   C1B11367   8.394   8.800   7.134  0.2632 -0.1859  0.0539
  740POPS   C2B11368   8.399   8.908   7.565 -0.1449  0.0966 -0.2491
  740POPS   C3B11369   8.208   9.194   7.683  0.1651  0.0038  0.0042
  740POPS   C4B11370   7.881   9.370   7.807 -0.1736 -0.0394  0.1067
  741POPS   CNO11371   1.243  14.868   5.539  0.0847 -0.0651  0.0325
  741POPS   PO411372   0.909  14.961   5.751 -0.1881  0.0556 -0.1770
  741POPS   GL111373   1.006  14.585   5.918  0.1138 -0.0353 -0.0265
  741POPS   GL211374   0.767  14.583   6.215 -0.2600  0.0822  0.1036
  741POPS   C1A11375   1.138  14.186   6.103 -0.0237  0.2245 -0.0419
  741POPS   D2A11376   0.826  14.068   6.397 -0.0085 -0.1696 -0.0134
  741POPS   C3A11377   0.752  14.409   6.654 -0.0603 -0.0989 -0.0212
  741POPS   C4A11378   0.584  14.493   6.968  0.1381 -0.3635  0.1037
  741POPS   C1B11379   0.360  14.629   6.472  0.3298  0.0128 -0.4169
  741POPS   C2B11380   0.141  14.624   6.749  0.1422 -0.0090 -0.3483
  741POPS   C3B11381  -0.038  14.858   7.015 -0.0708 -0.1013 -0.3039
  741POPS   C4B11382  -0.330  15.085   7.312 -0.3685 -0.0365 -0.0531
  742POPS   CNO11383  17.771   7.714   5.809 -0.0554 -0.3047 -0.1019
  742POPS   PO411384  18.075   8.083   5.712 -0.1410 -0.0414 -0.0794
  742POPS   GL111385  18.080   8.079   6.118  0.0482 -0.0214 -0.4957
  742POPS   GL211386  18.124   7.764   6.196 -0.0341  0.1561 -0.2459
  742POPS   C1A11387  18.145   8.437   6.448  0.0243  0.0746 -0.0449
  742POPS   D2A11388  17.981   8.799   6.571 -0.0313  0.1790  0.1652
  742POPS   C3A11389  18.133   9.123   6.886 -0.0409  0.1417  0.0995
  742POPS   C4A11390  18.045   9.037   7.302 -0.0666  0.0024  0.2390
  742POPS   C1B11391  18.340   7.979   6.507  0.0355  0.0597  0.0798
  742POPS   C2B11392  18.503   8.134   6.874 -0.2135  0.3464  0.0717
  742POPS   C3B11393  18.401   8.007   7.321 -0.1722  0.0424  0.1312
  742POPS   C4B11394  18.388   7.806   7.655  0.0315  0.0204  0.1814
  743POPS   CNO11395   1.440   8.318   5.573 -0.2302 -0.1126  0.4577
  743POPS   PO411396   1.546   8.340   5.933  0.1026  0.0505  0.1174
  743POPS   GL111397   1.161   8.196   6.096 -0.4125 -0.1673  0.0627
  743POPS   GL211398   1.260   7.901   6.187  0.2600 -0.1566  0.0268
  743POPS   C1A11399   0.973   8.334   6.444 -0.0845 -0.0888  0.1153
  743POPS   D2A11400   0.757   8.386   6.860  0.0087  0.2108  0.2370
  743POPS   C3A11401   0.558   8.534   7.215 -0.2064  0.0224 -0.1496
  743POPS   C4A11402   0.338   8.411   7.592  0.1484 -0.0495  0.0848
  743POPS   C1B11403   1.586   7.895   6.551  0.1182 -0.0293  0.0536
  743POPS   C2B11404   1.605   8.162   6.975 -0.1028 -0.1133  0.2054
  743POPS   C3B11405   1.685   8.296   7.388  0.1558  0.1159  0.0136
  743POPS   C4B11406   1.398   8.534   7.671 -0.1465  0.1525 -0.0558
  744POPS   CNO11407  12.555   1.260   5.433  0.0510 -0.5084 -0.1365
  744POPS   PO411408  12.700   1.054   5.859  0.1215 -0.2055  0.1118
  744POPS   GL111409  12.775   1.102   6.273  0.1024  0.1412 -0.3234
  744POPS   GL211410  12.556   1.247   6.420 -0.3180 -0.0291  0.0258
  744POPS   C1A11411  12.910   1.073   6.654  0.2373  0.0049 -0.0633
  744POPS   D2A11412  12.642   1.276   6.960 -0.0866  0.0479  0.0148
  744POPS   C3A11413  12.730   1.506   7.414 -0.3618  0.0412  0.1601
  744POPS   C4A11414  12.762   1.423   7.828 -0.0418  0.0902 -0.1310
  744POPS   C1B11415  12.883   1.532   6.562  0.2916  0.0225 -0.1306
  744POPS   C2B11416  13.083   1.424   6.988  0.0179 -0.1809  0.0843
  744POPS   C3B11417  13.188   1.225   7.376 -0.0644 -0.0705 -0.1421
  744POPS   C4B11418  13.548   1.018   7.571  0.1311  0.4547  0.0866
  745POPS   CNO11419   0.869   2.534   5.550  0.2869  0.1879 -0.3909
  745POPS   PO411420   0.692   2.277   5.430 -0.2655 -0.0220  0.5171
  745POPS   GL111421   0.398   2.080   5.717 -0.1193 -0.1532  0.0327
  745POPS   GL211422   0.093   1.821   5.632  0.1572 -0.2769 -0.1093
  745POPS   C1A11423   0.451   2.097   6.183  0.0958 -0.2057  0.0847
  745POPS   D2A11424   0.621   2.398   6.418 -0.2570 -0.0851 -0.3059
  745POPS   C3A11425   0.510   2.832   6.419  0.0441  0.1062 -0.1049
  745POPS   C4A11426   0.691   3.132   6.280  0.0068 -0.1502 -0.0157
  745POPS   C1B11427   0.034   1.772   6.095  0.4006  0.1172  0.1026
  745POPS   C2B11428  -0.184   1.771   6.465 -0.1387  0.0063 -0.1143
  745POPS   C3B11429  -0.067   1.713   6.893  0.0368 -0.1845  0.1167
  745POPS   C4B11430  -0.149   1.527   7.307  0.2308 -0.0731 -0.1530
  746POPS   CNO11431  14.348   5.232   5.800 -0.1895  0.1299 -0.4175
  746POPS   PO411432  13.912   5.376   5.833 -0.2198 -0.2438  0.0427
  746POPS   GL111433  13.903   5.119   6.256 -0.1074 -0.0096 -0.1481
  746POPS   GL211434  13.698   4.915   6.445  0.0957 -0.1645 -0.2973
  746POPS   C1A11435  13.756   5.416   6.596  0.1614 -0.1217 -0.1175
  746POPS   D2A11436  13.579   5.800   6.780  0.0714  0.2191  0.2974
  746POPS   C3A11437  13.464   6.033   7.061  0.1252  0.0591  0.1800
  746POPS   C4A11438  13.459   6.195   7.480  0.0242  0.0412  0.2894
  746POPS   C1B11439  13.830   4.844   6.930  0.0733 -0.1703 -0.1474
  746POPS   C2B11440  13.665   4.862   7.287 -0.1663 -0.0380  0.1270
  746POPS   C3B11441  13.510   5.140   7.645  0.0669 -0.0705  0.0826
  746POPS   C4B11442  13.524   5.460   7.840  0.1730 -0.1650  0.1536
  747POPS   CNO11443  10.561   4.059   5.843  0.0401  0.1679 -0.0710
  747POPS   PO411444  10.579   3.902   6.259 -0.5122 -0.0502  0.0127
  747POPS   GL111445  10.529   4.079   6.623  0.1843  0.2667  0.1466
  747POPS   GL211446  10.727   4.236   6.945 -0.1147  0.0868  0.3576
  747POPS   C1A11447  10.173   4.027   6.916 -0.0238 -0.1970  0.1335
  747POPS   D2A11448   9.849   3.912   7.179  0.0213 -0.2345 -0.0633
  747POPS   C3A11449   9.989   3.747   7.663  0.0102  0.1053  0.1546
  747POPS   C4A11450   9.921   3.710   8.164  0.1958  0.1693  0.1821
  747POPS   C1B11451  10.857   4.404   7.236  0.3494 -0.1216  0.0361
  747POPS   C2B11452  10.754   4.445   7.679  0.1088  0.0786  0.2098
  747POPS   C3B11453  10.488   4.335   8.099 -0.0766 -0.0600  0.4093
  747POPS   C4B11454  10.254   4.636   8.307  0.1974 -0.3725 -0.1386
  748POPS   CNO11455   6.906   5.584   5.887  0.4153  0.0759  0.2287
  748POPS   PO411456   6.919   5.122   6.073 -0.0360 -0.1412  0.3280
  748POPS   GL111457   6.860   5.264   6.436  0.0970  0.0800 -0.0313
  748POPS   GL211458   6.777   5.012   6.689 -0.0452  0.2201  0.1888
  748POPS   C1A11459   7.005   5.461   6.825 -0.0540 -0.0565 -0.1433
  748POPS   D2A11460   7.072   5.468   7.304 -0.4855 -0.0718  0.0580
  748POPS   C3A11461   6.856   5.188   7.563  0.2335 -0.4904  0.3373
  748POPS   C4A11462   6.635   4.832   7.608 -0.2919 -0.1170  0.0289
  748POPS   C1B11463   6.688   5.140   7.067 -0.0472  0.2542 -0.1288
  748POPS   C2B11464   6.584   5.571   7.190  0.0567 -0.1903 -0.1701
  748POPS   C3B11465   6.572   5.741   7.565 -0.0541 -0.1066  0.2632
  748POPS   C4B11466   6.775   5.726   8.020 -0.0338 -0.0232  0.1859
  749POPS   CNO11467  17.385   9.192   6.231 -0.1406 -0.2081  0.1705
  749POPS   PO411468  17.118   9.071   5.845 -0.3571 -0.0135 -0.1955
  749POPS   GL111469  16.981   8.926   6.290 -0.0141 -0.5327 -0.1703
  749POPS   GL211470  16.862   8.588   6.426  0.0849  0.0103  0.0039
  749POPS   C1A11471  16.980   9.200   6.559  0.1979 -0.3812  0.1028
  749POPS   D2A11472  17.235   9.099   6.816 -0.0623  0.0568 -0.2015
  749POPS   C3A11473  17.012   9.221   7.179  0.2468  0.1910  0.0199
  749POPS   C4A11474  16.831   9.250   7.601 -0.1359  0.0177 -0.2236
  749POPS   C1B11475  16.765   8.777   6.734 -0.1709 -0.0865 -0.2287
  749POPS   C2B11476  16.703   8.724   7.171 -0.1112  0.1629 -0.0553
  749POPS   C3B11477  16.263   8.652   7.401  0.0763  0.2250  0.2178
  749POPS   C4B11478  16.124   8.258   7.474  0.3565 -0.0126 -0.1438
  750POPS   CNO11479  15.767  13.793   5.456 -0.1977 -0.0045 -0.1782
  750POPS   PO411480  15.773  13.920   5.836 -0.0923  0.0196  0.1632
  750POPS   GL111481  15.747  14.059   6.290 -0.0941  0.1097  0.1820
  750POPS   GL211482  15.918  14.286   6.395  0.2944 -0.1872  0.1906
  750POPS   C1A11483  15.549  14.021   6.751  0.0379 -0.1517  0.0591
  750POPS   D2A11484  15.589  13.981   7.142 -0.3206 -0.1519  0.1503
  750POPS   C3A11485  15.889  13.600   7.332  0.2526  0.1571  0.2586
  750POPS   C4A11486  16.174  13.318   7.513 -0.0124 -0.2976  0.1335
  750POPS   C1B11487  15.743  14.469   6.782  0.0450 -0.0234 -0.0081
  750POPS   C2B11488  15.898  14.367   7.209 -0.2176 -0.2036  0.2986
  750POPS   C3B11489  16.154  14.370   7.394 -0.0270  0.2704  0.2023
  750POPS   C4B11490  16.560  14.361   7.551  0.1110 -0.1444  0.1256
  751POPS   CNO11491   8.717   9.171   5.793  0.1360 -0.0391 -0.0378
  751POPS   PO411492   8.801   9.479   6.184  0.0669  0.0217 -0.2927
  751POPS   GL111493   8.932   9.292   6.575  0.3175 -0.1129 -0.2836
  751POPS   GL211494   9.113   9.451   6.738  0.2053 -0.2475  0.0805
  751POPS   C1A11495   8.842   9.069   6.990 -0.3460 -0.1246  0.0334
  751POPS   D2A11496   8.845   9.136   7.445 -0.1701  0.0311  0.0434
  751POPS   C3A11497   8.959   8.879   7.783  0.0156  0.2572  0.2411
  751POPS   C4A11498   9.242   8.512   7.913  0.1911  0.1738 -0.2270
  751POPS   C1B11499   9.145   9.757   7.117  0.2737  0.0528 -0.1912
  751POPS   C2B11500   8.913  10.062   7.328 -0.1000 -0.0757 -0.2383
  751POPS   C3B11501   8.775  10.359   7.699 -0.0062 -0.1374  0.0347
  751POPS   C4B11502   8.964  10.376   8.093 -0.1171 -0.0961 -0.1525
  752POPS   CNO11503   6.057   0.971   5.988 -0.0514  0.2354 -0.3311
  752POPS   PO411504   6.260   1.329   5.784  0.0808 -0.2601 -0.0564
  752POPS   GL111505   6.355   1.269   6.269  0.2173 -0.4662 -0.2523
  752POPS   GL211506   6.060   1.500   6.455 -0.2295 -0.0587 -0.0344
  752POPS   C1A11507   6.186   1.010   6.570 -0.1055 -0.1107  0.2438
  752POPS   D2A11508   5.859   0.797   6.836  0.0298 -0.0319  0.2108
  752POPS   C3A11509   5.872   1.071   7.202 -0.2455  0.1689  0.0651
  752POPS   C4A11510   5.725   1.227   7.532 -0.0517 -0.3886  0.0815
  752POPS   C1B11511   6.168   1.438   6.794 -0.0977 -0.0649 -0.1126
  752POPS   C2B11512   6.346   1.274   7.235 -0.2297 -0.0503 -0.1789
  752POPS   C3B11513   6.231   1.292   7.734 -0.0910 -0.0561 -0.1090
  752POPS   C4B11514   6.066   1.571   7.944  0.1662 -0.2158 -0.1991
  753POPS   CNO11515   8.753   2.898   5.723  0.0672 -0.2573 -0.1557
  753POPS   PO411516   8.527   2.869   6.087 -0.2341  0.2253 -0.2134
  753POPS   GL111517   8.431   2.885   6.585 -0.0226 -0.0039  0.0023
  753POPS   GL211518   8.682   3.027   6.788 -0.0761  0.0290  0.0469
  753POPS   C1A11519   8.455   2.576   6.955  0.1432  0.0454 -0.3927
  753POPS   D2A11520   8.095   2.499   7.285  0.2125  0.2105  0.0247
  753POPS   C3A11521   8.081   2.196   7.477 -0.1067  0.1292 -0.1066
  753POPS   C4A11522   7.966   2.099   7.903  0.1396  0.0739 -0.3758
  753POPS   C1B11523   8.570   3.263   7.173 -0.0301 -0.0540  0.1022
  753POPS   C2B11524   8.656   3.214   7.646  0.3130 -0.4281  0.1490
  753POPS   C3B11525   8.628   3.472   7.971 -0.1154 -0.0475  0.1053
  753POPS   C4B11526   8.709   3.601   8.374  0.0129 -0.0660 -0.0068
  754POPS   CNO11527  14.318   2.801   5.694  0.0914 -0.3016  0.0408
  754POPS   PO411528  14.342   2.391   5.779 -0.1679  0.0164 -0.1064
  754POPS   GL111529  14.476   2.356   6.241  0.2837 -0.0196 -0.2696
  754POPS   GL211530  14.446   2.011   6.350  0.0428  0.0590 -0.1019
  754POPS   C1A11531  14.701   2.208   6.680  0.2376 -0.2867 -0.3996
  754POPS   D2A11532  15.140   2.145   6.782  0.2703 -0.1656  0.0038
  754POPS   C3A11533  15.258   1.912   7.050  0.3303 -0.2344 -0.0253
  754POPS   C4A11534  15.471   1.788   7.443  0.0913  0.1779  0.1494
  754POPS   C1B11535  14.423   1.719   6.601  0.0418  0.0433  0.2059
  754POPS   C2B11536  14.075   1.439   6.557 -0.0399 -0.1298 -0.0533
  754POPS   C3B11537  13.912   1.133   6.688 -0.0665 -0.0711 -0.1077
  754POPS   C4B11538  13.814   0.698   6.720  0.2071  0.2551  0.0757
  755POPS   CNO11539  17.678  12.459   5.293  0.1163  0.2074  0.1323
  755POPS   PO411540  17.644  12.866   5.587  0.0096  0.0439 -0.2366
  755POPS   GL111541  17.636  12.826   5.973  0.0579 -0.1856  0.2367
  755POPS   GL211542  17.896  12.677   6.070 -0.0830  0.0933 -0.0903
  755POPS   C1A11543  17.568  12.780   6.468 -0.0233 -0.3010 -0.0159
  755POPS   D2A11544  17.384  12.701   6.826 -0.1591 -0.4765  0.0062
  755POPS   C3A11545  17.475  12.852   7.245 -0.0188  0.3245  0.0811
  755POPS   C4A11546  17.347  12.887   7.612  0.1204  0.0760  0.2487
  755POPS   C1B11547  18.065  12.789   6.495 -0.1940  0.3661  0.4353
  755POPS   C2B11548  17.953  12.765   7.022  0.2206  0.1222  0.0269
  755POPS   C3B11549  17.914  12.957   7.496 -0.0958 -0.1451 -0.2585
  755POPS   C4B11550  17.948  13.305   7.885 -0.2740  0.1703 -0.1503
  756POPS   CNO11551  10.448   5.066   5.759 -0.0078 -0.2276  0.2841
  756POPS   PO411552  10.311   4.956   6.135  0.3431 -0.0858 -0.0979
  756POPS   GL111553  10.220   4.916   6.514  0.0506 -0.3654 -0.0899
  756POPS   GL211554  10.293   4.653   6.686 -0.1044 -0.2333 -0.0141
  756POPS   C1A11555  10.225   5.260   6.797  0.1952  0.1920 -0.2022
  756POPS   D2A11556  10.240   5.412   7.228 -0.1260  0.0260  0.0961
  756POPS   C3A11557  10.450   5.233   7.589 -0.3157 -0.2135  0.0271
  756POPS   C4A11558  10.590   5.199   8.034 -0.1843  0.1643 -0.0620
  756POPS   C1B11559  10.284   4.527   7.114  0.0351  0.0135  0.0568
  756POPS   C2B11560  10.220   4.184   7.451 -0.0865  0.2069  0.2444
  756POPS   C3B11561  10.546   3.954   7.655  0.3425  0.5182  0.2110
  756POPS   C4B11562  10.830   3.688   7.944 -0.2028 -0.1684 -0.1366
  757POPS   CNO11563   8.042  13.806   5.724 -0.3331 -0.1937  0.1629
  757POPS   PO411564   8.327  14.110   5.885  0.3214 -0.2006  0.3336
  757POPS   GL111565   8.429  14.216   6.270  0.0073 -0.1169 -0.1865
  757POPS   GL211566   8.126  14.524   6.461  0.2882  0.0171  0.0762
  757POPS   C1A11567   8.313  14.068   6.654 -0.1905 -0.2283  0.1737
  757POPS   D2A11568   8.395  14.119   7.191  0.0568  0.2491 -0.0335
  757POPS   C3A11569   8.354  14.510   7.416  0.2475 -0.0999  0.0752
  757POPS   C4A11570   8.526  14.709   7.789 -0.2257  0.0447 -0.1054
  757POPS   C1B11571   8.458  14.718   6.637  0.2531  0.2299  0.3215
  757POPS   C2B11572   8.681  14.564   7.005 -0.3239  0.1030  0.1097
  757POPS   C3B11573   8.821  14.324   7.388 -0.0144  0.0116  0.1739
  757POPS   C4B11574   8.704  14.136   7.774  0.2247 -0.1980  0.1254
  758POPS   CNO11575   2.399  16.707   5.881 -0.1329 -0.0238  0.2266
  758POPS   PO411576   2.037  16.990   5.872 -0.1360  0.0145 -0.0276
  758POPS   GL111577   1.703  16.998   6.133 -0.5012 -0.2816  0.0368
  758POPS   GL211578   1.501  17.253   6.030 -0.2790 -0.3944  0.2334
  758POPS   C1A11579   1.714  17.093   6.528 -0.0456  0.1395  0.0228
  758POPS   D2A11580   1.798  17.267   6.973 -0.3770 -0.1756  0.0461
  758POPS   C3A11581   2.082  16.992   7.247 -0.0869  0.0796 -0.0943
  758POPS   C4A11582   2.387  16.746   7.233  0.2487  0.0634 -0.0561
  758POPS   C1B11583   1.280  17.097   6.352  0.0192 -0.0313 -0.0732
  758POPS   C2B11584   1.199  16.814   6.660 -0.0540 -0.0209 -0.1546
  758POPS   C3B11585   1.173  16.402   6.925  0.3930  0.0086  0.0842
  758POPS   C4B11586   1.085  16.125   7.254  0.2757  0.0748  0.2147
  759POPS   CNO11587   6.547   1.902   5.693 -0.0783 -0.2166  0.1575
  759POPS   PO411588   6.781   1.849   5.992  0.0670  0.2147  0.0986
  759POPS   GL111589   6.819   1.487   6.308  0.0116  0.2183 -0.0269
  759POPS   GL211590   6.931   1.151   6.242 -0.0644 -0.1268  0.2025
  759POPS   C1A11591   7.133   1.413   6.635  0.1068 -0.0325 -0.5561
  759POPS   D2A11592   7.558   1.171   6.708 -0.0740 -0.1316  0.0646
  759POPS   C3A11593   7.626   1.019   7.156 -0.0501  0.0400  0.1043
  759POPS   C4A11594   7.672   0.835   7.421 -0.1169  0.0603  0.1895
  759POPS   C1B11595   6.679   1.192   6.713  0.2985 -0.0030 -0.0926
  759POPS   C2B11596   6.798   1.123   7.152  0.4236  0.0666  0.0087
  759POPS   C3B11597   6.675   1.027   7.537 -0.2543 -0.0411  0.0538
  759POPS   C4B11598   6.795   0.788   7.992  0.2917  0.0417 -0.2616
  760POPS   CNO11599  13.971  13.371   5.631  0.0535  0.1189 -0.2128
  760POPS   PO411600  13.687  13.060   5.752 -0.0777 -0.1741  0.0608
  760POPS   GL111601  13.733  12.972   6.147 -0.0730 -0.0141 -0.2457
  760POPS   GL211602  13.794  12.668   6.077  0.1130 -0.0250 -0.1324
  760POPS   C1A11603  14.003  13.153   6.562  0.1181  0.0681 -0.1915
  760POPS   D2A11604  14.052  13.198   7.046  0.0881 -0.1012  0.1531
  760POPS   C3A11605  14.294  13.388   7.358 -0.0818 -0.0479 -0.1457
  760POPS   C4A11606  14.363  13.517   7.723 -0.2440 -0.2170 -0.0054
  760POPS   C1B11607  13.631  12.670   6.537 -0.1353  0.0763  0.1756
  760POPS   C2B11608  13.696  12.850   6.951  0.1401  0.1706 -0.0290
  760POPS   C3B11609  13.722  12.987   7.425 -0.1133  0.2083 -0.1756
  760POPS   C4B11610  13.784  13.229   7.763 -0.3137 -0.0981  0.3748
  761POPS   CNO11611  16.279   5.052   5.672  0.2447  0.4799 -0.0122
  761POPS   PO411612  15.956   5.053   6.057  0.0004  0.2854 -0.3975
  761POPS   GL111613  16.185   5.088   6.413  0.0886 -0.3140 -0.2054
  761POPS   GL211614  16.171   4.699   6.579  0.0471  0.2066  0.0959
  761POPS   C1A11615  16.110   5.198   6.746 -0.2006 -0.0751  0.1351
  761POPS   D2A11616  16.188   5.298   7.128  0.0519 -0.3056 -0.0235
  761POPS   C3A11617  15.949   5.054   7.353  0.0137 -0.2959 -0.4583
  761POPS   C4A11618  15.439   4.954   7.232 -0.4447  0.1093 -0.1035
  761POPS   C1B11619  16.307   4.726   6.981 -0.3020  0.0709 -0.2577
  761POPS   C2B11620  16.382   4.534   7.379 -0.0454  0.2340  0.3089
  761POPS   C3B11621  16.217   4.725   7.783 -0.1362  0.1337  0.4805
  761POPS   C4B11622  16.175   5.037   8.107  0.1286 -0.0043 -0.3231
  762POPS   CNO11623   3.246   6.160   5.299  0.0503 -0.0363 -0.0894
  762POPS   PO411624   3.136   6.188   5.725  0.2648 -0.1064  0.0879
  762POPS   GL111625   3.245   6.482   6.204 -0.1092 -0.1088 -0.1324
  762POPS   GL211626   3.608   6.530   6.285 -0.0513  0.0776 -0.0062
  762POPS   C1A11627   3.274   6.871   6.518  0.0501  0.2275  0.0217
  762POPS   D2A11628   3.420   7.155   6.801  0.1286 -0.0577  0.4285
  762POPS   C3A11629   3.151   7.397   6.994  0.1045  0.0976 -0.0342
  762POPS   C4A11630   2.982   7.520   7.447 -0.2562  0.0525  0.2192
  762POPS   C1B11631   3.600   6.177   6.421  0.2543  0.0754 -0.0341
  762POPS   C2B11632   3.675   5.713   6.436 -0.1146 -0.1132  0.2239
  762POPS   C3B11633   3.792   5.256   6.427  0.0431 -0.1883  0.0370
  762POPS   C4B11634   3.838   4.868   6.632 -0.0234  0.1615 -0.0495
  763POPS   CNO11635  14.958  17.114   5.401  0.0762  0.0425 -0.3310
  763POPS   PO411636  14.816  16.787   5.708 -0.0776  0.0429  0.2227
  763POPS   GL111637  14.868  16.892   6.081  0.3353  0.0488 -0.3351
  763POPS   GL211638  14.577  16.816   6.296  0.1965 -0.0571  0.0064
  763POPS   C1A11639  15.184  16.878   6.406 -0.1945 -0.1881  0.0141
  763POPS   D2A11640  15.228  16.840   6.848 -0.0989  0.1643 -0.0740
  763POPS   C3A11641  15.202  16.750   7.303 -0.3465  0.1983 -0.0661
  763POPS   C4A11642  15.057  16.488   7.689  0.1230  0.0387  0.0122
  763POPS   C1B11643  14.727  17.006   6.602 -0.6532 -0.1833 -0.2989
  763POPS   C2B11644  14.780  17.092   7.173  0.3174  0.0540 -0.0281
  763POPS   C3B11645  14.725  17.384   7.600  0.1615 -0.1149 -0.3698
  763POPS   C4B11646  14.958  17.434   7.983  0.1284  0.2233 -0.0029
  764POPS   CNO11647  18.089   0.714   5.430 -0.0170  0.0268 -0.4588
  764POPS   PO411648  17.694   0.520   5.559  0.1858 -0.1167 -0.0558
  764POPS   GL111649  17.914   0.657   5.898 -0.0614  0.1331  0.0003
  764POPS   GL211650  18.013   0.421   5.967 -0.0938  0.0434 -0.1811
  764POPS   C1A11651  17.710   0.629   6.276 -0.4957 -0.3408 -0.2516
  764POPS   D2A11652  17.832   0.535   6.715  0.1443  0.0266  0.1351
  764POPS   C3A11653  17.696   0.739   7.026 -0.1289 -0.2234  0.2115
  764POPS   C4A11654  17.352   0.798   7.272  0.0006 -0.1931 -0.2206
  764POPS   C1B11655  18.227   0.685   6.289 -0.1281 -0.1175 -0.4389
  764POPS   C2B11656  18.381   0.612   6.672 -0.1689  0.0896 -0.0210
  764POPS   C3B11657  18.483   0.719   7.060  0.1249 -0.2399 -0.0303
  764POPS   C4B11658  18.834   0.622   7.395  0.2848 -0.0455 -0.1829
  765POPS   CNO11659   7.719  13.493   5.522 -0.0083  0.0072 -0.1057
  765POPS   PO411660   7.506  13.866   5.702  0.3438 -0.2238  0.0750
  765POPS   GL111661   7.639  14.049   6.183  0.1068 -0.0697  0.2023
  765POPS   GL211662   7.907  13.975   6.205 -0.1419  0.2604  0.1694
  765POPS   C1A11663   7.367  13.977   6.541  0.0631 -0.1543 -0.0407
  765POPS   D2A11664   7.429  13.859   7.010  0.1151 -0.0418 -0.1857
  765POPS   C3A11665   7.392  14.109   7.408  0.0393  0.1804 -0.0209
  765POPS   C4A11666   7.175  14.443   7.547  0.0100 -0.0542 -0.1047
  765POPS   C1B11667   7.851  13.915   6.660 -0.2099 -0.1337 -0.3198
  765POPS   C2B11668   7.950  13.778   7.126 -0.1680  0.3759 -0.4378
  765POPS   C3B11669   7.772  13.664   7.547  0.1951  0.2285 -0.1903
  765POPS   C4B11670   7.701  13.310   7.801  0.2363  0.0089  0.0123
  766POPS   CNO11671   0.393  12.500   5.783 -0.0438  0.0546 -0.2462
  766POPS   PO411672   0.567  12.973   5.859 -0.5325 -0.1664  0.1930
  766POPS   GL111673   0.658  13.062   6.320  0.1427 -0.0346  0.0236
  766POPS   GL211674   0.869  13.281   6.438  0.0369 -0.3053 -0.2810
  766POPS   C1A11675   0.843  13.024   6.833  0.0229  0.0488  0.0255
  766POPS   D2A11676   0.631  12.861   7.257  0.0175  0.1919 -0.0377
  766POPS   C3A11677   0.704  13.027   7.714  0.1395  0.4650 -0.0343
  766POPS   C4A11678   0.618  13.351   7.925 -0.0860  0.0304 -0.0136
  766POPS   C1B11679   0.609  13.422   6.743  0.1544 -0.2084 -0.0794
  766POPS   C2B11680   0.247  13.488   6.987  0.1157  0.1326 -0.0256
  766POPS   C3B11681   0.295  13.811   7.204  0.1259 -0.1362 -0.3484
  766POPS   C4B11682   0.550  14.128   7.409 -0.0072 -0.0467 -0.0776
  767POPS   CNO11683  10.768  14.912   6.162  0.3131  0.2780 -0.0011
  767POPS   PO411684  10.402  14.754   6.198 -0.0623 -0.1420  0.1297
  767POPS   GL111685  10.487  14.829   6.594 -0.1603  0.0033 -0.2635
  767POPS   GL211686  10.788  15.077   6.625 -0.5647  0.2860  0.0180
  767POPS   C1A11687  10.311  14.527   6.833  0.1386 -0.3384  0.1747
  767POPS   D2A11688  10.150  14.355   7.169  0.3816 -0.1717 -0.2719
  767POPS   C3A11689  10.221  14.515   7.614  0.2652 -0.0577  0.1719
  767POPS   C4A11690  10.284  14.273   8.097  0.4597 -0.0166  0.1351
  767POPS   C1B11691  10.583  15.215   7.027  0.1832 -0.3074 -0.2831
  767POPS   C2B11692  10.275  15.292   7.302  0.2527  0.0705 -0.1144
  767POPS   C3B11693   9.866  15.034   7.500 -0.1913  0.1044  0.0511
  767POPS   C4B11694   9.511  14.806   7.749  0.1993 -0.4108 -0.0356
  768POPS   CNO11695  17.831   5.626   6.130  0.0467  0.0083 -0.0713
  768POPS   PO411696  18.179   5.560   5.996  0.0826  0.1900  0.1524
  768POPS   GL111697  18.193   5.327   6.440 -0.1682  0.1055 -0.1448
  768POPS   GL211698  18.186   5.734   6.468  0.2519 -0.1447  0.1039
  768POPS   C1A11699  18.362   5.362   6.785  0.0853  0.1878  0.1760
  768POPS   D2A11700  18.384   5.471   7.213  0.0297 -0.1210  0.0599
  768POPS   C3A11701  18.719   5.701   7.509 -0.0188 -0.2282  0.1549
  768POPS   C4A11702  18.898   5.947   7.812  0.1202  0.0747  0.3187
  768POPS   C1B11703  17.744   5.797   6.643  0.0007 -0.2365  0.2302
  768POPS   C2B11704  17.534   5.823   7.052 -0.3050  0.0120  0.0432
  768POPS   C3B11705  17.395   5.919   7.429  0.0236 -0.3475 -0.2820
  768POPS   C4B11706  17.244   5.849   7.769 -0.1566  0.2069 -0.3231
  769POPS   CNO11707   2.694   0.378   6.015 -0.0945  0.2883 -0.1456
  769POPS   PO411708   2.388   0.706   5.831 -0.3126  0.1992 -0.3119
  769POPS   GL111709   2.253   0.443   6.197 -0.1811  0.1830 -0.0571
  769POPS   GL211710   1.986   0.303   6.114 -0.0125  0.0748  0.2617
  769POPS   C1A11711   2.496   0.439   6.605 -0.1734 -0.1359 -0.0590
  769POPS   D2A11712   2.552   0.712   6.945 -0.0120 -0.0581  0.1277
  769POPS   C3A11713   2.573   0.914   7.331 -0.1165  0.1922  0.2205
  769POPS   C4A11714   2.666   0.890   7.794 -0.0994 -0.3223  0.2137
  769POPS   C1B11715   1.939   0.376   6.588  0.0956 -0.1305 -0.0157
  769POPS   C2B11716   2.104   0.533   6.899  0.1280  0.0388 -0.2929
  769POPS   C3B11717   2.080   0.921   7.123 -0.2519 -0.1787  0.0215
  769POPS   C4B11718   1.858   1.062   7.403 -0.1246  0.1099  0.1079
  770POPS   CNO11719   6.572   0.933   5.975  0.1965 -0.1094 -0.1534
  770POPS   PO411720   6.645   0.553   5.663 -0.0006 -0.0771 -0.0785
  770POPS   GL111721   6.341   0.470   6.070 -0.4635  0.1384  0.0928
  770POPS   GL211722   6.374   0.171   6.012  0.0382 -0.0324  0.1428
  770POPS   C1A11723   6.196   0.525   6.548 -0.1011 -0.2518  0.0450
  770POPS   D2A11724   6.069   0.352   6.910 -0.0934 -0.0166  0.0093
  770POPS   C3A11725   5.795   0.537   7.285 -0.2612 -0.1086 -0.2095
  770POPS   C4A11726   5.607   0.763   7.618 -0.0260  0.0573  0.2609
  770POPS   C1B11727   6.234   0.083   6.407 -0.1049 -0.2398 -0.0860
  770POPS   C2B11728   6.517   0.206   6.834 -0.2314 -0.0003  0.1451
  770POPS   C3B11729   6.987   0.423   6.827  0.1365  0.0454  0.2610
  770POPS   C4B11730   7.360   0.422   7.051 -0.1673  0.2492  0.2737
  771POPS   CNO11731  10.638  14.323   6.262 -0.0268 -0.0366  0.3284
  771POPS   PO411732  10.692  13.811   6.235 -0.0249  0.0254 -0.1200
  771POPS   GL111733  10.514  13.769   6.627  0.0541 -0.1097 -0.0532
  771POPS   GL211734  10.564  13.374   6.735 -0.0695  0.0237 -0.0261
  771POPS   C1A11735  10.543  14.065   7.021  0.1916  0.0312  0.1908
  771POPS   D2A11736  10.616  14.278   7.372  0.0515  0.0204  0.0528
  771POPS   C3A11737  11.003  14.604   7.541  0.2779  0.0925  0.0887
  771POPS   C4A11738  11.477  14.509   7.774  0.0777 -0.4068  0.0518
  771POPS   C1B11739  10.700  13.248   7.130  0.2542 -0.2423  0.1266
  771POPS   C2B11740  10.678  13.278   7.545 -0.2206  0.1232  0.1949
  771POPS   C3B11741  10.726  13.112   7.938 -0.0849  0.0723 -0.2417
  771POPS   C4B11742  10.918  12.960   8.360 -0.3741  0.3222 -0.1762
  772POPS   CNO11743  12.642   4.499   5.965 -0.1766  0.0368 -0.1442
  772POPS   PO411744  12.864   4.586   6.328 -0.0543 -0.0005 -0.0382
  772POPS   GL111745  12.873   4.516   6.795 -0.0099 -0.0949 -0.0173
  772POPS   GL211746  13.004   4.260   6.794 -0.3936 -0.0647  0.1066
  772POPS   C1A11747  12.986   4.413   7.257  0.0850 -0.0044 -0.0706
  772POPS   D2A11748  13.121   4.432   7.604 -0.2266  0.1691  0.0809
  772POPS   C3A11749  12.797   4.430   7.867  0.0870 -0.0698  0.1242
  772POPS   C4A11750  12.620   4.494   8.274  0.3871  0.0941 -0.0831
  772POPS   C1B11751  12.727   4.054   7.022 -0.0051  0.2662 -0.2326
  772POPS   C2B11752  12.619   3.739   7.161  0.0659  0.0226 -0.0828
  772POPS   C3B11753  12.540   3.287   7.430  0.0612 -0.2118 -0.2227
  772POPS   C4B11754  12.370   3.134   7.907 -0.1241  0.0369  0.1668
  773POPS   CNO11755   5.242   2.356   5.691 -0.0906 -0.3194  0.0517
  773POPS   PO411756   5.317   2.761   5.908 -0.1278 -0.0320 -0.0067
  773POPS   GL111757   5.283   2.380   6.242 -0.2795 -0.1215 -0.1540
  773POPS   GL211758   5.526   2.416   6.488  0.2955 -0.1886  0.2192
  773POPS   C1A11759   5.065   2.232   6.650  0.0010 -0.3183 -0.1094
  773POPS   D2A11760   5.077   1.979   6.957  0.2194 -0.1002 -0.0726
  773POPS   C3A11761   4.893   2.068   7.334 -0.2022 -0.1912 -0.1547
  773POPS   C4A11762   4.689   1.933   7.697 -0.0451  0.2447 -0.2371
  773POPS   C1B11763   5.283   2.744   6.691  0.2325  0.0675  0.0607
  773POPS   C2B11764   5.216   2.932   7.102 -0.2316 -0.1406 -0.0283
  773POPS   C3B11765   5.187   2.835   7.448 -0.2155  0.3588 -0.0307
  773POPS   C4B11766   5.101   2.534   7.589 -0.0217  0.0361 -0.0208
  774POPS   CNO11767  11.841  15.057   5.615 -0.0877 -0.1215  0.1101
  774POPS   PO411768  11.905  14.933   6.090 -0.0503 -0.1220  0.1633
  774POPS   GL111769  11.982  15.130   6.565 -0.0982 -0.1479 -0.0012
  774POPS   GL211770  11.654  15.182   6.747 -0.0318 -0.0128 -0.1850
  774POPS   C1A11771  12.107  15.162   6.996  0.0001 -0.0533 -0.3174
  774POPS   D2A11772  12.365  15.236   7.319  0.1789 -0.0594 -0.0863
  774POPS   C3A11773  12.165  15.163   7.558 -0.0652 -0.0234 -0.0501
  774POPS   C4A11774  11.764  15.092   7.780  0.1972  0.3774  0.1971
  774POPS   C1B11775  11.692  15.309   7.167  0.2449  0.0110  0.1582
  774POPS   C2B11776  11.586  15.488   7.534  0.0501 -0.0365  0.1468
  774POPS   C3B11777  11.201  15.545   7.844 -0.1241  0.1517 -0.0572
  774POPS   C4B11778  10.948  15.721   8.104 -0.0294  0.2387  0.0650
  775POPS   CNO11779  10.711  17.918   5.963 -0.5440 -0.0144 -0.0658
  775POPS   PO411780  11.084  18.072   5.947  0.0778  0.2207 -0.1776
  775POPS   GL111781  11.124  18.118   6.466 -0.0731 -0.1045  0.1065
  775POPS   GL211782  11.294  18.048   6.627 -0.4824  0.1485  0.2076
  775POPS   C1A11783  10.803  18.238   6.713 -0.1109 -0.2239 -0.0557
  775POPS   D2A11784  10.583  17.945   6.970  0.0851 -0.1114 -0.1821
  775POPS   C3A11785  10.731  17.495   6.769 -0.0795 -0.2866  0.0296
  775POPS   C4A11786  10.970  17.123   6.617 -0.0109  0.2419 -0.2115
  775POPS   C1B11787  11.540  17.986   6.834 -0.0492 -0.1115 -0.1660
  775POPS   C2B11788  11.608  17.820   7.203  0.2129 -0.0933 -0.1562
  775POPS   C3B11789  11.437  17.597   7.477  0.0127 -0.1609  0.1950
  775POPS   C4B11790  11.283  17.862   7.866  0.0969 -0.0894  0.1579
  776POPS   CNO11791  13.830   2.678   5.532  0.0713  0.1098 -0.0996
  776POPS   PO411792  13.742   3.006   5.758 -0.1702  0.3332 -0.0078
  776POPS   GL111793  13.781   3.044   6.191 -0.0095 -0.0434 -0.0902
  776POPS   GL211794  14.014   3.327   6.271  0.0894  0.1569 -0.0683
  776POPS   C1A11795  13.593   3.174   6.579 -0.1829 -0.0698 -0.0055
  776POPS   D2A11796  13.506   3.295   6.975 -0.0095  0.2254  0.0840
  776POPS   C3A11797  13.218   3.566   7.092  0.1982  0.0123 -0.3223
  776POPS   C4A11798  13.082   3.897   7.327  0.1400 -0.1595  0.1250
  776POPS   C1B11799  13.733   3.592   6.399  0.3788 -0.0036 -0.0423
  776POPS   C2B11800  13.554   3.794   6.617 -0.1897 -0.1579 -0.2926
  776POPS   C3B11801  13.486   3.987   7.032 -0.1439  0.1844  0.0296
  776POPS   C4B11802  13.566   4.172   7.486  0.0622  0.0370 -0.0778
  777POPS   CNO11803   2.134  10.649   5.527  0.1712  0.0942 -0.1898
  777POPS   PO411804   2.100  10.577   5.879  0.1407 -0.0087 -0.0013
  777POPS   GL111805   2.164  10.707   6.240 -0.0246 -0.0868 -0.2304
  777POPS   GL211806   2.164  11.050   6.353  0.1273 -0.2046  0.1643
  777POPS   C1A11807   2.071  10.722   6.748 -0.1998  0.1253  0.1045
  777POPS   D2A11808   2.058  10.983   7.187 -0.1349  0.0211 -0.3010
  777POPS   C3A11809   1.724  10.883   7.540  0.0092  0.0652  0.1218
  777POPS   C4A11810   1.493  10.519   7.544  0.0617 -0.0095  0.1370
  777POPS   C1B11811   2.466  10.998   6.726 -0.1544  0.0404  0.0309
  777POPS   C2B11812   2.510  10.763   7.027  0.1469 -0.2090 -0.1055
  777POPS   C3B11813   2.385  10.674   7.360  0.1660  0.1925  0.1064
  777POPS   C4B11814   2.065  10.496   7.603 -0.2830 -0.3177 -0.0126
  778POPS   CNO11815   4.357  11.183   6.141 -0.0769  0.1584  0.0137
  778POPS   PO411816   4.346  11.647   5.995  0.2803  0.0265 -0.0782
  778POPS   GL111817   4.071  11.826   6.359  0.0431  0.2385 -0.2436
  778POPS   GL211818   4.000  11.601   6.468 -0.1074 -0.3393  0.0657
  778POPS   C1A11819   4.184  12.037   6.709  0.0172 -0.1569 -0.1724
  778POPS   D2A11820   4.303  12.306   7.052  0.3217 -0.1522 -0.0505
  778POPS   C3A11821   4.084  12.424   7.422 -0.1588  0.0773 -0.1340
  778POPS   C4A11822   3.612  12.324   7.543 -0.1945 -0.0345 -0.0391
  778POPS   C1B11823   4.052  11.625   6.904  0.1822 -0.1133  0.1349
  778POPS   C2B11824   4.178  11.433   7.198  0.1016  0.1677  0.1563
  778POPS   C3B11825   4.379  11.368   7.527 -0.0433 -0.0389  0.0450
  778POPS   C4B11826   4.692  11.328   7.802  0.0637 -0.0867 -0.0637
  779POPS   CNO11827   1.608   2.010   5.237  0.0665 -0.2953 -0.1382
  779POPS   PO411828   1.526   1.957   5.634 -0.2340 -0.0194  0.3738
  779POPS   GL111829   1.259   1.925   5.962  0.0783 -0.3585 -0.0983
  779POPS   GL211830   1.152   1.589   6.097  0.1567 -0.1101  0.2179
  779POPS   C1A11831   0.961   1.963   6.312  0.1139 -0.0006  0.0639
  779POPS   D2A11832   1.027   2.090   6.725 -0.2973 -0.1811 -0.3637
  779POPS   C3A11833   0.609   2.074   7.014 -0.1490  0.3528  0.1335
  779POPS   C4A11834   0.356   1.693   7.207  0.1408  0.0337  0.0442
  779POPS   C1B11835   0.911   1.372   6.313 -0.2659 -0.1146  0.3480
  779POPS   C2B11836   0.847   1.277   6.708 -0.1752 -0.0034 -0.0672
  779POPS   C3B11837   0.814   1.471   7.105  0.0096  0.1199 -0.0408
  779POPS   C4B11838   0.723   1.649   7.540  0.1636  0.2965  0.0347
  780POPS   CNO11839  10.277   7.431   6.456  0.0687 -0.1534  0.0249
  780POPS   PO411840  10.617   7.744   6.506  0.4080 -0.0308  0.0920
  780POPS   GL111841  10.841   7.789   6.788 -0.0715 -0.0488  0.2537
  780POPS   GL211842  10.650   7.840   7.073  0.0515  0.1424 -0.0627
  780POPS   C1A11843  10.958   7.470   7.082  0.2503  0.0776 -0.1456
  780POPS   D2A11844  10.913   7.184   7.475  0.0509 -0.2278 -0.1501
  780POPS   C3A11845  11.001   7.405   7.869  0.3351 -0.0334  0.0020
  780POPS   C4A11846  11.095   7.552   8.363  0.1259 -0.1329 -0.0249
  780POPS   C1B11847  10.601   7.600   7.428 -0.1504 -0.0725  0.1553
  780POPS   C2B11848  10.457   7.197   7.645  0.3941  0.0876 -0.0456
  780POPS   C3B11849  10.158   6.821   7.787 -0.0229 -0.0363  0.0171
  780POPS   C4B11850   9.963   6.478   7.703  0.0541 -0.0274  0.4935
  781POPS   CNO11851   6.795   3.442   5.822  0.1056 -0.1751 -0.2050
  781POPS   PO411852   7.074   3.140   6.142 -0.0920  0.3452 -0.0418
  781POPS   GL111853   6.842   2.869   6.538  0.2629 -0.0155 -0.2087
  781POPS   GL211854   6.809   2.663   6.333  0.0937 -0.1916 -0.2389
  781POPS   C1A11855   6.772   2.649   6.936 -0.0472 -0.0349  0.1697
  781POPS   D2A11856   7.016   2.601   7.226  0.0339 -0.3866  0.0063
  781POPS   C3A11857   7.133   2.502   7.638  0.2109  0.3991 -0.1060
  781POPS   C4A11858   7.264   2.155   7.953  0.0963 -0.0423 -0.2266
  781POPS   C1B11859   6.675   2.376   6.551  0.1405  0.2671  0.0255
  781POPS   C2B11860   6.461   2.120   6.892  0.2283  0.2725 -0.1511
  781POPS   C3B11861   6.626   2.100   7.336 -0.0959  0.0455  0.3000
  781POPS   C4B11862   6.973   2.040   7.518 -0.1949  0.0267 -0.0083
  782POPS   CNO11863  17.050   8.060   5.734  0.0980 -0.0121  0.0998
  782POPS   PO411864  16.802   8.132   6.139 -0.1096 -0.0017  0.0872
  782POPS   GL111865  16.637   8.121   6.562  0.0836  0.1169  0.0331
  782POPS   GL211866  16.304   8.021   6.579 -0.3544 -0.2914 -0.2446
  782POPS   C1A11867  16.572   8.251   6.971  0.0278 -0.1610  0.2728
  782POPS   D2A11868  16.635   8.097   7.385 -0.3449 -0.0747 -0.3085
  782POPS   C3A11869  16.586   8.290   7.822  0.0210 -0.1299 -0.0447
  782POPS   C4A11870  16.317   8.254   8.228 -0.0038  0.3369  0.0280
  782POPS   C1B11871  16.403   7.815   7.021  0.0102 -0.1655  0.0965
  782POPS   C2B11872  16.220   7.748   7.368  0.1875  0.0140 -0.0934
  782POPS   C3B11873  16.170   7.882   7.836  0.2762  0.0656 -0.0621
  782POPS   C4B11874  15.818   8.124   8.241 -0.0807  0.0165 -0.2288
  783POPS   CNO11875  14.624   8.878   6.389 -0.1558 -0.0169  0.3143
  783POPS   PO411876  14.955   8.882   6.105  0.3832  0.3334 -0.3564
  783POPS   GL111877  15.107   8.984   6.457  0.1437 -0.0703  0.1541
  783POPS   GL211878  15.310   9.220   6.297 -0.1315 -0.2199  0.0425
  783POPS   C1A11879  14.921   9.197   6.792 -0.1403  0.0845 -0.0469
  783POPS   D2A11880  15.060   9.362   7.178  0.3544 -0.0710 -0.1682
  783POPS   C3A11881  14.787   9.405   7.587  0.0961  0.3350 -0.0595
  783POPS   C4A11882  14.611   9.726   7.794 -0.1413  0.0794 -0.0103
  783POPS   C1B11883  15.465   9.269   6.680  0.0960  0.1714 -0.0688
  783POPS   C2B11884  15.493   9.197   7.083  0.2699  0.0147  0.0726
  783POPS   C3B11885  15.406   9.067   7.496  0.0565 -0.0115  0.0388
  783POPS   C4B11886  15.153   9.099   7.824  0.3883  0.4256 -0.2535
  784POPS   CNO11887   9.841   1.126   6.110 -0.0088  0.0422 -0.0104
  784POPS   PO411888  10.228   0.936   5.982 -0.0518 -0.1685 -0.2363
  784POPS   GL111889  10.177   0.948   6.487 -0.0547 -0.1059  0.0272
  784POPS   GL211890  10.321   1.249   6.451  0.1471 -0.3572 -0.0401
  784POPS   C1A11891  10.209   1.168   6.899  0.1398  0.1323 -0.0053
  784POPS   D2A11892  10.030   1.155   7.329  0.0851  0.2387 -0.1656
  784POPS   C3A11893  10.033   1.580   7.385  0.3779  0.0757  0.1880
  784POPS   C4A11894  10.208   2.062   7.276 -0.2389  0.1755 -0.0083
  784POPS   C1B11895  10.692   1.210   6.749  0.2156 -0.2760 -0.0516
  784POPS   C2B11896  10.992   1.327   6.993 -0.0765 -0.0744 -0.1824
  784POPS   C3B11897  11.163   1.467   7.384 -0.0345 -0.4335 -0.1481
  784POPS   C4B11898  10.888   1.793   7.451  0.0076  0.1786 -0.2098
  785POPS   CNO11899  17.325  10.493   5.668  0.0117  0.1043  0.1946
  785POPS   PO411900  17.782  10.337   5.749  0.0182  0.4118 -0.0176
  785POPS   GL111901  17.949  10.250   6.172  0.0777 -0.1551 -0.0045
  785POPS   GL211902  18.201  10.332   6.317 -0.0126  0.1667 -0.3802
  785POPS   C1A11903  17.766  10.323   6.576  0.2006 -0.1041 -0.0212
  785POPS   D2A11904  17.818  10.615   6.954 -0.1694  0.0658  0.3479
  785POPS   C3A11905  18.210  10.976   7.009  0.2191 -0.1299 -0.1165
  785POPS   C4A11906  18.520  11.126   7.424  0.1545 -0.0343  0.2017
  785POPS   C1B11907  18.288  10.152   6.731  0.0032  0.2818  0.5508
  785POPS   C2B11908  18.039  10.157   7.058 -0.0370  0.1887  0.2630
  785POPS   C3B11909  17.954  10.223   7.422 -0.0809  0.2217 -0.2718
  785POPS   C4B11910  17.857  10.456   7.844  0.0816 -0.1975  0.1854
  786POPS   CNO11911   2.747   1.611   5.601  0.1076 -0.1935 -0.0131
  786POPS   PO411912   3.247   1.588   5.759 -0.0932  0.0492 -0.1282
  786POPS   GL111913   3.118   1.534   6.167  0.0863 -0.1352 -0.0279
  786POPS   GL211914   3.167   1.155   6.274  0.0396  0.1081 -0.2382
  786POPS   C1A11915   2.809   1.583   6.492 -0.2127 -0.3188 -0.1132
  786POPS   D2A11916   2.558   1.184   6.803 -0.0733 -0.2358  0.2044
  786POPS   C3A11917   2.368   1.338   7.134  0.2262  0.2816 -0.1774
  786POPS   C4A11918   2.197   1.753   7.251  0.0876 -0.2929 -0.0003
  786POPS   C1B11919   3.081   1.247   6.715  0.3371 -0.1852  0.1956
  786POPS   C2B11920   3.008   1.131   7.088  0.0118  0.0453  0.0134
  786POPS   C3B11921   3.046   1.089   7.520  0.2368  0.3569 -0.1628
  786POPS   C4B11922   3.378   1.002   7.823  0.1170 -0.0146 -0.2821
  787POPS   CNO11923  16.353  10.818   5.884  0.3917  0.1501 -0.2318
  787POPS   PO411924  16.204  10.568   6.220  0.0775  0.0553  0.0409
  787POPS   GL111925  16.115  10.858   6.524 -0.2400  0.1242  0.2467
  787POPS   GL211926  16.464  10.945   6.522 -0.0003  0.0637 -0.0749
  787POPS   C1A11927  16.056  11.096   6.983  0.2456  0.0100 -0.3588
  787POPS   D2A11928  15.950  11.122   7.446  0.0211  0.3003 -0.2185
  787POPS   C3A11929  15.481  11.182   7.575  0.0331 -0.2496 -0.2050
  787POPS   C4A11930  15.233  11.059   7.959 -0.1205  0.1352  0.3549
  787POPS   C1B11931  16.534  11.282   6.880  0.0635  0.2035  0.0532
  787POPS   C2B11932  16.428  11.258   7.291  0.2549 -0.0795  0.2104
  787POPS   C3B11933  16.424  11.489   7.682 -0.1922 -0.4421  0.2530
  787POPS   C4B11934  16.194  11.674   7.948 -0.1094 -0.2632  0.0098
  788POPS   CNO11935   8.608   8.220   6.505 -0.1491  0.1644  0.0788
  788POPS   PO411936   8.316   7.965   6.338  0.0026  0.2304  0.0668
  788POPS   GL111937   8.206   7.995   6.754 -0.3913  0.0997 -0.1267
  788POPS   GL211938   8.307   8.370   6.873  0.1664 -0.1537  0.1397
  788POPS   C1A11939   8.171   7.916   7.180 -0.1623 -0.0011  0.2887
  788POPS   D2A11940   8.117   7.826   7.511  0.1442 -0.1689 -0.0464
  788POPS   C3A11941   8.067   8.203   7.797  0.0419  0.0274  0.2799
  788POPS   C4A11942   7.868   8.317   8.060  0.3286  0.0083  0.0508
  788POPS   C1B11943   8.146   8.405   7.340  0.0302 -0.0442  0.0051
  788POPS   C2B11944   7.867   8.634   7.404 -0.1126 -0.1930 -0.1180
  788POPS   C3B11945   7.597   8.655   7.595  0.1351 -0.2838  0.1036
  788POPS   C4B11946   7.400   8.799   7.958  0.3564  0.1681  0.0807
  789POPS   CNO11947  14.444   3.542   6.168 -0.2424 -0.1841  0.0871
  789POPS   PO411948  14.363   4.035   6.254 -0.0753 -0.2123  0.0974
  789POPS   GL111949  14.221   4.351   6.575 -0.0317 -0.1121 -0.2976
  789POPS   GL211950  14.199   4.755   6.518  0.3107 -0.1517 -0.2530
  789POPS   C1A11951  14.265   4.624   6.990  0.1337  0.0679 -0.3016
  789POPS   D2A11952  14.317   4.914   7.283  0.0573  0.0112 -0.0690
  789POPS   C3A11953  14.591   4.974   7.639  0.2158  0.1887  0.2705
  789POPS   C4A11954  14.848   5.078   7.971 -0.0742 -0.0397  0.0181
  789POPS   C1B11955  14.294   5.113   6.787 -0.1642  0.0990  0.1311
  789POPS   C2B11956  14.574   5.347   7.015  0.0585 -0.0861 -0.1279
  789POPS   C3B11957  14.595   5.352   7.368  0.1599 -0.1385  0.0471
  789POPS   C4B11958  14.592   5.445   7.755  0.0659 -0.0700 -0.1503
  790POPS   CNO11959  15.737  17.029   5.671 -0.2981  0.0111  0.2641
  790POPS   PO411960  15.346  16.946   5.800 -0.1961 -0.2037  0.0525
  790POPS   GL111961  15.686  17.058   6.131  0.0468  0.1718  0.0629
  790POPS   GL211962  15.535  17.402   6.294  0.0381 -0.0877  0.1182
  790POPS   C1A11963  15.693  16.842   6.623 -0.0187  0.0067 -0.0885
  790POPS   D2A11964  15.825  16.992   7.012  0.0708 -0.2548 -0.2691
  790POPS   C3A11965  16.147  16.917   7.311  0.1043 -0.0972  0.0477
  790POPS   C4A11966  16.171  16.879   7.733  0.1904 -0.2133 -0.2409
  790POPS   C1B11967  15.419  17.269   6.715  0.0513  0.1038 -0.0077
  790POPS   C2B11968  15.422  17.215   7.168 -0.1142  0.1902  0.0918
  790POPS   C3B11969  15.733  17.195   7.529 -0.0438 -0.0244  0.1036
  790POPS   C4B11970  15.722  17.057   7.939 -0.1436 -0.2079  0.0523
  791POPS   CNO11971   4.944   7.754   5.684  0.1269  0.3213 -0.0019
  791POPS   PO411972   4.946   7.350   5.804  0.1966  0.2101 -0.0156
  791POPS   GL111973   5.148   7.438   6.256 -0.1431  0.0836  0.1884
  791POPS   GL211974   5.313   7.599   6.291 -0.0189  0.0201  0.0716
  791POPS   C1A11975   5.184   7.385   6.678 -0.1836 -0.1733 -0.0222
  791POPS   D2A11976   4.906   7.093   6.997 -0.0473  0.1375  0.3101
  791POPS   C3A11977   4.798   6.999   7.405 -0.2539  0.0646  0.0446
  791POPS   C4A11978   4.639   7.143   7.759 -0.4364  0.1866  0.2033
  791POPS   C1B11979   5.690   7.566   6.592  0.1670 -0.0137  0.1255
  791POPS   C2B11980   6.011   7.713   6.985 -0.3518 -0.0281  0.0795
  791POPS   C3B11981   5.893   7.891   7.290  0.3821  0.1221 -0.0376
  791POPS   C4B11982   5.754   8.303   7.460 -0.2139 -0.2763 -0.0426
  792POPS   CNO11983   5.008  16.461   5.227 -0.0611  0.2087 -0.4301
  792POPS   PO411984   5.010  16.532   5.724  0.2242  0.0258  0.1131
  792POPS   GL111985   5.235  16.303   6.024  0.1335  0.0682 -0.1064
  792POPS   GL211986   5.189  16.268   6.288  0.0960 -0.0056  0.0529
  792POPS   C1A11987   5.518  15.923   6.380 -0.2015 -0.1591 -0.1709
  792POPS   D2A11988   5.355  15.843   6.854 -0.1087  0.0192  0.2507
  792POPS   C3A11989   5.405  16.064   7.265  0.0427 -0.0824  0.0275
  792POPS   C4A11990   5.283  16.149   7.624 -0.0165  0.2420  0.0486
  792POPS   C1B11991   4.971  16.117   6.573  0.0375 -0.0524  0.2952
  792POPS   C2B11992   4.942  15.984   7.057 -0.1158 -0.2859 -0.4043
  792POPS   C3B11993   4.891  15.939   7.477  0.0408 -0.2156  0.0048
  792POPS   C4B11994   4.809  16.080   7.918 -0.1032 -0.1741 -0.1380
  793POPS   CNO11995  14.559  13.268   5.455 -0.2926 -0.2228  0.1910
  793POPS   PO411996  14.528  13.554   5.694 -0.1260  0.2134  0.5029
  793POPS   GL111997  14.307  13.404   6.123 -0.2875 -0.0860  0.1118
  793POPS   GL211998  13.968  13.474   6.154  0.3887  0.3342  0.0730
  793POPS   C1A11999  14.262  13.598   6.491  0.3193 -0.2534  0.2275
  793POPS   D2A12000  14.241  13.657   6.926  0.0027  0.1829  0.0657
  793POPS   C3A12001  13.974  13.937   7.049  0.2633  0.1115  0.0956
  793POPS   C4A12002  13.626  14.077   7.296  0.0775  0.1054  0.2145
  793POPS   C1B12003  13.798  13.632   6.542  0.2730 -0.0906  0.0814
  793POPS   C2B12004  13.620  13.572   6.926 -0.1438 -0.2332 -0.2129
  793POPS   C3B12005  13.609  13.566   7.331 -0.1419 -0.4251  0.0995
  793POPS   C4B12006  13.586  13.658   7.820 -0.1744  0.1864  0.0591
  794POPS   CNO12007   3.562  13.291   6.016  0.2597 -0.0823 -0.0313
  794POPS   PO412008   3.138  13.460   6.184  0.2366  0.1434 -0.2933
  794POPS   GL112009   3.104  13.525   6.652 -0.1825 -0.0964 -0.1783
  794POPS   GL212010   2.978  13.845   6.666 -0.0390 -0.0160  0.1645
  794POPS   C1A12011   3.342  13.632   7.047 -0.1189 -0.1527  0.2835
  794POPS   D2A12012   3.172  13.851   7.464  0.0357 -0.0308  0.1347
  794POPS   C3A12013   3.367  13.664   7.736  0.1823 -0.1920  0.0977
  794POPS   C4A12014   3.120  13.531   8.057  0.0908  0.0165 -0.2833
  794POPS   C1B12015   2.821  13.930   7.054 -0.0161  0.0478  0.1628
  794POPS   C2B12016   2.683  13.990   7.405 -0.0286  0.0199 -0.2037
  794POPS   C3B12017   2.492  14.292   7.700  0.0396 -0.1270 -0.1876
  794POPS   C4B12018   2.414  14.543   8.028  0.4921 -0.3778  0.0485
  795POPS   CNO12019  11.710  13.524   6.261 -0.1680  0.0781  0.0099
  795POPS   PO412020  11.245  13.506   6.231  0.0735  0.0299  0.2910
  795POPS   GL112021  11.042  13.623   6.567  0.3388 -0.0551 -0.2920
  795POPS   GL212022  10.985  13.969   6.556 -0.0447 -0.3284 -0.0357
  795POPS   C1A12023  10.839  13.707   7.001 -0.1317  0.1628 -0.4287
  795POPS   D2A12024  10.724  13.743   7.407 -0.1358  0.0391 -0.0934
  795POPS   C3A12025  10.991  13.595   7.796 -0.0206  0.2026  0.0293
  795POPS   C4A12026  11.049  13.373   8.172  0.1040  0.1401  0.0869
  795POPS   C1B12027  10.833  14.358   6.728  0.0079 -0.0558 -0.2408
  795POPS   C2B12028  10.869  14.731   7.060  0.2275 -0.1505  0.0325
  795POPS   C3B12029  10.398  14.815   7.256 -0.1368  0.0132  0.0264
  795POPS   C4B12030  10.490  15.037   7.672  0.2381 -0.1161 -0.0230
  796POPS   CNO12031   1.312  10.509   5.961 -0.0538 -0.0899  0.2055
  796POPS   PO412032   1.640  10.741   5.992  0.0084  0.0501 -0.1129
  796POPS   GL112033   1.766  10.433   6.243  0.0907  0.3876  0.0345
  796POPS   GL212034   1.556  10.326   6.449  0.0481  0.0093  0.0591
  796POPS   C1A12035   2.028  10.275   6.552  0.1328  0.0191  0.1618
  796POPS   D2A12036   2.089  10.354   7.094 -0.2061  0.0291  0.2261
  796POPS   C3A12037   1.837  10.188   7.300  0.0708  0.1203 -0.0564
  796POPS   C4A12038   1.911   9.884   7.654 -0.0835  0.2476 -0.3134
  796POPS   C1B12039   1.724   9.966   6.827  0.2833  0.1397  0.1026
  796POPS   C2B12040   1.800   9.629   7.152 -0.1932 -0.1153 -0.0705
  796POPS   C3B12041   1.436   9.504   7.346 -0.1186  0.1051 -0.1048
  796POPS   C4B12042   1.079   9.433   7.579 -0.1554 -0.2871 -0.0714
  797POPS   CNO12043  10.669   8.270   6.653 -0.0246 -0.2725 -0.0317
  797POPS   PO412044  10.931   8.537   6.387 -0.0952  0.0857 -0.0012
  797POPS   GL112045  11.118   8.507   6.840  0.0406  0.2374 -0.0120
  797POPS   GL212046  10.975   8.844   6.911 -0.0562 -0.1563  0.3093
  797POPS   C1A12047  11.240   8.490   7.291 -0.0008 -0.5395 -0.0443
  797POPS   D2A12048  11.479   8.125   7.494  0.0836 -0.3702  0.2017
  797POPS   C3A12049  11.409   8.302   7.858  0.1185 -0.1153 -0.2299
  797POPS   C4A12050  11.102   8.612   7.803 -0.0034 -0.0385  0.1800
  797POPS   C1B12051  10.862   8.813   7.371 -0.0489 -0.0281 -0.2096
  797POPS   C2B12052  10.654   8.765   7.801  0.5620  0.3103  0.1013
  797POPS   C3B12053  10.541   8.662   8.272  0.1249 -0.0191  0.0247
  797POPS   C4B12054  10.270   8.309   8.364 -0.3041  0.1911 -0.3600
  798POPS   CNO12055   3.770  14.379   5.820 -0.3455 -0.0045 -0.1658
  798POPS   PO412056   3.562  14.218   6.059 -0.4144  0.1595 -0.3478
  798POPS   GL112057   3.392  14.399   6.345  0.3440 -0.1067  0.0970
  798POPS   GL212058   3.584  14.720   6.385  0.2395  0.3813  0.0779
  798POPS   C1A12059   2.961  14.324   6.606 -0.4054  0.4404 -0.1645
  798POPS   D2A12060   2.744  14.479   6.919 -0.1631  0.1586  0.0443
  798POPS   C3A12061   2.357  14.261   7.093  0.1927 -0.3078  0.2715
  798POPS   C4A12062   1.984  14.315   7.018 -0.0319 -0.3040  0.3258
  798POPS   C1B12063   3.214  14.746   6.681  0.2208 -0.0351 -0.2575
  798POPS   C2B12064   3.067  14.824   7.070 -0.2696  0.1143  0.1632
  798POPS   C3B12065   2.791  14.926   7.271 -0.0951  0.0200  0.1980
  798POPS   C4B12066   2.481  15.071   7.187  0.1025 -0.0514 -0.1290
  799POPS   CNO12067  15.586   0.427   5.340 -0.0400 -0.0873 -0.1509
  799POPS   PO412068  15.237   0.296   5.575  0.2446  0.1557 -0.1747
  799POPS   GL112069  15.292   0.238   6.128  0.0475 -0.2620 -0.2342
  799POPS   GL212070  15.510   0.001   6.314 -0.2015 -0.0794 -0.0693
  799POPS   C1A12071  15.166   0.291   6.542 -0.1740 -0.2187  0.1814
  799POPS   D2A12072  15.222   0.392   7.019  0.0612  0.4807  0.1556
  799POPS   C3A12073  15.322   0.255   7.537  0.0450  0.2443 -0.2803
  799POPS   C4A12074  15.462   0.394   7.847 -0.0932 -0.1351  0.1675
  799POPS   C1B12075  15.899   0.166   6.534  0.4094 -0.4168  0.0890
  799POPS   C2B12076  16.117   0.580   6.638 -0.0289 -0.0952 -0.1454
  799POPS   C3B12077  16.258   1.084   6.560 -0.0690 -0.0122  0.1011
  799POPS   C4B12078  16.330   1.529   6.520  0.3413 -0.0279 -0.0464
  800POPS   CNO12079   2.502   2.153   5.744 -0.2114  0.0532  0.0984
  800POPS   PO412080   2.703   2.475   5.850 -0.2734 -0.0734 -0.0870
  800POPS   GL112081   2.779   2.236   6.261  0.1630  0.0193  0.2837
  800POPS   GL212082   3.034   2.279   6.429 -0.3894 -0.0761 -0.1153
  800POPS   C1A12083   2.698   2.079   6.713 -0.1937  0.1482  0.0936
  800POPS   D2A12084   2.795   1.711   7.004  0.0955  0.0048  0.1634
  800POPS   C3A12085   3.093   1.566   7.327  0.0831  0.1206  0.0171
  800POPS   C4A12086   3.472   1.411   7.546 -0.1129  0.0359  0.0309
  800POPS   C1B12087   3.085   2.337   6.879  0.3434 -0.1928 -0.0288
  800POPS   C2B12088   2.963   2.143   7.312 -0.0177  0.0139  0.2782
  800POPS   C3B12089   2.610   1.861   7.474  0.1306  0.1154  0.0821
  800POPS   C4B12090   2.255   1.883   7.758  0.0052  0.0608  0.0031
  801POPS   CNO12091   6.932  11.178   6.049  0.3130 -0.3356  0.1354
  801POPS   PO412092   6.577  11.095   6.309  0.0011 -0.0785 -0.3677
  801POPS   GL112093   6.742  11.018   6.757  0.0579  0.2245 -0.1525
  801POPS   GL212094   6.531  10.684   6.766 -0.2572  0.0574  0.1480
  801POPS   C1A12095   6.736  11.204   7.119 -0.0450 -0.0115 -0.1221
  801POPS   D2A12096   6.328  11.315   7.343  0.2080 -0.0669 -0.0182
  801POPS   C3A12097   6.072  11.521   7.566  0.1668 -0.0233 -0.2226
  801POPS   C4A12098   6.033  11.727   8.006 -0.3214 -0.1932 -0.0756
  801POPS   C1B12099   6.565  10.749   7.157 -0.1954  0.2755  0.0065
  801POPS   C2B12100   6.477  10.847   7.573  0.0805  0.2751  0.0680
  801POPS   C3B12101   6.191  11.069   7.753  0.0121 -0.3085  0.0178
  801POPS   C4B12102   5.792  11.085   7.795 -0.4943 -0.1640  0.0768
  802POPS   CNO12103  10.180  12.153   6.382  0.0702 -0.4103 -0.1922
  802POPS   PO412104  10.609  12.364   6.306  0.2309  0.2284 -0.2038
  802POPS   GL112105  10.312  12.613   6.586  0.0876 -0.1559 -0.2799
  802POPS   GL212106  10.205  12.902   6.635 -0.0191 -0.0509 -0.0137
  802POPS   C1A12107  10.083  12.417   6.931  0.1383  0.0886 -0.2029
  802POPS   D2A12108  10.079  12.358   7.282 -0.1660 -0.2546  0.1264
  802POPS   C3A12109  10.027  12.727   7.470  0.1361 -0.0459 -0.2545
  802POPS   C4A12110   9.560  12.908   7.618  0.2311  0.1377 -0.0099
  802POPS   C1B12111  10.304  12.882   7.017  0.0651 -0.1489  0.2337
  802POPS   C2B12112  10.540  12.819   7.466  0.0211  0.2127 -0.2628
  802POPS   C3B12113  10.903  12.644   7.763  0.2571  0.0405 -0.3762
  802POPS   C4B12114  11.348  12.593   7.677 -0.0585 -0.2756 -0.0838
  803YOPS   CNO12115   1.176   1.160   4.898 -0.1967  0.0957  0.2055
  803YOPS   PO412116   1.486   1.153   5.220  0.0217  0.4584 -0.2076
  803YOPS   GL112117   1.597   1.103   5.727  0.0903 -0.2668 -0.2982
  803YOPS   GL212118   1.262   1.158   5.851  0.1088  0.0630 -0.2175
  803YOPS   C1A12119   1.641   1.295   6.146  0.2043  0.4975 -0.3044
  803YOPS   D2A12120   1.500   1.470   6.478  0.0222 -0.0810 -0.2523
  803YOPS   C3A12121   1.172   1.595   6.831 -0.0065  0.2082  0.1510
  803YOPS   C4A12122   1.247   1.260   7.098 -0.2840  0.0486 -0.0685
  803YOPS   C1B12123   1.214   0.930   6.188 -0.0782 -0.2546 -0.0530
  803YOPS   C2B12124   1.322   1.032   6.619  0.2150  0.0364  0.1484
  803YOPS   D3B12125   1.566   0.830   7.001 -0.4610 -0.0368  0.0825
  803YOPS   C4B12126   1.718   0.503   7.336 -0.0354  0.0439 -0.2020
  804YOPS   CNO12127  10.185  11.785   6.047 -0.1230  0.2143 -0.0391
  804YOPS   PO412128   9.885  11.360   6.203 -0.0438 -0.1849 -0.3253
  804YOPS   GL112129  10.048  11.179   6.595  0.2660 -0.0532 -0.1215
  804YOPS   GL212130  10.191  10.944   6.465  0.0554  0.2926  0.0344
  804YOPS   C1A12131   9.985  11.052   6.966  0.0233  0.0338 -0.0364
  804YOPS   D2A12132   9.776  11.117   7.312  0.0559  0.0013  0.1427
  804YOPS   C3A12133   9.909  11.192   7.678  0.0914  0.0194 -0.0499
  804YOPS   C4A12134   9.895  11.532   7.810  0.0086  0.1643 -0.0583
  804YOPS   C1B12135  10.469  10.999   6.812  0.0751 -0.1258 -0.2190
  804YOPS   C2B12136  10.385  10.933   7.286 -0.1628  0.2058 -0.2209
  804YOPS   D3B12137  10.431  10.867   7.794  0.2889  0.5679 -0.2566
  804YOPS   C4B12138  10.225  10.558   7.921 -0.3293  0.1653 -0.1153
  805YOPS   CNO12139  17.971  17.705   5.699 -0.2800 -0.0115  0.1799
  805YOPS   PO412140  17.535  17.862   5.585  0.2111 -0.2115  0.0868
  805YOPS   GL112141  17.575  17.808   6.029 -0.0175 -0.2885 -0.0294
  805YOPS   GL212142  17.520  17.548   6.062 -0.0866  0.2788  0.0298
  805YOPS   C1A12143  17.676  17.711   6.548 -0.1061 -0.0241  0.3594
  805YOPS   D2A12144  17.626  17.678   6.926 -0.4566  0.0909 -0.0080
  805YOPS   C3A12145  17.851  17.468   7.280  0.2538 -0.0698  0.4040
  805YOPS   C4A12146  18.060  17.587   7.485  0.1060  0.0754  0.0322
  805YOPS   C1B12147  17.881  17.313   6.133  0.1549  0.2229  0.4244
  805YOPS   C2B12148  18.064  16.970   6.281  0.0603  0.3154  0.2159
  805YOPS   D3B12149  18.101  16.977   6.649 -0.0692  0.1705 -0.0482
  805YOPS   C4B12150  18.009  17.367   6.768  0.2179  0.2913  0.0768
  806YOPS   CNO12151   5.723  10.399   5.622 -0.0352  0.0714 -0.4519
  806YOPS   PO412152   5.450  10.438   5.951 -0.1212 -0.0598 -0.4186
  806YOPS   GL112153   5.386  10.408   6.367 -0.2410 -0.0746  0.3527
  806YOPS   GL212154   5.487  10.693   6.497 -0.0777 -0.1253 -0.1165
  806YOPS   C1A12155   5.122  10.421   6.713  0.2831  0.1220 -0.0729
  806YOPS   D2A12156   4.857  10.540   7.013 -0.0991  0.0219  0.0968
  806YOPS   C3A12157   4.717  10.440   7.432 -0.3233  0.2994 -0.2170
  806YOPS   C4A12158   4.799  10.402   7.804 -0.0285  0.4412 -0.4245
  806YOPS   C1B12159   5.644  10.504   6.803  0.0110  0.0974 -0.2268
  806YOPS   C2B12160   5.852  10.340   7.160 -0.0204  0.0515  0.2168
  806YOPS   D3B12161   5.695  10.215   7.506  0.2719 -0.2571  0.0850
  806YOPS   C4B12162   5.685   9.870   7.881  0.4067 -0.0914 -0.1134
  807YOPS   CNO12163   4.633   6.703   6.092  0.0864  0.1472 -0.1125
  807YOPS   PO412164   4.933   6.480   6.397  0.0740 -0.0880 -0.2716
  807YOPS   GL112165   4.622   6.426   6.679  0.0230  0.1831 -0.2846
  807YOPS   GL212166   4.382   6.667   6.530  0.2442  0.0510  0.3096
  807YOPS   C1A12167   4.465   6.335   7.150 -0.1649  0.0214  0.3744
  807YOPS   D2A12168   4.421   5.906   7.332 -0.1458  0.1392 -0.0304
  807YOPS   C3A12169   4.495   5.491   7.539  0.1159  0.3084 -0.0980
  807YOPS   C4A12170   4.428   5.031   7.297  0.0960  0.1186 -0.3069
  807YOPS   C1B12171   4.382   6.814   6.998 -0.0981  0.0767  0.0823
  807YOPS   C2B12172   4.089   6.658   7.313  0.0511 -0.1094 -0.0331
  807YOPS   D3B12173   3.800   6.561   7.531  0.0552  0.2951  0.0650
  807YOPS   C4B12174   3.825   6.540   7.909  0.2609  0.0228  0.1572
  808YOPS   CNO12175   3.795  16.805   5.912  0.3498 -0.1878  0.1621
  808YOPS   PO412176   3.716  17.156   5.772 -0.0808  0.0596 -0.0636
  808YOPS   GL112177   3.615  17.256   6.194 -0.3874 -0.1732 -0.0965
  808YOPS   GL212178   3.424  17.211   6.257  0.3216 -0.2812  0.3638
  808YOPS   C1A12179   3.839  17.495   6.477  0.0340 -0.0139 -0.0275
  808YOPS   D2A12180   3.745  17.613   6.854 -0.0295 -0.0227  0.0487
  808YOPS   C3A12181   3.748  17.632   7.189 -0.0711 -0.3040  0.0011
  808YOPS   C4A12182   3.979  17.939   7.468  0.1918  0.1453  0.2602
  808YOPS   C1B12183   3.367  17.295   6.723  0.3245 -0.0003  0.2822
  808YOPS   C2B12184   3.500  16.995   7.151 -0.0018 -0.3138 -0.2203
  808YOPS   D3B12185   3.758  16.681   7.270  0.2446 -0.5442 -0.1723
  808YOPS   C4B12186   3.572  16.235   7.502 -0.2685  0.3079 -0.0928
  809YOPS   CNO12187  14.942   5.188   5.837 -0.0790 -0.0912 -0.1530
  809YOPS   PO412188  14.987   4.760   5.999 -0.1956  0.1144  0.1363
  809YOPS   GL112189  15.165   4.646   6.478 -0.0497 -0.2567 -0.3620
  809YOPS   GL212190  15.461   4.411   6.543 -0.0024  0.0341 -0.0593
  809YOPS   C1A12191  15.167   4.610   6.892  0.4305 -0.3915 -0.2284
  809YOPS   D2A12192  15.322   4.487   7.280  0.0110  0.1140 -0.0004
  809YOPS   C3A12193  15.091   4.718   7.668  0.0480 -0.2524 -0.0381
  809YOPS   C4A12194  15.314   5.046   7.702  0.0472 -0.5003  0.0112
  809YOPS   C1B12195  15.755   4.642   6.910  0.1067  0.1946 -0.1448
  809YOPS   C2B12196  15.827   4.511   7.309  0.3448 -0.0734  0.2272
  809YOPS   D3B12197  15.726   4.755   7.657 -0.0629 -0.3100 -0.2459
  809YOPS   C4B12198  15.755   4.700   8.103  0.0821 -0.1907 -0.0062
  810YOPS   CNO12199   6.007   3.189   6.225 -0.0795  0.1607  0.1554
  810YOPS   PO412200   6.183   2.752   6.067 -0.2045  0.0375  0.0791
  810YOPS   GL112201   6.230   2.613   6.389 -0.3268  0.4386 -0.0296
  810YOPS   GL212202   6.376   2.885   6.601 -0.2013  0.0680 -0.3346
  810YOPS   C1A12203   6.089   2.384   6.758  0.0431 -0.2567  0.1941
  810YOPS   D2A12204   6.090   2.243   7.278  0.0561  0.2882 -0.1292
  810YOPS   C3A12205   6.057   2.389   7.682 -0.0950 -0.2517  0.1482
  810YOPS   C4A12206   5.856   2.066   7.840  0.2019 -0.0164 -0.1445
  810YOPS   C1B12207   6.255   2.761   7.049  0.1860  0.3884 -0.0758
  810YOPS   C2B12208   6.421   2.540   7.342 -0.1673 -0.1674  0.1282
  810YOPS   D3B12209   6.582   2.507   7.675 -0.3011 -0.2056  0.0050
  810YOPS   C4B12210   6.323   2.429   8.069  0.1966 -0.0322  0.0976
  811YOPS   CNO12211  13.872  10.194   5.987 -0.0637  0.1730 -0.0177
  811YOPS   PO412212  13.781  10.687   6.049 -0.1671 -0.1858 -0.3022
  811YOPS   GL112213  13.647  10.748   6.488  0.0550  0.0226  0.1197
  811YOPS   GL212214  13.499  11.027   6.718 -0.0182  0.1490 -0.1873
  811YOPS   C1A12215  13.574  10.531   6.900  0.1647  0.1872 -0.1629
  811YOPS   D2A12216  13.451  10.454   7.277  0.2361  0.2232  0.1242
  811YOPS   C3A12217  13.361  10.247   7.710 -0.1139 -0.0092 -0.0819
  811YOPS   C4A12218  13.197  10.532   8.084  0.0033  0.1011  0.1681
  811YOPS   C1B12219  13.542  10.941   7.193  0.1460  0.2301  0.0964
  811YOPS   C2B12220  13.247  10.754   7.608  0.0324 -0.0802 -0.3717
  811YOPS   D3B12221  12.907  10.904   7.685  0.1727  0.3418  0.0973
  811YOPS   C4B12222  12.963  10.975   8.151 -0.1788 -0.0159  0.1565
  812YOPS   CNO12223  13.163   5.683   5.917 -0.1441 -0.0694 -0.1419
  812YOPS   PO412224  13.440   6.033   5.855 -0.2747  0.1733 -0.0841
  812YOPS   GL112225  13.290   6.081   6.231 -0.2931 -0.1205 -0.0250
  812YOPS   GL212226  13.425   6.306   6.451  0.1462  0.0121 -0.2731
  812YOPS   C1A12227  13.116   5.862   6.661  0.1634 -0.1099 -0.0680
  812YOPS   D2A12228  12.992   5.764   7.061 -0.1087  0.1228 -0.1214
  812YOPS   C3A12229  12.862   5.438   7.266 -0.1782  0.0382 -0.0540
  812YOPS   C4A12230  13.024   5.348   7.574 -0.1494 -0.0479 -0.1076
  812YOPS   C1B12231  13.750   6.296   6.648 -0.2932 -0.1643  0.0165
  812YOPS   C2B12232  13.973   6.017   6.955  0.1190 -0.1932 -0.0495
  812YOPS   D3B12233  14.056   6.157   7.348  0.1683 -0.2476  0.4569
  812YOPS   C4B12234  13.948   6.076   7.771 -0.1303  0.1666 -0.1590
  813YOPS   CNO12235   8.052  17.913   5.484 -0.0855 -0.0707 -0.2023
  813YOPS   PO412236   7.865  17.886   5.851  0.2164 -0.1136  0.1284
  813YOPS   GL112237   7.800  17.849   6.187 -0.2290  0.1250 -0.4194
  813YOPS   GL212238   7.556  17.997   6.279  0.0186 -0.2610 -0.0117
  813YOPS   C1A12239   7.880  17.658   6.561  0.2178 -0.0416 -0.1755
  813YOPS   D2A12240   7.992  17.482   6.988  0.1561  0.2580 -0.5124
  813YOPS   C3A12241   7.883  17.146   7.343  0.0060 -0.0874 -0.0557
  813YOPS   C4A12242   8.031  17.021   7.764  0.3932 -0.2219  0.0851
  813YOPS   C1B12243   7.353  17.773   6.603  0.2051 -0.2042 -0.0746
  813YOPS   C2B12244   7.489  17.605   6.848 -0.3732  0.1133  0.1528
  813YOPS   D3B12245   7.458  17.470   7.266 -0.1993 -0.2300  0.0725
  813YOPS   C4B12246   7.376  17.102   7.482  0.0155  0.0876  0.2394
  814YOPS   CNO12247  10.707  16.305   5.818 -0.1097 -0.1981 -0.0549
  814YOPS   PO412248  10.584  16.372   6.176 -0.0548 -0.1955 -0.4275
  814YOPS   GL112249  10.742  16.283   6.517  0.0844 -0.1352 -0.0715
  814YOPS   GL212250  10.563  16.158   6.850 -0.1461  0.1593 -0.0625
  814YOPS   C1A12251  10.859  16.584   6.798  0.5875 -0.1368  0.0858
  814YOPS   D2A12252  10.938  16.709   7.242 -0.0961 -0.0444 -0.0842
  814YOPS   C3A12253  10.890  16.729   7.663  0.0396 -0.0272  0.0087
  814YOPS   C4A12254  11.204  16.738   7.886 -0.1962  0.0938  0.1879
  814YOPS   C1B12255  10.519  16.206   7.330 -0.0506  0.0662  0.0456
  814YOPS   C2B12256  10.254  16.533   7.610  0.0160  0.1072  0.1254
  814YOPS   D3B12257   9.991  16.838   7.975 -0.0046  0.1757 -0.1995
  814YOPS   C4B12258   9.749  16.652   8.280  0.2762 -0.0278  0.0362
  815YOPS   CNO12259  10.896   4.321   6.107  0.2007 -0.2770  0.0735
  815YOPS   PO412260  11.168   4.440   6.377 -0.1954 -0.1282 -0.2745
  815YOPS   GL112261  11.304   4.281   6.697 -0.0204  0.0576 -0.1822
  815YOPS   GL212262  11.461   4.023   6.537 -0.3600 -0.1015 -0.3284
  815YOPS   C1A12263  11.377   4.398   7.078 -0.0740  0.1750  0.0707
  815YOPS   D2A12264  11.449   4.564   7.507 -0.1516  0.2771 -0.0663
  815YOPS   C3A12265  11.303   4.685   7.933 -0.1870  0.1376 -0.0140
  815YOPS   C4A12266  11.351   4.411   8.257 -0.1116  0.0076 -0.1532
  815YOPS   C1B12267  11.560   3.931   6.990 -0.1079 -0.0041  0.3266
  815YOPS   C2B12268  11.648   4.044   7.384  0.0448  0.1443  0.0706
  815YOPS   D3B12269  11.815   4.056   7.894  0.0912  0.3792  0.0016
  815YOPS   C4B12270  11.710   4.082   8.376  0.0905 -0.1470 -0.1498
  816YOPS   CNO12271  15.958   6.918   6.031 -0.2511  0.1439 -0.1806
  816YOPS   PO412272  15.891   6.527   5.812  0.1305  0.1851 -0.0216
  816YOPS   GL112273  16.166   6.326   6.170 -0.1269 -0.0415  0.3278
  816YOPS   GL212274  16.065   6.014   6.283 -0.0025  0.0100  0.1608
  816YOPS   C1A12275  16.521   6.064   6.480 -0.1177  0.3034 -0.0882
  816YOPS   D2A12276  16.838   5.843   6.818 -0.2436  0.0075 -0.2633
  816YOPS   C3A12277  17.146   5.446   6.905 -0.2840 -0.4369 -0.0793
  816YOPS   C4A12278  17.317   5.402   7.313 -0.0112 -0.0252  0.0301
  816YOPS   C1B12279  16.123   5.725   6.566  0.0157  0.1952  0.1735
  816YOPS   C2B12280  16.401   5.615   6.824  0.1961 -0.1146 -0.4105
  816YOPS   D3B12281  16.534   5.698   7.221 -0.0806  0.5801  0.1097
  816YOPS   C4B12282  16.947   5.774   7.376 -0.1107  0.4232  0.2991
  817YOPS   CNO12283   8.761   5.016   6.365 -0.4283 -0.0178 -0.5699
  817YOPS   PO412284   8.590   5.458   6.443 -0.0639 -0.0622  0.0515
  817YOPS   GL112285   8.574   5.247   6.754  0.0041  0.1546  0.0595
  817YOPS   GL212286   8.274   5.030   6.801 -0.1449 -0.2491  0.0654
  817YOPS   C1A12287   8.822   5.280   7.124 -0.4012 -0.1138 -0.1210
  817YOPS   D2A12288   9.040   4.946   7.409  0.1090 -0.1207 -0.0527
  817YOPS   C3A12289   9.255   4.530   7.252  0.0618 -0.0023  0.0043
  817YOPS   C4A12290   8.934   4.320   7.005 -0.0734 -0.1091 -0.1802
  817YOPS   C1B12291   8.453   4.940   7.143 -0.2858 -0.3194 -0.0617
  817YOPS   C2B12292   8.502   5.122   7.543  0.0660  0.2056  0.0918
  817YOPS   D3B12293   8.231   5.046   7.930 -0.0039 -0.2430 -0.2896
  817YOPS   C4B12294   7.825   4.803   7.933 -0.2721  0.0454  0.0363
  818YOPS   CNO12295   3.900   2.760   5.333  0.3074  0.1909 -0.1608
  818YOPS   PO412296   3.655   2.825   5.826 -0.2798 -0.2315  0.0879
  818YOPS   GL112297   3.895   2.885   6.233 -0.0604  0.1468 -0.0118
  818YOPS   GL212298   4.090   2.651   6.331 -0.0162  0.3649 -0.2035
  818YOPS   C1A12299   3.803   2.920   6.628 -0.0066  0.0228 -0.1731
  818YOPS   D2A12300   3.993   2.890   7.084 -0.2016  0.1438  0.1934
  818YOPS   C3A12301   4.292   3.190   7.055  0.0654 -0.2806  0.3168
  818YOPS   C4A12302   4.482   3.311   7.518  0.1868  0.1885 -0.0094
  818YOPS   C1B12303   4.275   2.643   6.746 -0.0183 -0.1360 -0.3214
  818YOPS   C2B12304   4.388   2.630   7.193 -0.1671  0.0775  0.0829
  818YOPS   D3B12305   4.384   2.411   7.672  0.0493 -0.0883 -0.0857
  818YOPS   C4B12306   4.102   2.148   7.706 -0.0936 -0.0053  0.0893
  819YOPS   CNO12307   1.008   5.498   5.763 -0.1831  0.1785 -0.2144
  819YOPS   PO412308   0.838   5.658   6.179 -0.1858 -0.0777 -0.0396
  819YOPS   GL112309   1.133   5.722   6.440  0.1541 -0.0225 -0.0708
  819YOPS   GL212310   1.167   5.424   6.640  0.0493 -0.1050 -0.2291
  819YOPS   C1A12311   1.225   6.157   6.772 -0.1134  0.0530  0.1313
  819YOPS   D2A12312   1.271   6.238   7.227  0.2443 -0.2195  0.3672
  819YOPS   C3A12313   1.184   5.944   7.531  0.3922  0.2585  0.3526
  819YOPS   C4A12314   1.444   6.088   7.917  0.0226 -0.0404  0.1333
  819YOPS   C1B12315   1.092   5.549   7.073  0.0797  0.5442  0.0887
  819YOPS   C2B12316   0.923   5.491   7.425  0.0305 -0.1303  0.3412
  819YOPS   D3B12317   0.938   5.483   7.855  0.0099 -0.0614 -0.1835
  819YOPS   C4B12318   0.861   5.051   7.854  0.0652 -0.1618 -0.3819
  820YOPS   CNO12319   7.865  12.116   5.996  0.1917  0.0575  0.1888
  820YOPS   PO412320   8.211  12.270   6.328 -0.1274 -0.1627  0.2051
  820YOPS   GL112321   8.520  12.158   6.620 -0.2912 -0.4384  0.0540
  820YOPS   GL212322   8.349  12.016   6.701  0.0770  0.3557  0.1309
  820YOPS   C1A12323   8.746  12.089   7.025 -0.0079 -0.0813 -0.0483
  820YOPS   D2A12324   8.716  12.128   7.451 -0.0042 -0.2185  0.0108
  820YOPS   C3A12325   8.644  12.084   7.936 -0.0102 -0.1742  0.0156
  820YOPS   C4A12326   8.249  12.084   8.063  0.0120 -0.0656 -0.0281
  820YOPS   C1B12327   8.179  12.006   7.091  0.0037  0.1484  0.0528
  820YOPS   C2B12328   8.280  11.866   7.445  0.0545  0.4996 -0.2707
  820YOPS   D3B12329   8.048  11.688   7.820  0.0675 -0.2177  0.0294
  820YOPS   C4B12330   7.617  11.886   7.825  0.1734 -0.3504  0.0340
  821YOPS   CNO12331  12.500  16.728   5.701 -0.0177  0.1387 -0.2365
  821YOPS   PO412332  12.933  16.666   5.767  0.0440  0.1067 -0.1866
  821YOPS   GL112333  13.033  16.686   6.212 -0.0934  0.1395 -0.0212
  821YOPS   GL212334  12.754  16.541   6.459  0.0036 -0.1819 -0.0372
  821YOPS   C1A12335  13.013  17.003   6.515 -0.0509 -0.1803  0.3163
  821YOPS   D2A12336  12.733  17.131   6.787  0.3320  0.2838  0.2307
  821YOPS   C3A12337  12.809  17.258   7.144  0.0418  0.0135 -0.1125
  821YOPS   C4A12338  12.477  17.405   7.331  0.4718  0.2907  0.1592
  821YOPS   C1B12339  12.728  16.606   6.876 -0.4383 -0.1402 -0.2792
  821YOPS   C2B12340  12.726  16.621   7.369 -0.1490  0.2905  0.4588
  821YOPS   D3B12341  12.746  16.975   7.635  0.4478  0.0731  0.4702
  821YOPS   C4B12342  12.615  16.900   8.076 -0.0161  0.0313  0.0642
  822YOPS   CNO12343   7.094  15.137   5.540  0.0837 -0.0456  0.5140
  822YOPS   PO412344   7.267  15.176   5.908 -0.2324 -0.1304 -0.1539
  822YOPS   GL112345   7.141  15.347   6.209  0.0789 -0.0681 -0.2801
  822YOPS   GL212346   6.878  15.197   6.261  0.2757  0.1874 -0.1210
  822YOPS   C1A12347   7.350  15.484   6.572  0.0406 -0.0694  0.1793
  822YOPS   D2A12348   7.427  15.237   6.914  0.3306  0.2248  0.1188
  822YOPS   C3A12349   7.215  15.291   7.292 -0.0663  0.1434 -0.1912
  822YOPS   C4A12350   7.180  15.637   7.419  0.1212 -0.1616 -0.2365
  822YOPS   C1B12351   6.889  15.262   6.656  0.0795  0.1754  0.3091
  822YOPS   C2B12352   6.864  15.547   6.981 -0.2587 -0.0778 -0.2136
  822YOPS   D3B12353   6.714  15.908   7.054  0.1590 -0.0886  0.0236
  822YOPS   C4B12354   6.777  16.090   7.484  0.1658  0.0787  0.2079
  823YOPS   CNO12355  16.167   0.780   5.986 -0.1244 -0.1116 -0.1710
  823YOPS   PO412356  16.462   0.548   5.787  0.2788  0.3477  0.1920
  823YOPS   GL112357  16.663   0.344   6.137  0.1435  0.1608  0.0937
  823YOPS   GL212358  16.947   0.399   6.248  0.0537  0.0451  0.0282
  823YOPS   C1A12359  16.497   0.261   6.465 -0.0912  0.2737 -0.0211
  823YOPS   D2A12360  16.278   0.086   6.843 -0.1249 -0.2225  0.1073
  823YOPS   C3A12361  15.982   0.110   7.170 -0.0620  0.0739 -0.0049
  823YOPS   C4A12362  15.606   0.004   6.943 -0.2396 -0.1074 -0.1312
  823YOPS   C1B12363  17.237   0.348   6.644 -0.1825 -0.0026  0.0030
  823YOPS   C2B12364  17.348   0.362   7.005 -0.0285  0.1616  0.0132
  823YOPS   D3B12365  17.627   0.143   7.285 -0.0917  0.1241  0.2603
  823YOPS   C4B12366  17.647  -0.307   7.364 -0.0084  0.1938  0.1475
  824YOPS   CNO12367   8.613  17.861   5.618  0.3524 -0.0736 -0.2083
  824YOPS   PO412368   8.987  17.734   5.722  0.0925  0.2641  0.1974
  824YOPS   GL112369   8.861  17.843   6.113  0.2191  0.0738  0.1588
  824YOPS   GL212370   8.585  17.629   6.409 -0.1520 -0.1258 -0.2317
  824YOPS   C1A12371   8.882  17.928   6.620  0.1318 -0.0858  0.1760
  824YOPS   D2A12372   9.009  18.020   7.053 -0.0377  0.2015 -0.0591
  824YOPS   C3A12373   9.256  18.154   7.340 -0.2504 -0.2806 -0.0329
  824YOPS   C4A12374   9.529  17.841   7.389 -0.0254  0.4093 -0.0096
  824YOPS   C1B12375   8.315  17.828   6.764  0.1192  0.0461 -0.1792
  824YOPS   C2B12376   8.228  17.798   7.236 -0.0029 -0.0522  0.1550
  824YOPS   D3B12377   8.335  17.401   7.448 -0.4136 -0.1309  0.5535
  824YOPS   C4B12378   8.552  17.390   7.809  0.0391  0.2427 -0.2746
  825YOPS   CNO12379   6.578   5.573   6.695  0.1895  0.0038 -0.1786
  825YOPS   PO412380   6.386   6.061   6.444  0.1818 -0.2479  0.1375
  825YOPS   GL112381   6.064   6.388   6.663  0.0399 -0.1218  0.2951
  825YOPS   GL212382   5.845   6.644   6.651  0.0678  0.0481 -0.0360
  825YOPS   C1A12383   6.197   6.527   7.084  0.1905 -0.1138  0.0116
  825YOPS   D2A12384   6.233   6.572   7.481  0.0524  0.1508  0.2617
  825YOPS   C3A12385   6.218   6.657   7.852  0.2184 -0.1091  0.0496
  825YOPS   C4A12386   6.608   6.827   7.898 -0.1455  0.0472  0.0311
  825YOPS   C1B12387   5.925   6.914   7.074  0.1887  0.1761  0.0367
  825YOPS   C2B12388   5.928   6.970   7.521 -0.1122 -0.0592 -0.0991
  825YOPS   D3B12389   5.642   7.268   7.789 -0.0517  0.0434 -0.1211
  825YOPS   C4B12390   5.501   7.636   7.593 -0.2816 -0.3419  0.0376
  826YOPS   CNO12391   7.492  11.310   6.001  0.0220  0.2884 -0.2669
  826YOPS   PO412392   7.274  11.317   6.389  0.1470  0.0617 -0.2960
  826YOPS   GL112393   7.214  11.768   6.622 -0.6376  0.1798  0.1738
  826YOPS   GL212394   6.962  11.958   6.526 -0.0688 -0.2033  0.1166
  826YOPS   C1A12395   7.116  12.038   7.036  0.1931  0.0432  0.2125
  826YOPS   D2A12396   6.956  12.314   7.389  0.0408  0.0509  0.1262
  826YOPS   C3A12397   6.808  12.365   7.792  0.2240  0.3268 -0.0300
  826YOPS   C4A12398   6.288  12.106   7.833  0.0949  0.1998 -0.2500
  826YOPS   C1B12399   6.712  12.225   6.808 -0.0831 -0.2323  0.1113
  826YOPS   C2B12400   6.701  12.495   7.069  0.2189  0.2756  0.0594
  826YOPS   D3B12401   6.766  12.785   7.292  0.4983  0.0116  0.2230
  826YOPS   C4B12402   6.534  12.720   7.612  0.2537  0.0771  0.0204
  827YOPS   CNO12403   9.191  17.244   5.570 -0.1985 -0.1327 -0.0197
  827YOPS   PO412404   9.147  17.012   5.948 -0.2538  0.3785  0.1384
  827YOPS   GL112405   8.974  16.872   6.430  0.2493  0.2436  0.0584
  827YOPS   GL212406   8.703  16.996   6.356  0.0194  0.1034  0.1407
  827YOPS   C1A12407   8.889  17.009   6.847  0.3161  0.0060  0.1738
  827YOPS   D2A12408   8.797  17.101   7.361  0.5421 -0.0308  0.1367
  827YOPS   C3A12409   9.041  16.970   7.595  0.3137  0.1231  0.1151
  827YOPS   C4A12410   9.201  17.197   7.966  0.1313 -0.1114 -0.1501
  827YOPS   C1B12411   8.407  17.247   6.613 -0.0753  0.1936 -0.1770
  827YOPS   C2B12412   8.503  17.354   6.973  0.1729  0.1968  0.1988
  827YOPS   D3B12413   8.673  17.626   7.202 -0.0374 -0.4101  0.2561
  827YOPS   C4B12414   8.629  17.814   7.613 -0.0049  0.5796 -0.0424
  828YOPS   CNO12415  15.389  16.294   4.995 -0.1955 -0.2082  0.0788
  828YOPS   PO412416  15.574  16.462   5.411 -0.0281 -0.1529 -0.0562
  828YOPS   GL112417  15.777  16.543   5.882 -0.0110  0.1818  0.1516
  828YOPS   GL212418  15.567  16.567   6.205  0.1745  0.1638  0.2182
  828YOPS   C1A12419  16.058  16.599   6.254 -0.2823 -0.2136  0.1033
  828YOPS   D2A12420  16.230  16.927   6.697 -0.2328  0.1071  0.2974
  828YOPS   C3A12421  16.462  17.235   7.048 -0.1697  0.0322  0.0904
  828YOPS   C4A12422  16.813  17.189   7.080  0.0204 -0.0152  0.1283
  828YOPS   C1B12423  15.414  16.354   6.637  0.0387 -0.1195 -0.0941
  828YOPS   C2B12424  15.441  16.415   6.960  0.2088 -0.0080 -0.2209
  828YOPS   D3B12425  15.502  16.250   7.249  0.0670 -0.0263 -0.1724
  828YOPS   C4B12426  15.680  16.664   7.560  0.0254  0.1890  0.2565
  829YOPS   CNO12427  13.903   9.356   6.213  0.0787 -0.2194  0.2041
  829YOPS   PO412428  14.408   9.269   6.152  0.2139 -0.1966 -0.0219
  829YOPS   GL112429  14.379   9.157   6.659  0.3264 -0.3964  0.1604
  829YOPS   GL212430  14.173   9.375   6.634 -0.1025 -0.0900 -0.1781
  829YOPS   C1A12431  14.540   9.288   7.119 -0.3816 -0.1653 -0.1385
  829YOPS   D2A12432  14.338   9.509   7.423  0.1064 -0.4100 -0.0466
  829YOPS   C3A12433  13.916   9.406   7.693 -0.1171  0.1760 -0.2518
  829YOPS   C4A12434  13.734   9.115   7.572  0.3333 -0.0766  0.1903
  829YOPS   C1B12435  14.210   9.650   6.951 -0.2168 -0.2917 -0.0315
  829YOPS   C2B12436  14.195   9.928   7.210 -0.0727  0.1126  0.1056
  829YOPS   D3B12437  14.198   9.966   7.556  0.1074  0.3035 -0.0221
  829YOPS   C4B12438  13.782  10.118   7.577 -0.0252  0.0541  0.1777
  830YOPS   CNO12439  10.044   4.232   6.455 -0.2811  0.0113 -0.1620
  830YOPS   PO412440   9.676   4.123   6.309  0.0551  0.0555  0.2333
  830YOPS   GL112441   9.607   3.951   6.632 -0.1705  0.0896 -0.2805
  830YOPS   GL212442   9.569   3.625   6.624 -0.0834 -0.0929  0.3077
  830YOPS   C1A12443   9.376   4.073   7.006 -0.1822 -0.1652 -0.3004
  830YOPS   D2A12444   9.166   4.028   7.429 -0.3148  0.1766  0.3021
  830YOPS   C3A12445   9.029   3.714   7.631 -0.0737 -0.1295 -0.2441
  830YOPS   C4A12446   8.662   3.968   7.892  0.0205 -0.0707 -0.0876
  830YOPS   C1B12447   9.858   3.513   6.919  0.0784  0.0865  0.1216
  830YOPS   C2B12448   9.974   3.320   7.132  0.0111  0.0003  0.0564
  830YOPS   D3B12449  10.363   3.387   7.087 -0.0584  0.0167  0.3357
  830YOPS   C4B12450  10.458   3.814   7.208 -0.1148  0.1154 -0.3217
  831POPE   NH312451   1.135   8.626   5.860  0.2408  0.0884 -0.2083
  831POPE   PO412452   0.948   8.268   5.677 -0.0293 -0.0228 -0.0240
  831POPE   GL112453   0.629   8.162   6.046  0.0815  0.2311  0.0932
  831POPE   GL212454   0.768   7.890   6.225 -0.0104  0.0196  0.1380
  831POPE   C1A12455   0.436   8.380   6.447  0.0298  0.0232  0.0089
  831POPE   D2A12456   0.298   8.688   6.831 -0.2240  0.0055  0.1714
  831POPE   C3A12457  -0.058   8.579   7.075 -0.2291 -0.1560  0.1104
  831POPE   C4A12458  -0.443   8.497   7.286 -0.3004 -0.0167  0.2108
  831POPE   C1B12459   0.682   7.954   6.618 -0.2358  0.0933 -0.2527
  831POPE   C2B12460   0.662   7.904   7.054 -0.0873 -0.0829  0.3093
  831POPE   C3B12461   0.750   8.040   7.511  0.2050 -0.0891 -0.1367
  831POPE   C4B12462   0.549   8.006   7.977  0.1300 -0.2789  0.4892
  832POPE   NH312463  12.614  15.543   6.227  0.0560  0.1884 -0.3902
  832POPE   PO412464  12.421  15.117   6.339  0.1355 -0.1693  0.3517
  832POPE   GL112465  12.499  14.999   6.706 -0.1915  0.0763  0.0790
  832POPE   GL212466  12.522  15.326   6.760 -0.1089 -0.1596  0.0053
  832POPE   C1A12467  12.592  14.882   7.135  0.0067  0.1117 -0.1918
  832POPE   D2A12468  12.548  14.620   7.463 -0.2368  0.0335 -0.1376
  832POPE   C3A12469  12.668  14.808   7.798  0.0826  0.3091 -0.2232
  832POPE   C4A12470  12.847  14.992   8.076 -0.1756 -0.1024 -0.1027
  832POPE   C1B12471  12.711  15.659   7.065  0.1124 -0.0546 -0.0015
  832POPE   C2B12472  12.626  15.728   7.368  0.2662  0.0429  0.3707
  832POPE   C3B12473  12.489  16.182   7.633  0.3223  0.4261 -0.1012
  832POPE   C4B12474  12.575  16.335   8.070  0.0116 -0.0503  0.1137
  833POPE   NH312475   6.942  13.013   5.975 -0.0218  0.0007  0.1520
  833POPE   PO412476   7.184  13.335   5.929  0.2739  0.0803  0.1889
  833POPE   GL112477   7.070  13.168   6.411 -0.0705 -0.1228  0.0614
  833POPE   GL212478   7.285  12.997   6.604  0.3001  0.0817 -0.1944
  833POPE   C1A12479   6.736  13.242   6.700  0.1535 -0.2202 -0.3811
  833POPE   D2A12480   6.446  13.506   6.761 -0.0415  0.3839  0.0884
  833POPE   C3A12481   6.272  13.880   6.837  0.1117  0.1037  0.0755
  833POPE   C4A12482   6.333  14.142   7.113  0.1372  0.0999  0.0257
  833POPE   C1B12483   7.182  12.990   7.069  0.1021 -0.3492  0.1425
  833POPE   C2B12484   7.324  12.652   7.286 -0.1971  0.0613 -0.0015
  833POPE   C3B12485   7.306  12.470   7.703  0.1477 -0.0577  0.2404
  833POPE   C4B12486   7.135  12.559   8.137 -0.3714  0.2617  0.2939
  834POPE   NH312487  12.573   5.023   6.157  0.0193  0.4448 -0.2598
  834POPE   PO412488  12.133   5.035   6.040 -0.2035 -0.1289 -0.1456
  834POPE   GL112489  12.174   4.942   6.467 -0.0799  0.1359  0.1767
  834POPE   GL212490  12.256   4.639   6.639 -0.0355 -0.1267 -0.0758
  834POPE   C1A12491  12.362   4.965   6.992 -0.0186 -0.2230  0.2419
  834POPE   D2A12492  12.390   5.281   7.399 -0.1536 -0.3682 -0.5133
  834POPE   C3A12493  12.587   5.213   7.740  0.0208  0.2024 -0.0941
  834POPE   C4A12494  12.632   5.024   8.039  0.2707 -0.1691  0.4126
  834POPE   C1B12495  12.438   4.486   7.048  0.1339 -0.1143 -0.0237
  834POPE   C2B12496  12.390   4.308   7.434 -0.3193 -0.0355  0.4496
  834POPE   C3B12497  12.652   4.016   7.600 -0.0795 -0.1863 -0.1801
  834POPE   C4B12498  12.794   3.621   7.635 -0.2257 -0.0419  0.1795
  835POPE   NH312499  17.157   7.539   5.613 -0.4165 -0.0443 -0.4915
  835POPE   PO412500  17.426   7.376   5.775 -0.3032 -0.1600 -0.1131
  835POPE   GL112501  17.685   7.350   6.153 -0.0602  0.1301  0.1787
  835POPE   GL212502  17.536   7.410   6.436  0.0447  0.2445  0.1848
  835POPE   C1A12503  17.978   7.443   6.536 -0.0769  0.2920  0.0509
  835POPE   D2A12504  17.789   7.454   6.966 -0.0877  0.0385  0.2117
  835POPE   C3A12505  17.729   7.166   7.204 -0.1152 -0.2169 -0.1878
  835POPE   C4A12506  17.755   6.892   7.544 -0.0769 -0.2618  0.2471
  835POPE   C1B12507  17.605   7.029   6.791 -0.3178  0.1998  0.1657
  835POPE   C2B12508  17.766   6.704   7.006 -0.0060  0.3628  0.1008
  835POPE   C3B12509  17.876   6.501   7.233 -0.0855 -0.0947  0.0852
  835POPE   C4B12510  17.894   6.117   7.312 -0.2986  0.1452 -0.2297
  836POPE   NH312511   6.745  10.626   6.166 -0.2208 -0.1148 -0.0149
  836POPE   PO412512   6.366  10.631   6.326  0.1508 -0.1403 -0.1671
  836POPE   GL112513   6.180  10.386   6.556  0.3049 -0.1505  0.1342
  836POPE   GL212514   5.935  10.162   6.523 -0.0825  0.0177 -0.4380
  836POPE   C1A12515   6.331  10.258   6.938  0.2546  0.0693 -0.0296
  836POPE   D2A12516   6.324  10.212   7.282  0.1157  0.1667  0.0649
  836POPE   C3A12517   6.701  10.305   7.621 -0.0132  0.0060 -0.0349
  836POPE   C4A12518   7.100  10.283   7.688 -0.2336  0.0882  0.0730
  836POPE   C1B12519   5.910   9.899   6.988 -0.1156 -0.0668  0.2257
  836POPE   C2B12520   6.023   9.802   7.382  0.2162 -0.5725  0.1601
  836POPE   C3B12521   5.919   9.487   7.669  0.2830 -0.2331 -0.0538
  836POPE   C4B12522   5.726   9.423   8.050  0.0329  0.2484  0.1688
  837POPE   NH312523   2.243   4.225   5.965 -0.0904  0.0369  0.0927
  837POPE   PO412524   2.651   3.960   6.008 -0.2370 -0.0907  0.0079
  837POPE   GL112525   2.692   3.583   6.366 -0.0641  0.0622 -0.0505
  837POPE   GL212526   2.835   3.275   6.290 -0.1873 -0.1037 -0.5234
  837POPE   C1A12527   2.881   3.470   6.755  0.1956 -0.1075 -0.1357
  837POPE   D2A12528   3.060   3.232   7.088  0.0660  0.0147  0.0544
  837POPE   C3A12529   3.126   3.281   7.583 -0.0054 -0.0838 -0.0498
  837POPE   C4A12530   2.908   3.491   7.978  0.2571 -0.0302  0.2964
  837POPE   C1B12531   2.991   2.974   6.652 -0.0603  0.1424 -0.2021
  837POPE   C2B12532   3.399   2.767   6.828 -0.0612  0.0564 -0.1287
  837POPE   C3B12533   3.551   2.649   7.158  0.2105 -0.0140  0.0213
  837POPE   C4B12534   3.834   2.456   7.402  0.0834 -0.2589 -0.1283
  838POPE   NH312535  11.580   0.653   6.305 -0.0399 -0.1359  0.2802
  838POPE   PO412536  11.097   0.709   6.261 -0.0235 -0.2751 -0.0731
  838POPE   GL112537  10.960   0.744   6.683 -0.0500  0.2079 -0.4512
  838POPE   GL212538  10.672   0.589   6.678 -0.1319 -0.2066  0.3305
  838POPE   C1A12539  10.865   0.858   7.093 -0.1661  0.2384 -0.1041
  838POPE   D2A12540  10.955   1.013   7.627 -0.0485  0.3706  0.0416
  838POPE   C3A12541  10.781   1.353   7.708 -0.0707 -0.0811 -0.0339
  838POPE   C4A12542  10.315   1.408   7.717  0.0128  0.0525 -0.1632
  838POPE   C1B12543  10.740   0.385   7.000 -0.0777 -0.1120 -0.0422
  838POPE   C2B12544  10.798   0.052   7.317 -0.1564 -0.0975  0.0409
  838POPE   C3B12545  11.026   0.051   7.732  0.0059  0.0246  0.2350
  838POPE   C4B12546  11.382   0.301   7.816  0.1381 -0.1257  0.1707
  839POPE   NH312547   8.234   7.416   6.205  0.0685 -0.1747  0.3656
  839POPE   PO412548   8.489   7.553   6.062 -0.2585 -0.1190 -0.0358
  839POPE   GL112549   8.594   7.423   6.518  0.0051  0.0941 -0.3216
  839POPE   GL212550   8.737   7.727   6.651  0.0893  0.0859 -0.0230
  839POPE   C1A12551   8.700   7.123   6.918 -0.0128  0.0153  0.0476
  839POPE   D2A12552   8.954   6.779   6.918 -0.0563 -0.3247  0.1969
  839POPE   C3A12553   8.815   6.215   6.936 -0.0811  0.1997 -0.1688
  839POPE   C4A12554   8.707   5.789   6.936  0.0695 -0.0078 -0.0174
  839POPE   C1B12555   8.681   8.031   6.989  0.1800  0.1130  0.3471
  839POPE   C2B12556   8.575   8.140   7.309  0.0628 -0.1741  0.1962
  839POPE   C3B12557   8.524   7.895   7.762  0.1008 -0.1264 -0.2328
  839POPE   C4B12558   8.629   7.656   8.177 -0.2084  0.5386 -0.1454
  840POPE   NH312559  16.401  11.781   6.043  0.1276 -0.1448  0.3197
  840POPE   PO412560  16.032  11.679   5.948  0.1154 -0.1423 -0.2356
  840POPE   GL112561  16.018  11.993   6.327  0.2312 -0.3907  0.0246
  840POPE   GL212562  16.207  12.263   6.281  0.0833  0.3343  0.0801
  840POPE   C1A12563  15.767  12.075   6.755 -0.4863 -0.1634  0.0317
  840POPE   D2A12564  15.716  11.935   7.101  0.0619 -0.1687  0.2250
  840POPE   C3A12565  15.554  12.148   7.412  0.2362 -0.1144  0.1634
  840POPE   C4A12566  15.434  12.579   7.482  0.1010  0.3744 -0.1138
  840POPE   C1B12567  16.265  12.199   6.653  0.0742  0.0690  0.0764
  840POPE   C2B12568  16.474  12.340   7.051 -0.1006  0.0146  0.1626
  840POPE   C3B12569  16.521  12.468   7.437 -0.2125  0.3427 -0.0545
  840POPE   C4B12570  16.631  12.567   7.937  0.0253  0.2439 -0.3061
  841POPE   NH312571  16.902   8.595   5.936  0.1408  0.0111 -0.0787
  841POPE   PO412572  16.574   8.810   5.885 -0.1003 -0.0025 -0.1045
  841POPE   GL112573  16.485   8.972   6.263  0.1650  0.1574  0.1514
  841POPE   GL212574  16.365   8.829   6.455 -0.4567  0.0663 -0.0099
  841POPE   C1A12575  16.150   9.247   6.491  0.0326 -0.0789  0.0923
  841POPE   D2A12576  15.980   9.429   6.819  0.2517  0.2118  0.2118
  841POPE   C3A12577  15.938   9.225   7.319 -0.0542  0.0241  0.1691
  841POPE   C4A12578  16.111   9.235   7.722  0.0250  0.0024 -0.2837
  841POPE   C1B12579  16.297   8.959   6.919 -0.1155 -0.1051 -0.3352
  841POPE   C2B12580  16.479   9.130   7.314  0.1447  0.1333 -0.1466
  841POPE   C3B12581  16.523   8.893   7.721 -0.2072 -0.1739  0.0182
  841POPE   C4B12582  16.340   8.745   8.077 -0.0291 -0.1316  0.0836
  842POPE   NH312583  13.381  11.860   6.155  0.0670  0.1179 -0.3671
  842POPE   PO412584  13.201  11.459   6.199  0.1379 -0.0657  0.1992
  842POPE   GL112585  13.561  11.526   6.477  0.0396 -0.2047 -0.2309
  842POPE   GL212586  13.911  11.467   6.531  0.2387  0.3509  0.2229
  842POPE   C1A12587  13.917  11.879   6.740 -0.0692  0.1633  0.4822
  842POPE   D2A12588  14.202  12.140   6.845 -0.0051 -0.0334  0.0989
  842POPE   C3A12589  14.291  12.157   7.268  0.1272 -0.1374 -0.0872
  842POPE   C4A12590  14.288  12.285   7.645  0.2680  0.1429  0.0879
  842POPE   C1B12591  13.861  11.336   6.903 -0.4518  0.1209 -0.0213
  842POPE   C2B12592  13.945  11.251   7.308 -0.2197  0.1244 -0.0883
  842POPE   C3B12593  13.735  11.049   7.672  0.2743  0.2337  0.1312
  842POPE   C4B12594  13.452  11.014   7.975 -0.1366 -0.2487 -0.2836
  843POPE   NH312595   8.495   6.719   5.743 -0.1629  0.2178  0.3291
  843POPE   PO412596   8.267   6.835   6.093 -0.3001  0.0350 -0.1748
  843POPE   GL112597   8.416   6.881   6.528 -0.0468  0.2863 -0.2960
  843POPE   GL212598   8.584   6.641   6.689  0.2067 -0.1501  0.0036
  843POPE   C1A12599   8.187   7.078   6.869  0.1316 -0.0061 -0.2056
  843POPE   D2A12600   8.126   6.907   7.293 -0.3082 -0.1159  0.0618
  843POPE   C3A12601   7.720   6.881   7.456  0.2420 -0.0367 -0.0568
  843POPE   C4A12602   7.352   7.023   7.524  0.0964  0.1130 -0.1670
  843POPE   C1B12603   8.472   6.625   7.129  0.1122  0.1937  0.3251
  843POPE   C2B12604   8.429   6.530   7.570  0.0252 -0.0305  0.0246
  843POPE   C3B12605   8.081   6.789   7.854 -0.0787  0.2968 -0.1494
  843POPE   C4B12606   7.953   6.811   8.355  0.2413  0.1044  0.3236
  844POPE   NH312607   2.572  15.652   5.544 -0.3704  0.0858 -0.0307
  844POPE   PO412608   3.042  15.880   5.632  0.1734 -0.2973 -0.0482
  844POPE   GL112609   3.237  15.903   6.111  0.3466 -0.2341 -0.1211
  844POPE   GL212610   3.242  15.647   6.214 -0.0988 -0.2690 -0.1579
  844POPE   C1A12611   3.443  16.175   6.361 -0.0222  0.0183 -0.1993
  844POPE   D2A12612   3.695  16.408   6.525  0.0564 -0.2174 -0.2375
  844POPE   C3A12613   3.780  16.151   6.931 -0.0795 -0.2114  0.1104
  844POPE   C4A12614   4.006  16.232   7.213  0.1398  0.1738 -0.3592
  844POPE   C1B12615   3.154  15.800   6.644 -0.4243 -0.0409 -0.1609
  844POPE   C2B12616   2.933  15.688   7.014  0.3078  0.1864 -0.0576
  844POPE   C3B12617   2.608  15.664   7.133  0.0735 -0.1449  0.1233
  844POPE   C4B12618   2.284  15.570   7.113  0.0837  0.0986 -0.0914
  845POPE   NH312619   6.796   6.296   6.327  0.2512  0.3612  0.4117
  845POPE   PO412620   7.179   6.493   6.093  0.0616 -0.0072  0.2094
  845POPE   GL112621   7.199   6.634   6.498 -0.0022  0.1058 -0.2661
  845POPE   GL212622   7.586   6.710   6.644 -0.2783 -0.0503  0.4816
  845POPE   C1A12623   7.133   6.910   6.795  0.0182  0.1843 -0.1695
  845POPE   D2A12624   6.960   7.312   6.875  0.0229  0.0347 -0.4861
  845POPE   C3A12625   6.782   7.382   7.348  0.1316 -0.0576  0.0936
  845POPE   C4A12626   6.610   7.656   7.693 -0.0003  0.0003  0.0366
  845POPE   C1B12627   7.666   6.992   6.892  0.0169 -0.0959 -0.0623
  845POPE   C2B12628   7.460   7.321   7.068 -0.2894  0.0874 -0.2225
  845POPE   C3B12629   7.399   7.557   7.429  0.3807  0.1664  0.0944
  845POPE   C4B12630   7.087   7.823   7.685 -0.1615  0.2287 -0.2092
  846POPE   NH312631  17.125  17.717   5.869 -0.0228  0.0547  0.0320
  846POPE   PO412632  17.112  17.272   5.937  0.2221  0.0685 -0.1452
  846POPE   GL112633  16.876  17.442   6.207 -0.2658 -0.0792 -0.0125
  846POPE   GL212634  17.149  17.459   6.412 -0.0925 -0.0168 -0.1553
  846POPE   C1A12635  16.439  17.506   6.409  0.3806 -0.0922  0.0811
  846POPE   D2A12636  16.132  17.412   6.715  0.0000 -0.0338  0.0113
  846POPE   C3A12637  16.034  17.436   7.114  0.0630 -0.0043  0.2618
  846POPE   C4A12638  16.178  17.400   7.498  0.0472 -0.0600  0.1780
  846POPE   C1B12639  17.243  17.314   6.786  0.2395 -0.1390  0.0710
  846POPE   C2B12640  17.306  17.211   7.197 -0.2859  0.2515 -0.4295
  846POPE   C3B12641  17.055  16.997   7.484  0.1847 -0.2087 -0.0093
  846POPE   C4B12642  16.681  17.145   7.585 -0.0180 -0.1797  0.0187
  847POPE   NH312643  14.800  12.102   5.972  0.0731  0.0606  0.1633
  847POPE   PO412644  15.120  11.779   6.032  0.3133 -0.1340  0.0222
  847POPE   GL112645  14.922  11.801   6.457 -0.0507 -0.1503  0.2388
  847POPE   GL212646  14.833  12.009   6.514  0.2423 -0.2128  0.1257
  847POPE   C1A12647  14.774  11.509   6.792  0.0131  0.2006 -0.3412
  847POPE   D2A12648  15.022  11.372   7.065 -0.2960 -0.2392 -0.2241
  847POPE   C3A12649  15.235  11.127   6.901  0.0292 -0.0538 -0.3070
  847POPE   C4A12650  15.563  10.952   7.110 -0.3711  0.0630 -0.0750
  847POPE   C1B12651  14.776  11.986   6.974  0.1404 -0.1548 -0.2515
  847POPE   C2B12652  14.806  11.714   7.330 -0.1148 -0.2419  0.2564
  847POPE   C3B12653  14.929  11.365   7.572  0.0788  0.2692 -0.0567
  847POPE   C4B12654  14.752  11.074   7.937 -0.2181  0.0584  0.2651
  848POPE   NH312655  17.695   9.121   5.862 -0.0311 -0.2915 -0.2279
  848POPE   PO412656  18.121   9.145   5.769 -0.0114  0.2557  0.2710
  848POPE   GL112657  18.136   8.855   6.090 -0.0919 -0.0193  0.1030
  848POPE   GL212658  17.922   8.686   6.023 -0.2144 -0.0740 -0.3397
  848POPE   C1A12659  18.468   8.881   6.309  0.3126  0.1264  0.1804
  848POPE   D2A12660  18.796   9.127   6.176 -0.0569 -0.0088 -0.2000
  848POPE   C3A12661  19.040   9.323   6.515  0.0360 -0.0619  0.0658
  848POPE   C4A12662  19.064   9.667   6.762  0.2179  0.0941  0.2991
  848POPE   C1B12663  17.506   8.753   6.308  0.1112  0.4219 -0.2659
  848POPE   C2B12664  17.287   8.692   6.583 -0.0626  0.0108 -0.1575
  848POPE   C3B12665  17.314   8.623   6.988 -0.0332  0.2240 -0.1251
  848POPE   C4B12666  17.051   8.336   7.238 -0.0259  0.0155 -0.0941
  849POPE   NH312667   8.641  12.576   6.281  0.2861 -0.1375  0.0738
  849POPE   PO412668   9.037  12.384   6.384 -0.0827  0.4414 -0.1349
  849POPE   GL112669   8.939  12.392   6.729 -0.1243  0.1712 -0.0521
  849POPE   GL212670   8.678  12.596   6.857 -0.1010  0.0145 -0.1234
  849POPE   C1A12671   9.042  12.500   7.197 -0.1769  0.0976  0.1410
  849POPE   D2A12672   9.117  12.501   7.623 -0.3344  0.2381  0.0172
  849POPE   C3A12673   9.024  12.909   7.799  0.0391  0.1922  0.0501
  849POPE   C4A12674   8.897  13.054   8.294 -0.1115  0.1932  0.1236
  849POPE   C1B12675   8.256  12.496   7.136  0.0183 -0.4084  0.1650
  849POPE   C2B12676   8.303  12.356   7.518  0.1410  0.3884  0.0253
  849POPE   C3B12677   8.335  12.565   7.866 -0.1790 -0.1594 -0.1999
  849POPE   C4B12678   8.541  12.561   8.219 -0.0520 -0.3112 -0.1270
  850POPE   NH312679   4.213  14.026   6.133 -0.1425  0.1519  0.0638
  850POPE   PO412680   4.417  13.620   6.229 -0.0342  0.1116 -0.0281
  850POPE   GL112681   4.632  13.860   6.471 -0.3261 -0.1818 -0.0185
  850POPE   GL212682   4.767  14.053   6.335 -0.2253 -0.3536 -0.0570
  850POPE   C1A12683   4.757  13.853   6.982 -0.1351  0.2223  0.0306
  850POPE   D2A12684   4.743  13.807   7.487 -0.0812  0.2995  0.0559
  850POPE   C3A12685   4.753  14.119   7.785  0.1125 -0.0502  0.4753
  850POPE   C4A12686   4.952  14.579   7.917 -0.1020  0.2538  0.0037
  850POPE   C1B12687   4.917  14.215   6.738  0.2874 -0.0350  0.2102
  850POPE   C2B12688   4.784  14.294   7.221  0.0421  0.0900  0.0025
  850POPE   C3B12689   4.513  14.495   7.534  0.1138 -0.0662 -0.1294
  850POPE   C4B12690   4.397  14.454   7.934  0.1205  0.1850  0.0154
  851POPE   NH312691   0.344   5.852   6.014  0.0514  0.1955 -0.0440
  851POPE   PO412692   0.348   6.214   5.816  0.1183 -0.1066 -0.3965
  851POPE   GL112693   0.258   6.431   6.113  0.2703  0.0348  0.5094
  851POPE   GL212694   0.297   6.690   6.220  0.0782 -0.1907 -0.1549
  851POPE   C1A12695   0.097   6.292   6.504 -0.0260  0.0977  0.0282
  851POPE   D2A12696   0.048   6.576   6.885 -0.4387  0.0315 -0.2222
  851POPE   C3A12697   0.460   6.558   7.262  0.1472  0.2228  0.0856
  851POPE   C4A12698   0.543   6.408   7.759 -0.0019  0.1192  0.1816
  851POPE   C1B12699   0.426   6.763   6.612 -0.2225  0.1944  0.1609
  851POPE   C2B12700   0.477   6.978   7.026  0.0527  0.2014 -0.3614
  851POPE   C3B12701   0.428   7.008   7.456 -0.2686  0.1400 -0.2272
  851POPE   C4B12702   0.749   6.805   7.857 -0.0524  0.2772 -0.0540
  852POPE   NH312703  11.877   7.622   6.202  0.3663 -0.1879 -0.3636
  852POPE   PO412704  12.266   7.393   6.315 -0.1720 -0.0796 -0.2083
  852POPE   GL112705  12.242   7.686   6.719  0.0988  0.2568  0.1049
  852POPE   GL212706  11.984   7.904   6.784  0.0254 -0.1833 -0.3004
  852POPE   C1A12707  12.351   7.656   7.198 -0.1409 -0.1829 -0.1836
  852POPE   D2A12708  12.398   7.536   7.668 -0.1574 -0.2155  0.0326
  852POPE   C3A12709  12.675   7.309   7.749  0.1284 -0.0262  0.3863
  852POPE   C4A12710  12.865   7.144   8.059  0.1195 -0.2759  0.1201
  852POPE   C1B12711  12.096   8.300   6.811  0.1570 -0.0192  0.1185
  852POPE   C2B12712  12.057   8.732   6.891 -0.2736  0.0024  0.2723
  852POPE   C3B12713  11.981   9.022   7.236  0.1036 -0.0810 -0.3279
  852POPE   C4B12714  11.900   9.207   7.701 -0.0066 -0.0381 -0.1287
  853POPE   NH312715   0.883  16.919   5.636 -0.0334 -0.0180  0.1941
  853POPE   PO412716   1.134  17.240   5.694 -0.2308 -0.3673 -0.3203
  853POPE   GL112717   0.956  17.346   6.070 -0.0031 -0.0371 -0.0032
  853POPE   GL212718   0.611  17.402   6.138  0.0483 -0.0347  0.1334
  853POPE   C1A12719   1.152  17.560   6.399 -0.2332 -0.0744  0.0865
  853POPE   D2A12720   1.372  17.493   6.774  0.0378 -0.1239  0.2104
  853POPE   C3A12721   1.206  17.199   7.025 -0.2232  0.0382  0.2085
  853POPE   C4A12722   1.039  17.256   7.419 -0.2244 -0.1660 -0.4376
  853POPE   C1B12723   0.677  17.076   6.494 -0.0594 -0.1191  0.0822
  853POPE   C2B12724   0.761  16.989   6.847  0.1684  0.1666 -0.1209
  853POPE   C3B12725   0.844  16.732   7.190 -0.0947 -0.0000 -0.0758
  853POPE   C4B12726   1.191  16.797   7.359  0.0685 -0.1118  0.3237
  854POPE   NH312727   9.971   2.314   6.377  0.1413 -0.0745  0.0966
  854POPE   PO412728   9.684   2.710   6.300  0.0820 -0.1924  0.2664
  854POPE   GL112729   9.706   2.915   6.690  0.3181 -0.1292  0.1540
  854POPE   GL212730   9.789   2.646   6.895 -0.0380 -0.0027  0.1406
  854POPE   C1A12731   9.504   3.179   6.961 -0.1967  0.0394 -0.8306
  854POPE   D2A12732   9.079   3.256   7.287 -0.1684 -0.0851  0.0726
  854POPE   C3A12733   9.140   3.241   7.664 -0.1067 -0.0339 -0.0337
  854POPE   C4A12734   9.423   3.319   7.960 -0.0006 -0.1956  0.2402
  854POPE   C1B12735   9.602   2.817   7.335  0.1512 -0.0279 -0.1675
  854POPE   C2B12736   9.674   2.836   7.776 -0.1278 -0.4899 -0.0524
  854POPE   C3B12737   9.555   2.892   8.157  0.0504 -0.2357  0.2160
  854POPE   C4B12738   9.701   2.884   8.582 -0.2259  0.1531 -0.4825
  855POPE   NH312739   4.252  17.246   5.696 -0.1754  0.0319  0.0241
  855POPE   PO412740   4.376  17.623   5.867  0.2535 -0.2681  0.1095
  855POPE   GL112741   4.281  17.384   6.173  0.4758 -0.0039 -0.1760
  855POPE   GL212742   4.126  17.008   6.192  0.0880  0.5411 -0.0493
  855POPE   C1A12743   4.298  17.270   6.570  0.1249 -0.0773  0.1848
  855POPE   D2A12744   4.251  17.459   6.984 -0.3577 -0.4450 -0.2615
  855POPE   C3A12745   4.238  17.506   7.410 -0.1976 -0.0636 -0.1137
  855POPE   C4A12746   4.469  17.713   7.764  0.1413 -0.1127  0.2644
  855POPE   C1B12747   3.817  16.918   6.472 -0.3242  0.5703 -0.0965
  855POPE   C2B12748   3.845  17.107   6.840  0.0883 -0.0962 -0.0989
  855POPE   C3B12749   4.079  17.044   7.164  0.2786  0.1215  0.1346
  855POPE   C4B12750   4.245  16.678   7.308 -0.2580  0.2533  0.0556
  856POPE   NH312751  13.079   6.540   6.163  0.0979 -0.2206 -0.1555
  856POPE   PO412752  13.088   6.965   6.098  0.0460 -0.2695 -0.0914
  856POPE   GL112753  12.987   6.945   6.553 -0.0589 -0.1336  0.1046
  856POPE   GL212754  12.735   7.180   6.588 -0.0919 -0.2515 -0.0918
  856POPE   C1A12755  13.059   7.016   7.012  0.0731  0.1958  0.1022
  856POPE   D2A12756  12.964   7.272   7.325 -0.1062  0.0166  0.0376
  856POPE   C3A12757  13.181   7.161   7.617 -0.1492  0.2980  0.2074
  856POPE   C4A12758  13.534   6.899   7.761  0.1669 -0.0513 -0.3165
  856POPE   C1B12759  12.544   7.187   6.973  0.0972 -0.1249  0.1565
  856POPE   C2B12760  12.281   7.074   7.313 -0.0266 -0.0291  0.1410
  856POPE   C3B12761  12.217   6.612   7.500  0.0093 -0.0514  0.1250
  856POPE   C4B12762  12.056   6.472   7.934 -0.0143  0.1525  0.1116
  857POPE   NH312763  14.734   5.887   6.209 -0.0405 -0.0967  0.1865
  857POPE   PO412764  14.710   5.488   6.292  0.1897  0.1659  0.2702
  857POPE   GL112765  14.530   5.685   6.640  0.0392  0.0671  0.1960
  857POPE   GL212766  14.215   5.592   6.727 -0.1531 -0.2474  0.0419
  857POPE   C1A12767  14.806   5.921   6.853  0.0908 -0.1393 -0.0227
  857POPE   D2A12768  14.862   6.317   6.769 -0.3173 -0.2838  0.0567
  857POPE   C3A12769  14.986   6.525   7.103 -0.3259  0.0554 -0.0153
  857POPE   C4A12770  15.147   6.263   7.413 -0.2260  0.0910 -0.0962
  857POPE   C1B12771  14.052   5.453   7.110  0.1931  0.0892  0.2429
  857POPE   C2B12772  13.904   5.286   7.439  0.0669 -0.0417 -0.2904
  857POPE   C3B12773  14.022   5.022   7.738  0.2855 -0.3455 -0.2003
  857POPE   C4B12774  14.177   4.698   7.874 -0.0955 -0.0070  0.1235
  858POPE   NH312775  13.642  14.029   5.601 -0.0882  0.0416  0.2042
  858POPE   PO412776  13.930  14.290   5.847 -0.0864 -0.0394 -0.1967
  858POPE   GL112777  13.762  13.985   6.123 -0.0628  0.0744 -0.0280
  858POPE   GL212778  13.489  14.019   6.326  0.2083  0.0768 -0.2368
  858POPE   C1A12779  14.139  14.064   6.528  0.0535  0.0535  0.5250
  858POPE   D2A12780  14.409  14.142   6.869 -0.2403 -0.1803 -0.0925
  858POPE   C3A12781  14.467  14.103   7.240  0.0389 -0.2019  0.0632
  858POPE   C4A12782  14.664  14.123   7.669  0.2146  0.0316 -0.1323
  858POPE   C1B12783  13.103  13.839   6.498 -0.1795 -0.1915 -0.2559
  858POPE   C2B12784  13.127  13.683   7.018  0.0272  0.0215 -0.0502
  858POPE   C3B12785  13.182  13.896   7.441  0.1880  0.2329  0.1805
  858POPE   C4B12786  13.080  13.960   7.806 -0.0272  0.2520 -0.0728
  859YOPE   NH312787  10.691  13.302   6.209 -0.0283  0.1590  0.1425
  859YOPE   PO412788  10.620  12.898   6.321  0.1823  0.0019 -0.1762
  859YOPE   GL112789  10.757  12.776   6.747  0.0077 -0.2944  0.0277
  859YOPE   GL212790  10.846  12.532   6.748  0.1284  0.2584  0.0879
  859YOPE   C1A12791  10.924  12.828   7.187  0.1929 -0.1576  0.3935
  859YOPE   D2A12792  11.164  13.083   7.587  0.0860 -0.1361  0.2143
  859YOPE   C3A12793  11.469  13.098   7.888  0.0046  0.1400  0.0525
  859YOPE   C4A12794  11.865  13.004   8.142  0.1228 -0.2964  0.1769
  859YOPE   C1B12795  10.600  12.361   7.144 -0.0778 -0.4217 -0.3484
  859YOPE   C2B12796  10.576  12.241   7.465 -0.1786  0.4149  0.0976
  859YOPE   D3B12797  10.384  12.360   7.818 -0.1317  0.1025 -0.2589
  859YOPE   C4B12798  10.361  12.644   8.202  0.0150  0.1249 -0.1320
  860YOPE   NH312799   7.902  11.304   6.269  0.0129 -0.0584 -0.1368
  860YOPE   PO412800   7.572  10.885   6.370 -0.2569 -0.0371  0.1287
  860YOPE   GL112801   7.400  10.981   6.815 -0.0506 -0.0584  0.0056
  860YOPE   GL212802   7.149  11.274   6.850  0.0490  0.0507 -0.0037
  860YOPE   C1A12803   7.273  11.077   7.253  0.2483 -0.0488 -0.1616
  860YOPE   D2A12804   6.994  10.896   7.445 -0.3603  0.0091  0.3078
  860YOPE   C3A12805   6.883  10.729   7.828 -0.1927 -0.3496  0.1342
  860YOPE   C4A12806   6.707  10.347   8.128 -0.0717 -0.3025 -0.1499
  860YOPE   C1B12807   7.130  11.599   7.203  0.2343 -0.2162 -0.2689
  860YOPE   C2B12808   7.279  11.923   7.483 -0.2361  0.1210  0.0348
  860YOPE   D3B12809   7.161  12.033   7.951 -0.1054 -0.1809  0.1534
  860YOPE   C4B12810   7.081  12.054   8.349  0.1904  0.0318 -0.2740
  861YOPE   NH312811  12.752  17.840   5.850 -0.1323 -0.0302 -0.0272
  861YOPE   PO412812  12.883  17.480   6.111  0.0020  0.2285 -0.3397
  861YOPE   GL112813  13.162  17.520   6.467  0.0350  0.0452  0.0083
  861YOPE   GL212814  13.421  17.435   6.349 -0.2196  0.0935 -0.2462
  861YOPE   C1A12815  13.234  17.387   6.855  0.2460  0.3219  0.2540
  861YOPE   D2A12816  13.313  17.415   7.203  0.2595 -0.1108 -0.1951
  861YOPE   C3A12817  13.008  17.428   7.571 -0.2769 -0.1362  0.1318
  861YOPE   C4A12818  13.066  17.107   8.004 -0.1207  0.3402 -0.1426
  861YOPE   C1B12819  13.643  17.634   6.716 -0.0658 -0.1238 -0.1791
  861YOPE   C2B12820  13.734  17.726   7.173  0.0590  0.0400  0.0195
  861YOPE   D3B12821  13.672  17.571   7.533  0.2268  0.3144  0.1530
  861YOPE   C4B12822  13.339  17.529   8.000 -0.0867 -0.1997 -0.0553
  862YOPE   NH312823   9.368  17.529   5.942  0.0707  0.1994 -0.4238
  862YOPE   PO412824   9.811  17.385   6.054  0.3264  0.1040  0.0041
  862YOPE   GL112825   9.716  17.412   6.413  0.2503 -0.3683  0.0587
  862YOPE   GL212826   9.464  17.134   6.331  0.0157 -0.0568  0.1136
  862YOPE   C1A12827   9.742  17.397   6.799 -0.1714 -0.1889 -0.0712
  862YOPE   D2A12828   9.811  17.463   7.211 -0.4141 -0.5082 -0.1683
  862YOPE   C3A12829   9.990  17.693   7.444 -0.0692  0.0387 -0.0311
  862YOPE   C4A12830  10.057  17.990   7.773 -0.0764 -0.0931 -0.1924
  862YOPE   C1B12831   9.452  17.036   6.747  0.2344 -0.2425 -0.1143
  862YOPE   C2B12832   9.454  17.105   7.158  0.2051 -0.0971 -0.2021
  862YOPE   D3B12833   9.480  17.320   7.531  0.2805  0.0573  0.0116
  862YOPE   C4B12834   9.640  17.640   7.868  0.0963  0.0883 -0.1559
  863YOPE   NH312835  15.651  12.024   5.965 -0.2985  0.0195  0.2727
  863YOPE   PO412836  15.290  12.338   5.835  0.0375 -0.1314 -0.0324
  863YOPE   GL112837  15.139  12.335   6.235 -0.3328  0.1544  0.2839
  863YOPE   GL212838  15.178  12.688   6.348 -0.0159  0.0728 -0.1575
  863YOPE   C1A12839  15.257  12.261   6.681 -0.2050 -0.1061 -0.0109
  863YOPE   D2A12840  15.282  12.399   7.038  0.0053 -0.1171 -0.1340
  863YOPE   C3A12841  15.078  12.212   7.373 -0.1666 -0.0659  0.1094
  863YOPE   C4A12842  14.760  12.141   7.685  0.0332 -0.1321 -0.1027
  863YOPE   C1B12843  14.975  12.790   6.631  0.0148  0.1612 -0.0305
  863YOPE   C2B12844  15.117  12.853   7.117 -0.1100  0.0121 -0.1274
  863YOPE   D3B12845  15.175  13.058   7.530  0.2000 -0.1362  0.1100
  863YOPE   C4B12846  15.217  13.303   7.935  0.2661 -0.1764 -0.1164
  864YOPE   NH312847  15.129  11.306   5.748  0.4101 -0.1520 -0.5009
  864YOPE   PO412848  15.473  11.289   6.067  0.0398 -0.3246  0.3393
  864YOPE   GL112849  15.675  11.576   6.349  0.0312 -0.0130  0.0165
  864YOPE   GL212850  15.441  11.878   6.416 -0.1349 -0.4949  0.1428
  864YOPE   C1A12851  15.660  11.417   6.803  0.3046 -0.0568  0.2232
  864YOPE   D2A12852  15.655  11.467   7.194 -0.2841  0.2989 -0.0205
  864YOPE   C3A12853  15.765  11.731   7.594 -0.3552  0.0683  0.2359
  864YOPE   C4A12854  15.655  12.050   7.981 -0.0043  0.0030 -0.0682
  864YOPE   C1B12855  15.321  11.774   6.823 -0.2026 -0.2153 -0.1895
  864YOPE   C2B12856  15.268  11.811   7.216  0.1616  0.2769 -0.2650
  864YOPE   D3B12857  15.249  11.794   7.648  0.3099  0.0618 -0.0085
  864YOPE   C4B12858  15.217  12.258   7.840 -0.1470  0.0679 -0.3056
  865YOPE   NH312859   4.196   2.585   5.715 -0.3586  0.1046 -0.3554
  865YOPE   PO412860   4.273   2.891   5.927 -0.2405  0.2201  0.1666
  865YOPE   GL112861   4.445   3.110   6.303 -0.0253  0.4660  0.2149
  865YOPE   GL212862   4.579   3.403   6.229 -0.1661 -0.2498 -0.2498
  865YOPE   C1A12863   4.226   3.250   6.591  0.2172  0.1867  0.1388
  865YOPE   D2A12864   4.083   3.669   6.736  0.0253  0.1068  0.0410
  865YOPE   C3A12865   3.907   3.673   7.183  0.0725  0.4873  0.0567
  865YOPE   C4A12866   3.984   3.670   7.579 -0.0352  0.0026  0.2302
  865YOPE   C1B12867   4.721   3.570   6.599  0.0612 -0.0758 -0.1623
  865YOPE   C2B12868   4.602   3.593   7.016  0.1432 -0.1255 -0.2080
  865YOPE   D3B12869   4.534   3.769   7.485  0.0139  0.1450  0.1108
  865YOPE   C4B12870   4.562   3.894   7.804 -0.0761  0.0099  0.0617
  866YOPE   NH312871  10.776   2.842   6.335  0.0180 -0.1849 -0.1519
  866YOPE   PO412872  10.408   3.166   6.197 -0.0817  0.0294 -0.0816
  866YOPE   GL112873  10.419   3.182   6.582 -0.1574 -0.2635  0.3332
  866YOPE   GL212874  10.633   3.461   6.662  0.0067 -0.0444 -0.0688
  866YOPE   C1A12875  10.202   2.978   6.920 -0.1822  0.0518 -0.1293
  866YOPE   D2A12876  10.152   3.027   7.513  0.0911  0.2321  0.1624
  866YOPE   C3A12877  10.318   3.396   7.567 -0.0301  0.0094 -0.0387
  866YOPE   C4A12878  10.735   3.497   7.421  0.1493  0.0128  0.0302
  866YOPE   C1B12879  10.841   3.326   6.979  0.3025 -0.0669 -0.1284
  866YOPE   C2B12880  11.150   3.250   7.284 -0.0180 -0.1978 -0.1119
  866YOPE   D3B12881  11.216   3.364   7.753 -0.0571  0.1456  0.1718
  866YOPE   C4B12882  11.454   3.239   8.086  0.1516 -0.3323  0.0425
  867YOPE   NH312883   7.137   4.769   6.496  0.3248 -0.2676  0.3577
  867YOPE   PO412884   7.507   4.665   6.692 -0.2178  0.2207 -0.2923
  867YOPE   GL112885   7.698   4.363   6.887 -0.0233  0.1223  0.1980
  867YOPE   GL212886   7.894   4.134   6.764  0.0440  0.1055 -0.1123
  867YOPE   C1A12887   7.696   4.403   7.285 -0.1554  0.0058 -0.0062
  867YOPE   D2A12888   7.629   4.365   7.609 -0.0252  0.1144 -0.1435
  867YOPE   C3A12889   7.202   4.258   7.861 -0.0082  0.0278  0.1258
  867YOPE   C4A12890   6.821   4.388   7.974 -0.2985  0.0850 -0.0936
  867YOPE   C1B12891   8.370   4.122   6.960  0.0205  0.0147  0.0199
  867YOPE   C2B12892   8.500   4.272   7.373  0.0274  0.4003 -0.0478
  867YOPE   D3B12893   8.792   4.535   7.539 -0.1042  0.0004 -0.2208
  867YOPE   C4B12894   8.888   4.809   7.843 -0.3145 -0.2098  0.0981
  868YOPE   NH312895   8.240  12.763   6.520  0.0625 -0.3789  0.1130
  868YOPE   PO412896   7.802  12.818   6.522 -0.0347  0.0109 -0.0710
  868YOPE   GL112897   8.066  13.079   6.843  0.1885  0.0210  0.1515
  868YOPE   GL212898   8.251  13.405   6.618 -0.0314  0.0529  0.2916
  868YOPE   C1A12899   8.026  13.271   7.244  0.0353 -0.0025 -0.0247
  868YOPE   D2A12900   8.145  13.439   7.760 -0.0344 -0.0667 -0.2286
  868YOPE   C3A12901   8.578  13.680   7.790 -0.0696  0.2852  0.3506
  868YOPE   C4A12902   8.943  13.453   7.958 -0.0182  0.1319  0.1716
  868YOPE   C1B12903   8.405  13.537   6.916  0.3555  0.2451 -0.0523
  868YOPE   C2B12904   8.344  13.651   7.358  0.1344  0.1228  0.1069
  868YOPE   D3B12905   8.203  14.043   7.657 -0.0210  0.1657  0.1361
  868YOPE   C4B12906   8.151  14.424   7.888  0.0709  0.2670  0.1395
  869YOPE   NH312907   4.067   7.728   5.612  0.1199  0.2412 -0.0355
  869YOPE   PO412908   4.481   7.957   5.903 -0.3816  0.0887 -0.2223
  869YOPE   GL112909   4.470   8.060   6.242  0.0703 -0.1833 -0.3107
  869YOPE   GL212910   4.635   8.374   6.266 -0.3105  0.0436 -0.1157
  869YOPE   C1A12911   4.418   8.252   6.649  0.1460 -0.0190 -0.0915
  869YOPE   D2A12912   4.318   8.142   7.068  0.1029 -0.1696  0.0140
  869YOPE   C3A12913   4.460   7.953   7.301  0.1609 -0.1119 -0.1203
  869YOPE   C4A12914   4.638   7.567   7.399 -0.2031  0.3515 -0.0816
  869YOPE   C1B12915   4.914   8.315   6.624 -0.0716  0.1871 -0.0972
  869YOPE   C2B12916   4.858   8.047   7.041 -0.2193 -0.3228 -0.0511
  869YOPE   D3B12917   5.057   7.676   7.172  0.3163  0.1351  0.0771
  869YOPE   C4B12918   5.131   7.392   7.320  0.1307 -0.2103  0.5183
  870YOPE   NH312919  14.848  14.885   6.041  0.0248 -0.0714  0.2610
  870YOPE   PO412920  14.915  14.430   6.068  0.2089  0.1761 -0.0612
  870YOPE   GL112921  14.870  14.576   6.426 -0.0755  0.1381 -0.0419
  870YOPE   GL212922  15.036  14.844   6.510 -0.1382  0.0200 -0.0296
  870YOPE   C1A12923  14.764  14.613   6.858 -0.1474  0.0105 -0.0278
  870YOPE   D2A12924  14.962  14.623   7.285  0.2029  0.1460 -0.0755
  870YOPE   C3A12925  14.814  14.616   7.741  0.2101 -0.1207 -0.0647
  870YOPE   C4A12926  14.687  14.285   8.143 -0.0494  0.4398  0.2967
  870YOPE   C1B12927  15.278  14.556   6.785  0.1762 -0.2584  0.4112
  870YOPE   C2B12928  15.434  14.488   7.226 -0.1229  0.0130 -0.0773
  870YOPE   D3B12929  15.570  14.389   7.561 -0.2167  0.3751 -0.2112
  870YOPE   C4B12930  15.720  14.560   8.035 -0.0698 -0.1582  0.1078
  871YOPE   NH312931   2.100   1.875   5.336  0.0750  0.0705 -0.0130
  871YOPE   PO412932   2.003   2.134   5.775 -0.3033  0.1793  0.1735
  871YOPE   GL112933   2.124   2.194   6.096  0.1825 -0.0679  0.2341
  871YOPE   GL212934   2.148   2.581   6.075  0.1097 -0.0044 -0.1728
  871YOPE   C1A12935   1.958   2.209   6.480  0.2034 -0.0700 -0.1166
  871YOPE   D2A12936   1.827   2.228   6.956 -0.2184  0.1696 -0.1581
  871YOPE   C3A12937   1.645   1.852   7.096  0.1817 -0.0173  0.1815
  871YOPE   C4A12938   1.262   1.829   7.280  0.1515 -0.5797 -0.0730
  871YOPE   C1B12939   2.376   2.705   6.447  0.0332 -0.1076  0.0042
  871YOPE   C2B12940   2.632   2.583   6.719  0.2906  0.0969 -0.0807
  871YOPE   D3B12941   2.848   2.694   7.133 -0.0999 -0.0926 -0.4402
  871YOPE   C4B12942   3.163   2.779   7.402  0.1693 -0.1608  0.1418
  872YOPE   NH312943   9.303   3.815   6.259 -0.1463 -0.1133  0.0528
  872YOPE   PO412944   8.864   3.834   6.213  0.0216 -0.5065 -0.0454
  872YOPE   GL112945   8.932   3.669   6.641  0.0487 -0.1451 -0.3113
  872YOPE   GL212946   9.005   3.438   6.822  0.0450 -0.0165 -0.0065
  872YOPE   C1A12947   8.710   3.727   7.065 -0.0125 -0.3293  0.1341
  872YOPE   D2A12948   8.423   3.692   7.537  0.0582 -0.0338  0.3403
  872YOPE   C3A12949   8.185   3.368   7.472  0.1364 -0.1191 -0.1109
  872YOPE   C4A12950   7.783   3.400   7.511  0.0641 -0.2508 -0.0343
  872YOPE   C1B12951   9.286   3.602   7.028  0.1648  0.0689  0.2531
  872YOPE   C2B12952   9.479   3.557   7.401  0.0344  0.0009  0.3407
  872YOPE   D3B12953   9.757   3.310   7.586  0.0849  0.0032 -0.1860
  872YOPE   C4B12954   9.943   3.232   7.945  0.0675  0.1606  0.3921
  873YOPE   NH312955  15.470   6.893   5.889 -0.0729  0.0616 -0.1664
  873YOPE   PO412956  15.132   6.829   5.986  0.1372 -0.0464 -0.3557
  873YOPE   GL112957  15.051   7.072   6.300  0.2846 -0.1646  0.0079
  873YOPE   GL212958  15.206   7.352   6.275 -0.1876  0.3455  0.1600
  873YOPE   C1A12959  14.751   7.240   6.529  0.0157  0.1305 -0.3011
  873YOPE   D2A12960  14.394   7.537   6.529  0.1499 -0.1617 -0.0635
  873YOPE   C3A12961  14.195   7.414   6.819 -0.0976 -0.1785  0.0859
  873YOPE   C4A12962  13.855   7.561   7.089 -0.1834  0.2017 -0.1744
  873YOPE   C1B12963  15.209   7.411   6.741  0.1864  0.2789  0.0262
  873YOPE   C2B12964  15.352   7.272   7.135 -0.1171 -0.0593  0.2368
  873YOPE   D3B12965  15.695   7.112   7.375 -0.0953 -0.2583 -0.2809
  873YOPE   C4B12966  16.131   7.017   7.442  0.4208 -0.0764  0.3050
  874YOPE   NH312967  13.419   5.260   5.988 -0.0153  0.0519  0.0350
  874YOPE   PO412968  12.956   5.310   6.161  0.0618  0.2087 -0.0159
  874YOPE   GL112969  12.876   5.351   6.556  0.1541  0.1713 -0.1414
  874YOPE   GL212970  12.690   5.037   6.667  0.0315 -0.3539 -0.0319
  874YOPE   C1A12971  12.485   5.466   6.893 -0.0806  0.1174  0.0651
  874YOPE   D2A12972  12.353   5.753   7.208  0.1343  0.3257 -0.1229
  874YOPE   C3A12973  12.671   5.802   7.488  0.0120  0.2001 -0.0428
  874YOPE   C4A12974  13.058   5.913   7.558 -0.0914 -0.0011 -0.2523
  874YOPE   C1B12975  12.833   4.941   7.074 -0.0836 -0.2377 -0.2358
  874YOPE   C2B12976  12.670   4.811   7.412 -0.0833 -0.0759  0.2250
  874YOPE   D3B12977  12.395   4.720   7.673 -0.0773 -0.1394  0.3717
  874YOPE   C4B12978  12.160   4.847   8.056 -0.3560  0.1953  0.1791
  875YOPE   NH312979   0.874  12.603   5.616 -0.2508  0.4899 -0.1070
  875YOPE   PO412980   0.866  12.250   5.862 -0.1088 -0.1620 -0.0219
  875YOPE   GL112981   0.788  12.523   6.169  0.0519 -0.0694 -0.0546
  875YOPE   GL212982   0.617  12.434   6.339 -0.2754  0.0091  0.1687
  875YOPE   C1A12983   1.006  12.666   6.475 -0.0545 -0.2854  0.2740
  875YOPE   D2A12984   1.287  12.919   6.816  0.0282  0.1231  0.0708
  875YOPE   C3A12985   1.615  12.645   7.084  0.1189  0.0735  0.0831
  875YOPE   C4A12986   1.981  12.307   7.093  0.1924 -0.2389  0.1098
  875YOPE   C1B12987   0.505  12.730   6.608 -0.0967 -0.0059  0.0789
  875YOPE   C2B12988   0.250  12.965   6.909 -0.3464  0.1514  0.2773
  875YOPE   D3B12989   0.107  13.051   7.268 -0.2630 -0.1401  0.0904
  875YOPE   C4B12990  -0.126  13.442   7.411  0.1413 -0.0402 -0.1249
  876YOPE   NH312991  14.531   4.696   5.664 -0.0388  0.2070  0.4057
  876YOPE   PO412992  14.346   4.546   6.093  0.0081 -0.0581  0.0568
  876YOPE   GL112993  14.672   4.548   6.368 -0.2289 -0.1228 -0.2325
  876YOPE   GL212994  14.757   4.256   6.473 -0.1039 -0.0506  0.0927
  876YOPE   C1A12995  14.729   4.873   6.647  0.2248 -0.0409  0.2720
  876YOPE   D2A12996  14.983   5.092   6.820 -0.1567 -0.2363  0.0057
  876YOPE   C3A12997  15.434   5.144   6.807  0.0861 -0.0624 -0.0230
  876YOPE   C4A12998  15.673   5.424   6.526 -0.1289  0.1427  0.2408
  876YOPE   C1B12999  14.710   4.390   6.903  0.2718 -0.0412  0.0423
  876YOPE   C2B13000  14.824   4.709   7.198 -0.0456 -0.1385 -0.1454
  876YOPE   D3B13001  14.968   5.066   7.325  0.0661  0.0665  0.1499
  876YOPE   C4B13002  15.038   5.446   7.653 -0.4385  0.0785  0.0491
  877YOPE   NH313003  11.522   7.932   6.116 -0.0594  0.0605 -0.3726
  877YOPE   PO413004  11.432   7.458   6.200 -0.2936  0.2012  0.0099
  877YOPE   GL113005  11.393   7.507   6.694  0.2957  0.0822  0.1143
  877YOPE   GL213006  11.645   7.589   6.755 -0.0335  0.0618  0.1162
  877YOPE   C1A13007  11.411   7.265   7.139 -0.2672  0.2050 -0.0962
  877YOPE   D2A13008  11.374   6.852   7.324 -0.1301 -0.0836 -0.1738
  877YOPE   C3A13009  11.340   7.009   7.748 -0.0115  0.2079  0.0514
  877YOPE   C4A13010  11.479   7.215   8.099 -0.0153  0.0204 -0.1312
  877YOPE   C1B13011  11.653   7.733   7.131  0.3144 -0.0518 -0.2338
  877YOPE   C2B13012  11.935   7.987   7.326 -0.2968  0.2082  0.0706
  877YOPE   D3B13013  11.944   7.905   7.736  0.3666 -0.2337  0.0065
  877YOPE   C4B13014  11.765   8.132   8.112 -0.5216  0.0324  0.1850
  878YOPE   NH313015   7.272   3.627   6.099  0.1078 -0.0141  0.2383
  878YOPE   PO413016   7.555   3.945   6.127 -0.3248  0.2355  0.0862
  878YOPE   GL113017   7.544   3.779   6.509  0.2346 -0.2090  0.0064
  878YOPE   GL213018   7.866   3.579   6.567 -0.1724  0.0390 -0.0083
  878YOPE   C1A13019   7.497   3.830   7.013 -0.1543 -0.1753 -0.0832
  878YOPE   D2A13020   7.475   3.938   7.427 -0.0995 -0.3442 -0.0899
  878YOPE   C3A13021   7.715   3.792   7.851 -0.1208  0.1850  0.0953
  878YOPE   C4A13022   7.682   3.354   8.019  0.2592 -0.1575 -0.2011
  878YOPE   C1B13023   7.762   3.378   7.002 -0.2628  0.3507  0.1830
  878YOPE   C2B13024   7.359   3.471   7.279 -0.1178 -0.1946  0.1559
  878YOPE   D3B13025   7.008   3.403   7.383 -0.0042 -0.0682  0.0579
  878YOPE   C4B13026   6.842   3.440   7.777 -0.2337 -0.1954 -0.0261
  879YOPE   NH313027   3.695   1.686   5.480 -0.0502  0.1295  0.0296
  879YOPE   PO413028   3.895   1.827   5.859  0.2615  0.0953 -0.1121
  879YOPE   GL113029   3.683   1.561   6.018  0.1944 -0.1402 -0.1739
  879YOPE   GL213030   3.776   1.717   6.336  0.1136 -0.0842  0.0685
  879YOPE   C1A13031   3.659   1.254   6.380 -0.0113  0.2142  0.1961
  879YOPE   D2A13032   3.698   1.080   6.743  0.0446  0.2329 -0.0810
  879YOPE   C3A13033   3.989   1.115   7.103  0.0745 -0.1911  0.2129
  879YOPE   C4A13034   4.011   1.240   7.481  0.1573 -0.1576 -0.0451
  879YOPE   C1B13035   3.399   1.735   6.622 -0.0206  0.0589  0.2398
  879YOPE   C2B13036   3.290   1.938   6.910  0.2010  0.1342  0.1835
  879YOPE   D3B13037   3.427   2.172   7.268 -0.2674 -0.1384 -0.0751
  879YOPE   C4B13038   3.488   2.271   7.729  0.1026  0.1164  0.1865
  880YOPE   NH313039  10.716  11.850   6.246 -0.3190 -0.4188  0.0120
  880YOPE   PO413040  10.873  11.394   6.172 -0.0708 -0.2267  0.2829
  880YOPE   GL113041  10.652  11.462   6.651  0.2630 -0.1684 -0.1956
  880YOPE   GL213042  10.884  11.489   6.703  0.0467  0.1144  0.5348
  880YOPE   C1A13043  10.634  11.353   7.148  0.0148 -0.1651 -0.1709
  880YOPE   D2A13044  10.692  11.275   7.556 -0.0995  0.2367  0.2337
  880YOPE   C3A13045  10.361  11.333   7.883 -0.0338  0.1026 -0.7193
  880YOPE   C4A13046  10.198  11.121   8.200 -0.0986  0.1242 -0.4099
  880YOPE   C1B13047  11.122  11.398   6.951  0.3130 -0.0549  0.3268
  880YOPE   C2B13048  11.140  11.341   7.287  0.1663 -0.0111 -0.5115
  880YOPE   D3B13049  11.104  11.345   7.809 -0.0782  0.2534  0.0748
  880YOPE   C4B13050  11.200  11.530   8.180 -0.0748  0.0503  0.0468
  881YOPE   NH313051   1.390   6.679   5.921 -0.0109 -0.0325 -0.1481
  881YOPE   PO413052   1.185   7.030   5.934 -0.3475 -0.1894  0.1636
  881YOPE   GL113053   1.023   6.906   6.282 -0.3309  0.0858 -0.2078
  881YOPE   GL213054   1.222   6.749   6.443  0.0768 -0.0194 -0.3817
  881YOPE   C1A13055   0.766   7.179   6.630  0.0780  0.2116  0.2518
  881YOPE   D2A13056   0.712   7.405   7.007  0.2226  0.0470  0.0207
  881YOPE   C3A13057   0.965   7.560   7.261  0.0040  0.0357  0.2039
  881YOPE   C4A13058   1.354   7.695   7.142 -0.2363 -0.2422 -0.0918
  881YOPE   C1B13059   1.445   6.717   6.894  0.2379  0.0742  0.2607
  881YOPE   C2B13060   1.415   6.685   7.306 -0.0856 -0.0736 -0.0123
  881YOPE   D3B13061   1.552   6.500   7.681  0.0589 -0.1438  0.1886
  881YOPE   C4B13062   1.542   6.548   8.029 -0.1224 -0.2740 -0.2547
  882YOPE   NH313063   8.101   1.177   6.192 -0.1527 -0.0875  0.1421
  882YOPE   PO413064   7.931   0.778   6.204  0.1235  0.1193  0.5145
  882YOPE   GL113065   7.988   0.928   6.665  0.0433 -0.1947 -0.1047
  882YOPE   GL213066   8.083   0.773   6.885 -0.0496 -0.0028 -0.1238
  882YOPE   C1A13067   7.993   1.363   6.834 -0.0936  0.0897 -0.2075
  882YOPE   D2A13068   8.027   1.761   6.789 -0.1259  0.3558  0.2017
  882YOPE   C3A13069   8.365   2.004   7.000 -0.0238 -0.0314 -0.3318
  882YOPE   C4A13070   8.843   2.160   7.181 -0.0010  0.0995  0.1196
  882YOPE   C1B13071   8.275   1.044   7.089 -0.2508  0.0095  0.2261
  882YOPE   C2B13072   8.047   1.204   7.379  0.0882  0.3180 -0.0798
  882YOPE   D3B13073   7.641   1.268   7.583  0.0502  0.1552 -0.0920
  882YOPE   C4B13074   7.386   1.001   7.946 -0.1859  0.1173 -0.2973
  883YOPE   NH313075  12.196   5.510   5.885  0.4712  0.1134  0.2746
  883YOPE   PO413076  11.877   5.891   5.861 -0.1914  0.1649 -0.0774
  883YOPE   GL113077  11.930   5.715   6.285 -0.0061 -0.1918  0.0005
  883YOPE   GL213078  11.819   5.371   6.427 -0.1330 -0.1234  0.1708
  883YOPE   C1A13079  12.047   5.703   6.757  0.0019 -0.1526  0.1472
  883YOPE   D2A13080  11.976   5.413   7.158  0.0309  0.1771  0.3072
  883YOPE   C3A13081  12.006   5.598   7.630  0.0718 -0.4031  0.4869
  883YOPE   C4A13082  11.892   5.760   7.952 -0.0336  0.1609  0.0650
  883YOPE   C1B13083  11.482   5.280   6.720 -0.0289 -0.1256 -0.1616
  883YOPE   C2B13084  11.106   5.403   6.894 -0.3188 -0.0986 -0.0051
  883YOPE   D3B13085  11.052   5.800   7.180  0.6113 -0.0439  0.1842
  883YOPE   C4B13086  11.393   6.162   7.263  0.5634 -0.3819 -0.1100
  884YOPE   NH313087   6.121  13.352   5.847 -0.0558  0.0562 -0.2429
  884YOPE   PO413088   6.443  13.126   6.096  0.1230  0.5218  0.0117
  884YOPE   GL113089   6.048  13.089   6.394  0.0419 -0.2811  0.1810
  884YOPE   GL213090   6.162  13.369   6.373  0.0808  0.0968 -0.2471
  884YOPE   C1A13091   6.008  12.945   6.865 -0.1509  0.0801 -0.1284
  884YOPE   D2A13092   5.586  12.884   7.132  0.0267  0.1305  0.1650
  884YOPE   C3A13093   5.407  13.253   7.301  0.1059  0.1924 -0.2885
  884YOPE   C4A13094   5.190  13.586   7.097  0.5115  0.1658  0.4807
  884YOPE   C1B13095   5.890  13.433   6.781  0.1407  0.0498  0.0538
  884YOPE   C2B13096   5.666  13.687   7.076  0.0263 -0.0404  0.0514
  884YOPE   D3B13097   5.644  13.781   7.605 -0.1486  0.2646 -0.2545
  884YOPE   C4B13098   5.761  13.984   7.870  0.2466 -0.0499 -0.2628
  885YOPE   NH313099   2.515  14.859   5.823  0.0331 -0.0476  0.3060
  885YOPE   PO413100   2.548  15.119   5.514 -0.2099 -0.0397 -0.0806
  885YOPE   GL113101   2.589  15.295   5.969 -0.1357  0.1643  0.3703
  885YOPE   GL213102   2.308  15.535   6.037 -0.1853  0.0150  0.0900
  885YOPE   C1A13103   2.318  15.156   6.382  0.2247  0.3783  0.2031
  885YOPE   D2A13104   2.279  14.814   6.789  0.2991  0.0706  0.1690
  885YOPE   C3A13105   2.301  14.425   6.666  0.0075 -0.0539  0.2476
  885YOPE   C4A13106   2.503  14.014   6.636  0.1282 -0.0363 -0.2583
  885YOPE   C1B13107   2.176  15.686   6.371  0.1932 -0.0468 -0.1944
  885YOPE   C2B13108   2.227  16.037   6.722  0.1084  0.1802  0.1394
  885YOPE   D3B13109   2.070  16.072   7.037  0.0604  0.4533 -0.1480
  885YOPE   C4B13110   1.949  16.458   7.260  0.1894  0.0089  0.0526
  886YOPE   NH313111   2.535   8.132   5.872 -0.0681  0.0152  0.2257
  886YOPE   PO413112   2.753   7.793   5.948 -0.0982 -0.0080  0.0706
  886YOPE   GL113113   2.746   8.072   6.300 -0.1713 -0.4051 -0.2668
  886YOPE   GL213114   2.473   8.159   6.361 -0.0921 -0.1683  0.0147
  886YOPE   C1A13115   3.108   8.174   6.504  0.1276 -0.1915  0.1789
  886YOPE   D2A13116   3.136   8.441   6.821 -0.0240  0.1822  0.3464
  886YOPE   C3A13117   3.120   8.351   7.269 -0.0606  0.0546  0.3789
  886YOPE   C4A13118   3.239   8.005   7.561  0.0257 -0.3577 -0.1820
  886YOPE   C1B13119   2.698   8.056   6.806 -0.3536 -0.0841  0.5067
  886YOPE   C2B13120   2.594   8.325   7.113  0.2648 -0.1574  0.2737
  886YOPE   D3B13121   2.668   8.562   7.483 -0.2920  0.0309 -0.0150
  886YOPE   C4B13122   2.745   8.801   7.940 -0.1045 -0.0700 -0.0562
  887YOPE   NH313123   4.005   8.458   6.154 -0.0854 -0.0796 -0.1000
  887YOPE   PO413124   4.012   8.053   6.015 -0.5243  0.1116 -0.0571
  887YOPE   GL113125   3.891   7.986   6.362 -0.1874 -0.0391 -0.1275
  887YOPE   GL213126   3.595   7.965   6.380 -0.0697  0.0279 -0.3108
  887YOPE   C1A13127   4.041   7.858   6.710 -0.1551  0.2496 -0.0216
  887YOPE   D2A13128   4.074   7.716   7.127  0.0819 -0.0096  0.0928
  887YOPE   C3A13129   4.079   7.509   7.533 -0.0822 -0.0112  0.2934
  887YOPE   C4A13130   4.204   7.274   7.938  0.1713 -0.0510 -0.2346
  887YOPE   C1B13131   3.488   8.099   6.754 -0.0454  0.0555  0.1893
  887YOPE   C2B13132   3.597   8.131   7.144 -0.2119  0.0614 -0.3305
  887YOPE   D3B13133   3.889   8.056   7.449 -0.1619  0.1483  0.2517
  887YOPE   C4B13134   4.291   8.361   7.496 -0.2560 -0.0460 -0.0796
  888YOPE   NH313135   7.819   6.639   6.148 -0.0741  0.1857 -0.1350
  888YOPE   PO413136   7.814   6.243   6.220 -0.0626 -0.0747  0.2378
  888YOPE   GL113137   7.626   6.204   6.583 -0.0509 -0.2105 -0.3442
  888YOPE   GL213138   7.311   6.148   6.527  0.0156  0.0250  0.1531
  888YOPE   C1A13139   7.495   6.078   7.092  0.1812 -0.0063 -0.2061
  888YOPE   D2A13140   7.522   6.009   7.527 -0.1728  0.1793  0.1624
  888YOPE   C3A13141   7.230   5.609   7.784  0.3454 -0.0744 -0.0898
  888YOPE   C4A13142   7.041   5.276   8.004 -0.2673  0.1810 -0.2631
  888YOPE   C1B13143   7.222   6.440   6.911 -0.0645 -0.1774  0.0336
  888YOPE   C2B13144   7.288   6.583   7.207 -0.0487 -0.3514 -0.2395
  888YOPE   D3B13145   7.323   6.490   7.639  0.0137 -0.1760  0.2207
  888YOPE   C4B13146   7.587   6.592   7.959 -0.2054 -0.3480  0.3042
  889YOPE   NH313147   6.151  14.209   5.875  0.0902 -0.0044  0.2747
  889YOPE   PO413148   6.425  14.648   5.657 -0.0999 -0.2426 -0.3607
  889YOPE   GL113149   6.472  14.580   6.087 -0.1873 -0.0291 -0.2219
  889YOPE   GL213150   6.784  14.588   6.221  0.1741 -0.2309 -0.3747
  889YOPE   C1A13151   6.489  14.865   6.454  0.1091  0.2328 -0.1452
  889YOPE   D2A13152   6.433  14.960   6.854  0.0821  0.1082 -0.0574
  889YOPE   C3A13153   6.702  15.109   7.071 -0.0959  0.0096  0.1288
  889YOPE   C4A13154   6.687  15.311   7.480  0.0736  0.0238  0.0125
  889YOPE   C1B13155   6.993  14.484   6.628 -0.2069  0.0723 -0.0666
  889YOPE   C2B13156   7.186  14.376   6.960 -0.0704 -0.0696  0.1433
  889YOPE   D3B13157   7.514  14.532   7.120 -0.2013  0.2619 -0.0905
  889YOPE   C4B13158   7.552  14.895   7.326 -0.2272  0.1839  0.1681
  890YOPE   NH313159   7.162  16.571   5.997  0.1917 -0.0651  0.2308
  890YOPE   PO413160   6.735  16.462   5.957  0.1611 -0.2219 -0.0950
  890YOPE   GL113161   6.732  16.590   6.315 -0.1180  0.0029  0.2545
  890YOPE   GL213162   6.907  16.335   6.426 -0.4321  0.0379  0.2055
  890YOPE   C1A13163   6.517  16.962   6.577 -0.2652  0.0360  0.3044
  890YOPE   D2A13164   6.598  16.930   6.911  0.2028  0.1332 -0.1653
  890YOPE   C3A13165   6.399  16.882   7.268  0.2067 -0.0051 -0.1010
  890YOPE   C4A13166   6.365  16.734   7.671  0.1991  0.0943 -0.1638
  890YOPE   C1B13167   6.660  16.458   6.819  0.1903  0.1657  0.0514
  890YOPE   C2B13168   6.423  16.406   7.200 -0.0350 -0.1328  0.0092
  890YOPE   D3B13169   6.250  16.134   7.497 -0.1055  0.1364  0.1293
  890YOPE   C4B13170   5.836  16.064   7.596  0.1192  0.0033 -0.2051
  891YOPE   NH313171  15.398   3.826   5.980 -0.2303  0.0200 -0.1843
  891YOPE   PO413172  15.890   3.619   5.940 -0.2379  0.0468 -0.1225
  891YOPE   GL113173  15.789   3.380   6.303 -0.0388  0.1406 -0.0569
  891YOPE   GL213174  16.089   3.228   6.327 -0.1168 -0.2104  0.0343
  891YOPE   C1A13175  15.670   3.050   6.531  0.2120  0.0152 -0.2792
  891YOPE   D2A13176  15.775   2.995   6.884  0.0967  0.1891  0.2480
  891YOPE   C3A13177  15.642   2.884   7.313 -0.2467 -0.1364  0.2818
  891YOPE   C4A13178  15.484   2.889   7.809  0.0413 -0.2022  0.1435
  891YOPE   C1B13179  16.206   3.001   6.562 -0.1275 -0.0840  0.1415
  891YOPE   C2B13180  16.248   2.793   6.884 -0.2887 -0.2186  0.3746
  891YOPE   D3B13181  16.442   2.692   7.236  0.1117  0.1422  0.0323
  891YOPE   C4B13182  16.641   2.575   7.647  0.1192 -0.1707  0.0435
  892YOPE   NH313183  18.121  11.482   5.699 -0.3206 -0.1961  0.0879
  892YOPE   PO413184  17.621  11.430   5.711 -0.0796  0.1104  0.2687
  892YOPE   GL113185  17.966  11.204   6.085 -0.1869 -0.1745 -0.0918
  892YOPE   GL213186  18.036  11.419   6.394  0.0947  0.1960  0.2484
  892YOPE   C1A13187  18.378  11.097   6.294  0.1471  0.0555 -0.1048
  892YOPE   D2A13188  18.795  11.093   6.409  0.5325  0.0481 -0.0636
  892YOPE   C3A13189  18.886  11.077   6.795 -0.5878 -0.1522 -0.0409
  892YOPE   C4A13190  19.290  11.161   6.740  0.1164  0.1782  0.0414
  892YOPE   C1B13191  18.056  11.516   6.821  0.1239  0.5513 -0.0590
  892YOPE   C2B13192  18.223  11.538   7.289  0.0990 -0.2504  0.0943
  892YOPE   D3B13193  18.544  11.586   7.650  0.0979  0.0750 -0.1157
  892YOPE   C4B13194  18.750  11.847   7.800  0.1222  0.2484 -0.0145
  893YOPE   NH313195   9.859   9.314   6.394 -0.1528  0.2990 -0.0701
  893YOPE   PO413196  10.067   9.718   6.499  0.3467  0.1773  0.2839
  893YOPE   GL113197  10.001   9.477   6.866  0.3100 -0.0268 -0.0711
  893YOPE   GL213198  10.036   9.174   6.932  0.1867 -0.0228  0.3943
  893YOPE   C1A13199  10.000   9.514   7.295  0.0170 -0.1153 -0.4589
  893YOPE   D2A13200  10.318   9.581   7.605 -0.1631 -0.1532  0.0066
  893YOPE   C3A13201  10.470   9.998   7.847  0.2034  0.2118 -0.2637
  893YOPE   C4A13202  10.634  10.087   8.316  0.0348  0.1157  0.1009
  893YOPE   C1B13203   9.754   8.858   7.034 -0.1515 -0.2410  0.0320
  893YOPE   C2B13204   9.860   8.590   7.340  0.1056 -0.6277 -0.2804
  893YOPE   D3B13205  10.224   8.457   7.658 -0.0064 -0.1733  0.0516
  893YOPE   C4B13206  10.500   8.257   7.927 -0.0782 -0.0304 -0.1757
  894YOPE   NH313207  13.274  15.785   6.064  0.2626 -0.0038 -0.4153
  894YOPE   PO413208  13.068  15.416   6.144  0.0408  0.2545 -0.0173
  894YOPE   GL113209  13.014  15.409   6.553  0.0388 -0.0997 -0.2066
  894YOPE   GL213210  12.971  15.073   6.554 -0.0573  0.0762  0.0438
  894YOPE   C1A13211  12.914  15.199   7.020  0.1372 -0.0293  0.0246
  894YOPE   D2A13212  12.846  15.214   7.453  0.3032 -0.0115 -0.0032
  894YOPE   C3A13213  12.579  15.302   7.738  0.0219  0.2430  0.0009
  894YOPE   C4A13214  12.427  15.447   8.110 -0.2763 -0.1409 -0.1977
  894YOPE   C1B13215  13.357  15.147   6.899  0.2108  0.1159  0.0928
  894YOPE   C2B13216  13.415  15.184   7.345 -0.1023 -0.1405 -0.0181
  894YOPE   D3B13217  13.222  14.986   7.736 -0.2556 -0.0809 -0.2893
  894YOPE   C4B13218  13.366  15.124   8.235  0.1326  0.0960 -0.0205
  895YOPE   NH313219  13.946  15.760   6.079 -0.0341 -0.1841  0.1012
  895YOPE   PO413220  13.683  16.179   6.064  0.1771  0.2616  0.1076
  895YOPE   GL113221  13.571  16.015   6.413  0.0023 -0.2653 -0.0319
  895YOPE   GL213222  13.567  15.686   6.460 -0.5042 -0.0607  0.1706
  895YOPE   C1A13223  13.620  16.107   6.796  0.3606  0.1746  0.1304
  895YOPE   D2A13224  13.735  16.193   7.191 -0.0041  0.0562  0.1924
  895YOPE   C3A13225  13.299  16.503   7.451  0.0216 -0.2091 -0.0057
  895YOPE   C4A13226  12.945  16.469   7.732  0.0725 -0.2045 -0.3633
  895YOPE   C1B13227  13.340  15.650   6.810  0.4015  0.1096 -0.0540
  895YOPE   C2B13228  13.249  15.631   7.227 -0.2066 -0.0812 -0.0470
  895YOPE   D3B13229  13.441  15.867   7.625  0.3966  0.0116  0.1665
  895YOPE   C4B13230  13.521  16.184   7.965 -0.4081 -0.2168 -0.1136
  896YOPE   NH313231  13.944   2.595   6.010 -0.0569 -0.0428  0.1667
  896YOPE   PO413232  13.985   2.292   6.173 -0.4285  0.1806  0.0067
  896YOPE   GL113233  13.988   2.511   6.494 -0.1121 -0.0121 -0.0691
  896YOPE   GL213234  14.245   2.528   6.700  0.0818  0.0365  0.1236
  896YOPE   C1A13235  13.828   2.658   6.916  0.0795  0.0016  0.1030
  896YOPE   D2A13236  13.709   2.710   7.390 -0.2808 -0.0657 -0.1656
  896YOPE   C3A13237  13.652   3.124   7.552 -0.2436  0.4016  0.1736
  896YOPE   C4A13238  13.350   3.547   7.593 -0.2856 -0.2709 -0.0192
  896YOPE   C1B13239  14.321   2.593   7.093  0.4432 -0.2232 -0.1271
  896YOPE   C2B13240  14.296   2.450   7.495  0.1164  0.2449  0.1900
  896YOPE   D3B13241  14.758   2.277   7.650 -0.1855 -0.1009  0.2255
  896YOPE   C4B13242  15.208   2.018   7.815 -0.3554  0.0996 -0.0423
  897YOPE   NH313243   4.851   2.196   5.927  0.2162  0.1244 -0.0243
  897YOPE   PO413244   4.724   2.605   5.750  0.0593  0.1334  0.0289
  897YOPE   GL113245   4.665   2.631   6.128  0.0057 -0.0886  0.1911
  897YOPE   GL213246   4.460   2.298   6.217 -0.1814 -0.1156  0.0368
  897YOPE   C1A13247   4.741   2.676   6.477  0.0104  0.3119  0.2476
  897YOPE   D2A13248   4.675   2.983   6.782 -0.1064  0.2393  0.1725
  897YOPE   C3A13249   4.748   3.076   7.215 -0.2488 -0.0764  0.0002
  897YOPE   C4A13250   4.675   2.853   7.572 -0.1749  0.0858 -0.2519
  897YOPE   C1B13251   4.239   2.146   6.565  0.4464  0.0506  0.0238
  897YOPE   C2B13252   4.304   1.840   6.805 -0.0319  0.3944  0.1240
  897YOPE   D3B13253   4.280   1.607   7.235  0.1882 -0.1278  0.0266
  897YOPE   C4B13254   4.252   1.645   7.689  0.5837  0.1952 -0.1198
  898YOPE   NH313255  12.831  11.845   6.235 -0.0230 -0.1449  0.4098
  898YOPE   PO413256  12.501  12.056   6.325 -0.0588  0.2267 -0.1261
  898YOPE   GL113257  12.792  12.086   6.662 -0.0287 -0.1425 -0.2079
  898YOPE   GL213258  12.808  12.379   6.857  0.2151  0.0155 -0.4370
  898YOPE   C1A13259  12.786  11.910   7.058  0.1447 -0.0331  0.0490
  898YOPE   D2A13260  12.922  11.532   7.358  0.0754  0.1964  0.1296
  898YOPE   C3A13261  12.804  11.438   7.871 -0.3961  0.0450  0.1018
  898YOPE   C4A13262  12.636  11.336   8.271  0.1390 -0.1803  0.1940
  898YOPE   C1B13263  12.675  12.521   7.329  0.2989 -0.1688 -0.1319
  898YOPE   C2B13264  12.680  12.641   7.656  0.0996 -0.2317  0.0277
  898YOPE   D3B13265  12.653  12.694   7.970  0.0038  0.1184 -0.0272
  898YOPE   C4B13266  12.315  12.753   8.245  0.4012  0.0345  0.0509
  899YOPE   NH313267   6.094   4.416   6.233 -0.0414 -0.0846 -0.0931
  899YOPE   PO413268   5.744   4.315   5.971  0.1819  0.0512  0.1570
  899YOPE   GL113269   5.700   4.146   6.388 -0.0261 -0.0284 -0.4118
  899YOPE   GL213270   5.927   4.191   6.621 -0.0734 -0.2573 -0.1015
  899YOPE   C1A13271   5.584   3.887   6.826  0.0920  0.2849 -0.0960
  899YOPE   D2A13272   5.406   3.849   7.236  0.0055 -0.0914  0.0030
  899YOPE   C3A13273   5.411   4.162   7.545 -0.0361  0.1754 -0.1332
  899YOPE   C4A13274   5.093   4.537   7.679 -0.0146 -0.0173  0.0799
  899YOPE   C1B13275   5.821   4.355   6.951 -0.1047  0.1162  0.1563
  899YOPE   C2B13276   5.764   4.491   7.459 -0.0313 -0.0475  0.1075
  899YOPE   D3B13277   5.925   4.709   7.757 -0.3573  0.0750 -0.1443
  899YOPE   C4B13278   6.242   4.886   7.901  0.0582  0.1018  0.3574
  900YOPE   NH313279  14.814  11.383   6.166 -0.1998 -0.1554  0.2622
  900YOPE   PO413280  14.761  10.995   5.885  0.0109  0.0272  0.5001
  900YOPE   GL113281  14.599  10.953   6.385  0.3040 -0.2140 -0.0834
  900YOPE   GL213282  14.900  11.087   6.576  0.2088  0.1560 -0.0090
  900YOPE   C1A13283  14.422  10.578   6.684 -0.0884 -0.1393  0.2867
  900YOPE   D2A13284  14.446  10.340   7.152 -0.4623 -0.0160  0.2236
  900YOPE   C3A13285  14.620  10.571   7.275  0.0156  0.2257 -0.1694
  900YOPE   C4A13286  14.666  10.728   7.654  0.0722  0.1290 -0.2482
  900YOPE   C1B13287  14.841  10.881   6.928 -0.1226 -0.1012 -0.4445
  900YOPE   C2B13288  15.042  10.895   7.308  0.1181 -0.4402  0.0577
  900YOPE   D3B13289  15.277  10.700   7.542  0.2669  0.0732  0.1351
  900YOPE   C4B13290  15.258  10.233   7.551 -0.1841 -0.1099  0.1705
  901YOPE   NH313291  11.662   4.892   6.189 -0.1039  0.0605  0.1174
  901YOPE   PO413292  11.275   5.172   5.967 -0.2601  0.1074 -0.0806
  901YOPE   GL113293  11.321   5.537   6.290 -0.2813 -0.0169 -0.1888
  901YOPE   GL213294  10.945   5.465   6.328 -0.0309 -0.2383  0.3629
  901YOPE   C1A13295  11.441   5.728   6.618 -0.1122 -0.3060 -0.1259
  901YOPE   D2A13296  11.615   5.774   7.056  0.0124  0.1090 -0.0135
  901YOPE   C3A13297  11.482   5.704   7.436  0.0982 -0.0237  0.2655
  901YOPE   C4A13298  11.154   5.902   7.659 -0.1790  0.0804  0.1070
  901YOPE   C1B13299  10.730   5.196   6.590 -0.0956  0.1895  0.0517
  901YOPE   C2B13300  10.575   4.953   6.978  0.1523 -0.0799  0.2624
  901YOPE   D3B13301  10.680   4.821   7.387  0.1185  0.2017 -0.3414
  901YOPE   C4B13302  10.961   4.926   7.650 -0.1425 -0.1187 -0.3863
  902YOPE   NH313303  14.288  10.731   6.054 -0.0241  0.0639 -0.1662
  902YOPE   PO413304  14.382  10.337   5.955  0.2428 -0.2811  0.0843
  902YOPE   GL113305  14.531  10.108   6.308 -0.0533 -0.1458 -0.0995
  902YOPE   GL213306  14.863  10.060   6.525 -0.0719  0.2104 -0.2238
  902YOPE   C1A13307  14.292  10.104   6.716  0.0377 -0.2164 -0.0095
  902YOPE   D2A13308  13.864  10.017   6.837 -0.2209  0.1423  0.0882
  902YOPE   C3A13309  13.755   9.603   6.740  0.0827  0.1422 -0.2943
  902YOPE   C4A13310  13.437   9.514   6.532  0.2127 -0.2052 -0.0282
  902YOPE   C1B13311  14.805  10.284   6.841 -0.0332  0.2185 -0.0490
  902YOPE   C2B13312  15.106  10.407   7.085 -0.1718 -0.2538  0.2630
  902YOPE   D3B13313  15.580  10.426   7.005  0.2047  0.2024  0.1762
  902YOPE   C4B13314  15.954  10.609   6.923 -0.0982 -0.3195  0.2547
  903YOPE   NH313315   8.081   3.193   6.274 -0.1855  0.4738  0.1578
  903YOPE   PO413316   7.574   3.284   6.289 -0.0719  0.0206 -0.0149
  903YOPE   GL113317   7.246   3.387   6.627  0.2802 -0.1589 -0.0782
  903YOPE   GL213318   7.295   3.120   6.674 -0.0408  0.1654 -0.2770
  903YOPE   C1A13319   7.074   3.566   6.928 -0.0405  0.0950  0.2088
  903YOPE   D2A13320   7.049   3.898   7.191  0.0194 -0.0598  0.2269
  903YOPE   C3A13321   6.936   3.922   7.549 -0.1980 -0.1002  0.0127
  903YOPE   C4A13322   7.220   3.699   7.894 -0.0283 -0.0233  0.0812
  903YOPE   C1B13323   7.209   3.018   7.098  0.0566  0.1365  0.1013
  903YOPE   C2B13324   7.360   2.949   7.580 -0.3046 -0.4423 -0.1610
  903YOPE   D3B13325   7.127   2.902   7.978  0.1975  0.0241 -0.2605
  903YOPE   C4B13326   7.237   2.520   8.301  0.0323  0.1411  0.2567
  904YOPE   NH313327   5.443  13.817   5.529  0.2567 -0.2285 -0.1682
  904YOPE   PO413328   5.567  13.607   5.969 -0.0546  0.2342  0.2077
  904YOPE   GL113329   5.378  13.581   6.419 -0.0915  0.3000 -0.2519
  904YOPE   GL213330   5.056  13.450   6.508 -0.1848  0.0290 -0.1120
  904YOPE   C1A13331   5.265  13.870   6.715  0.0604  0.0245 -0.0010
  904YOPE   D2A13332   5.294  14.074   7.107 -0.0407 -0.0151  0.4033
  904YOPE   C3A13333   5.176  14.037   7.553 -0.0566  0.3728 -0.1526
  904YOPE   C4A13334   5.248  14.112   8.022 -0.2464  0.2829 -0.1141
  904YOPE   C1B13335   4.755  13.430   6.756  0.0496  0.1439  0.1891
  904YOPE   C2B13336   4.506  13.484   7.136  0.1277 -0.2000  0.3963
  904YOPE   D3B13337   4.288  13.445   7.507 -0.0383  0.0005 -0.1124
  904YOPE   C4B13338   4.177  13.375   8.029  0.3772 -0.0576  0.0009
  905YOPE   NH313339  11.431   0.166   6.131 -0.0188  0.2337 -0.0097
  905YOPE   PO413340  11.883   0.056   6.161 -0.0818  0.0637 -0.2939
  905YOPE   GL113341  11.915   0.086   6.575 -0.0394 -0.1077 -0.0941
  905YOPE   GL213342  11.735   0.315   6.693 -0.1326  0.0179 -0.1357
  905YOPE   C1A13343  11.886   0.013   7.075  0.0515  0.0161  0.0275
  905YOPE   D2A13344  12.034   0.139   7.451  0.0974 -0.0831  0.0100
  905YOPE   C3A13345  11.926   0.374   7.685  0.0460  0.1663 -0.1530
  905YOPE   C4A13346  11.640   0.724   7.735 -0.3255  0.0548 -0.1481
  905YOPE   C1B13347  12.203   0.382   6.883 -0.4172  0.1321  0.4044
  905YOPE   C2B13348  12.459   0.052   7.190  0.0252 -0.5609  0.1263
  905YOPE   D3B13349  12.297  -0.297   7.336 -0.2088 -0.1693  0.0513
  905YOPE   C4B13350  12.282  -0.590   7.732 -0.1297 -0.3433 -0.0350
  906YOPE   NH313351  17.575   8.143   5.881 -0.0302 -0.2339 -0.4771
  906YOPE   PO413352  17.340   7.765   6.054  0.2030 -0.0680  0.0709
  906YOPE   GL113353  17.644   7.940   6.312  0.0673 -0.2961 -0.5964
  906YOPE   GL213354  17.706   8.334   6.330 -0.0267  0.1972 -0.0427
  906YOPE   C1A13355  17.853   7.877   6.683  0.1343 -0.0528  0.1528
  906YOPE   D2A13356  18.033   8.014   6.985 -0.0577 -0.2295 -0.0809
  906YOPE   C3A13357  17.944   7.913   7.292 -0.0518  0.1550 -0.3049
  906YOPE   C4A13358  17.924   8.176   7.650 -0.1610  0.2264  0.4079
  906YOPE   C1B13359  17.680   8.376   6.794  0.2034  0.0488  0.1990
  906YOPE   C2B13360  17.547   8.099   7.080 -0.1253  0.0730 -0.0913
  906YOPE   D3B13361  17.394   8.181   7.466  0.0016 -0.3898 -0.0214
  906YOPE   C4B13362  17.505   8.504   7.776 -0.2081 -0.3404 -0.4160
  907YOPE   NH313363  16.828   9.492   5.906  0.5198 -0.1130  0.0339
  907YOPE   PO413364  17.054   9.924   5.836 -0.3113 -0.2557  0.1998
  907YOPE   GL113365  17.124   9.736   6.252  0.1120  0.1523  0.1605
  907YOPE   GL213366  16.889   9.862   6.423 -0.1427 -0.1717  0.0348
  907YOPE   C1A13367  17.356   9.615   6.617 -0.0310  0.3660 -0.3134
  907YOPE   D2A13368  17.279   9.577   7.030  0.3486 -0.1324  0.3319
  907YOPE   C3A13369  17.220   9.793   7.426 -0.2973  0.0619  0.2460
  907YOPE   C4A13370  17.252   9.810   7.814  0.0589  0.2513 -0.0607
  907YOPE   C1B13371  16.830   9.854   6.866  0.1623  0.1211  0.2400
  907YOPE   C2B13372  16.785   9.675   7.227  0.0550  0.0125  0.0009
  907YOPE   D3B13373  16.726   9.874   7.618  0.1080 -0.2402  0.3468
  907YOPE   C4B13374  16.456  10.216   7.585 -0.1851 -0.1026  0.3769
  908YOPE   NH313375  12.101  14.461   6.082 -0.3734  0.0930  0.3791
  908YOPE   PO413376  12.218  14.156   6.314  0.1904  0.1433 -0.0280
  908YOPE   GL113377  12.350  14.100   6.651 -0.0429  0.3172  0.0624
  908YOPE   GL213378  12.698  14.150   6.577 -0.0847  0.1069 -0.0802
  908YOPE   C1A13379  12.387  14.312   7.070  0.1329 -0.2595  0.2553
  908YOPE   D2A13380  12.239  14.202   7.470  0.0762 -0.0432 -0.0035
  908YOPE   C3A13381  12.268  13.915   7.872 -0.3290 -0.1081 -0.2015
  908YOPE   C4A13382  12.062  13.830   8.200  0.0058 -0.0929  0.3946
  908YOPE   C1B13383  12.890  14.233   6.975 -0.1929  0.1092  0.0929
  908YOPE   C2B13384  12.812  14.221   7.377 -0.0806  0.0092  0.1652
  908YOPE   D3B13385  12.659  14.199   7.790  0.0259 -0.6995  0.0357
  908YOPE   C4B13386  12.741  14.081   8.208  0.1629 -0.2216  0.0471
  909YOPE   NH313387  12.779   0.629   6.062 -0.1109  0.1882 -0.1924
  909YOPE   PO413388  12.696   0.193   5.910  0.0079 -0.0496 -0.0907
  909YOPE   GL113389  12.696   0.183   6.371 -0.2361  0.0359  0.1552
  909YOPE   GL213390  12.683  -0.161   6.491 -0.1454  0.1138 -0.0979
  909YOPE   C1A13391  12.680   0.212   6.804  0.0518  0.0448 -0.1868
  909YOPE   D2A13392  12.970   0.282   7.083  0.1229  0.1051  0.2092
  909YOPE   C3A13393  12.894   0.166   7.516  0.0254 -0.3412 -0.5109
  909YOPE   C4A13394  12.963   0.395   7.805 -0.2913 -0.0670 -0.0044
  909YOPE   C1B13395  12.248  -0.185   6.779 -0.1349  0.1081 -0.1113
  909YOPE   C2B13396  12.028  -0.509   6.927 -0.1079  0.1788 -0.0718
  909YOPE   D3B13397  12.197  -1.008   6.886 -0.0975  0.1895  0.1822
  909YOPE   C4B13398  12.401  -1.266   7.191 -0.1585 -0.2557 -0.1695
  910YOPE   NH313399   1.163  13.607   5.452  0.1770  0.2153  0.2213
  910YOPE   PO413400   1.538  13.735   5.545 -0.0447 -0.0746 -0.1251
  910YOPE   GL113401   1.492  13.896   5.911 -0.2329 -0.4030  0.1478
  910YOPE   GL213402   1.713  13.990   6.211  0.0385  0.0047  0.1007
  910YOPE   C1A13403   1.323  13.781   6.301  0.0966 -0.1806 -0.1068
  910YOPE   D2A13404   1.105  13.700   6.599  0.2073  0.0388  0.3541
  910YOPE   C3A13405   1.165  13.376   6.935  0.0017 -0.0230  0.2112
  910YOPE   C4A13406   1.521  13.116   7.187  0.2948  0.2081 -0.0433
  910YOPE   C1B13407   1.688  14.045   6.602  0.1032 -0.0117  0.1921
  910YOPE   C2B13408   1.421  13.872   6.957 -0.0345 -0.1959  0.1427
  910YOPE   D3B13409   1.256  13.633   7.454  0.2312 -0.1588  0.0663
  910YOPE   C4B13410   1.366  13.756   7.841  0.2287 -0.1118  0.1438
  911YOPE   NH313411   8.288   0.415   6.200  0.2860  0.5967  0.1261
  911YOPE   PO413412   8.633   0.552   6.175  0.3349 -0.0523  0.0199
  911YOPE   GL113413   8.443   0.527   6.659 -0.2005 -0.0211  0.1657
  911YOPE   GL213414   8.686   0.732   6.660  0.4837  0.0441  0.0036
  911YOPE   C1A13415   8.464   0.544   7.095  0.1330 -0.0870 -0.2535
  911YOPE   D2A13416   8.210   0.757   7.456  0.2867  0.0730  0.3751
  911YOPE   C3A13417   8.378   0.712   7.926  0.0267  0.0995  0.0652
  911YOPE   C4A13418   8.729   0.968   8.073  0.2682  0.3079 -0.1973
  911YOPE   C1B13419   9.109   0.731   6.716  0.3815  0.0375 -0.1427
  911YOPE   C2B13420   9.530   0.451   6.833  0.2891 -0.2050 -0.0577
  911YOPE   D3B13421   9.749   0.158   6.810 -0.0085 -0.1783 -0.0758
  911YOPE   C4B13422   9.516  -0.255   6.949 -0.0946  0.0790  0.0935
  912YOPE   NH313423  14.048   8.896   6.282 -0.0338 -0.2316 -0.0823
  912YOPE   PO413424  13.597   8.902   6.345  0.4315 -0.1586  0.2274
  912YOPE   GL113425  13.737   9.129   6.680 -0.1410 -0.1843  0.0323
  912YOPE   GL213426  13.512   9.088   6.805 -0.0352 -0.0511 -0.0257
  912YOPE   C1A13427  13.821   9.289   7.120  0.1800 -0.0125  0.0288
  912YOPE   D2A13428  13.738   9.653   7.266 -0.1324 -0.0657  0.0946
  912YOPE   C3A13429  13.513   9.683   7.649 -0.1974 -0.4490 -0.0144
  912YOPE   C4A13430  13.341   9.761   8.006 -0.0460  0.2832  0.0624
  912YOPE   C1B13431  13.542   8.757   7.103  0.0684  0.0172  0.2219
  912YOPE   C2B13432  13.709   8.548   7.463  0.0788 -0.1217 -0.2389
  912YOPE   D3B13433  13.608   8.209   7.672  0.1089 -0.0756  0.1902
  912YOPE   C4B13434  13.527   7.837   7.877 -0.2734  0.1093 -0.1204
  913YOPE   NH313435  16.508  10.131   6.146 -0.4440 -0.0926 -0.1772
  913YOPE   PO413436  16.431   9.782   5.905 -0.2414  0.4254  0.3675
  913YOPE   GL113437  16.355   9.674   6.301 -0.0183 -0.1121  0.0932
  913YOPE   GL213438  16.609   9.456   6.435  0.0603 -0.2336 -0.2318
  913YOPE   C1A13439  16.259   9.859   6.673 -0.1785  0.2576  0.1239
  913YOPE   D2A13440  16.367  10.075   7.090 -0.1967  0.1414 -0.0059
  913YOPE   C3A13441  16.042  10.294   7.275 -0.0007 -0.2009  0.1750
  913YOPE   C4A13442  15.814  10.632   7.424 -0.1055  0.0374  0.1059
  913YOPE   C1B13443  16.485   9.448   6.883  0.0219 -0.2405  0.4197
  913YOPE   C2B13444  16.291   9.583   7.193 -0.2944  0.2332 -0.1515
  913YOPE   D3B13445  16.219   9.699   7.542 -0.2130 -0.1195 -0.0092
  913YOPE   C4B13446  16.022   9.928   7.876  0.1500 -0.0065  0.7806
  914YOPE   NH313447   7.575  11.784   6.244  0.0868 -0.0424  0.1665
  914YOPE   PO413448   7.963  11.804   6.419  0.1965 -0.0104  0.2318
  914YOPE   GL113449   7.668  11.600   6.722  0.0397  0.2430 -0.0992
  914YOPE   GL213450   7.748  11.838   6.918 -0.1559 -0.0099  0.2404
  914YOPE   C1A13451   7.718  11.249   7.064 -0.0523 -0.1795  0.0823
  914YOPE   D2A13452   7.822  10.982   7.432  0.0673  0.2246  0.0573
  914YOPE   C3A13453   7.834  11.121   7.882 -0.0712  0.0966  0.0258
  914YOPE   C4A13454   7.951  11.215   8.258 -0.0244  0.2114  0.0275
  914YOPE   C1B13455   7.786  11.622   7.393 -0.0064 -0.1662  0.5050
  914YOPE   C2B13456   7.474  11.505   7.517  0.0827  0.1456 -0.4540
  914YOPE   D3B13457   7.114  11.469   7.680 -0.1947 -0.2899 -0.2605
  914YOPE   C4B13458   6.771  11.227   7.810  0.2507 -0.2358  0.0752
  915YOPE   NH313459   6.095   3.995   5.822 -0.2162  0.3693  0.1411
  915YOPE   PO413460   6.230   3.543   5.974  0.1101  0.0733  0.0280
  915YOPE   GL113461   6.376   3.455   6.429 -0.0577 -0.2295  0.1287
  915YOPE   GL213462   6.754   3.463   6.385  0.1113 -0.1515 -0.0622
  915YOPE   C1A13463   6.202   3.303   6.864 -0.0702  0.2045  0.2585
  915YOPE   D2A13464   5.967   3.216   7.182  0.0574 -0.0259  0.1420
  915YOPE   C3A13465   6.061   2.922   7.494  0.1317  0.2483 -0.1164
  915YOPE   C4A13466   5.954   2.908   7.816  0.4863  0.1630 -0.2653
  915YOPE   C1B13467   6.716   3.244   6.802 -0.1346  0.0999  0.1727
  915YOPE   C2B13468   6.615   3.051   7.157  0.0525  0.1446 -0.1074
  915YOPE   D3B13469   6.595   2.991   7.570 -0.1862 -0.1536  0.1553
  915YOPE   C4B13470   6.464   2.925   7.906  0.2394 -0.3129  0.0003
  916YOPE   NH313471   0.747  15.461   5.811  0.0506  0.0718 -0.0553
  916YOPE   PO413472   1.227  15.392   5.944  0.3165  0.1964 -0.0010
  916YOPE   GL113473   1.396  15.006   6.044  0.0104 -0.1065  0.2679
  916YOPE   GL213474   1.236  14.925   6.235  0.0129  0.0513  0.3918
  916YOPE   C1A13475   1.795  14.954   6.348 -0.1113  0.0123  0.1203
  916YOPE   D2A13476   1.997  15.213   6.744  0.1880 -0.0775 -0.0759
  916YOPE   C3A13477   1.860  14.817   7.070  0.4740  0.0998  0.1296
  916YOPE   C4A13478   1.630  14.659   7.503  0.0274  0.2013 -0.0098
  916YOPE   C1B13479   1.325  15.107   6.638 -0.0208  0.0569 -0.2533
  916YOPE   C2B13480   1.375  15.064   7.082 -0.2838 -0.1195  0.4308
  916YOPE   D3B13481   1.232  15.144   7.502 -0.1539  0.0530  0.0093
  916YOPE   C4B13482   1.597  15.126   7.781  0.3957 -0.2286  0.1312
  917YOPE   NH313483  15.004  17.312   5.901  0.0478 -0.1093  0.2234
  917YOPE   PO413484  14.824  17.684   6.030  0.0601  0.2041  0.0927
  917YOPE   GL113485  14.692  17.817   6.457  0.0937  0.2814 -0.1792
  917YOPE   GL213486  14.555  17.493   6.667  0.0724  0.0075  0.2021
  917YOPE   C1A13487  14.243  17.869   6.614  0.1940 -0.3583  0.0085
  917YOPE   D2A13488  13.832  18.134   6.754 -0.3353 -0.2631  0.0963
  917YOPE   C3A13489  13.727  18.238   7.175  0.3173  0.3274  0.0360
  917YOPE   C4A13490  13.781  18.065   7.541  0.2086  0.1941 -0.0857
  917YOPE   C1B13491  14.606  17.697   7.087  0.2531 -0.1167 -0.1569
  917YOPE   C2B13492  14.553  17.876   7.428 -0.3537  0.0718 -0.0426
  917YOPE   D3B13493  14.714  18.243   7.723 -0.1499  0.0724 -0.0688
  917YOPE   C4B13494  14.567  18.350   8.214  0.3404 -0.1093  0.1448
  918YOPE   NH313495  18.125  12.397   5.667 -0.0616  0.1136  0.1360
  918YOPE   PO413496  18.202  11.969   5.670 -0.0182  0.2167  0.0304
  918YOPE   GL113497  18.118  11.932   5.987 -0.5324 -0.1777 -0.4075
  918YOPE   GL213498  17.833  11.739   6.046 -0.2295 -0.1336 -0.0119
  918YOPE   C1A13499  17.780  12.228   6.319  0.1136  0.2432  0.0789
  918YOPE   D2A13500  17.830  12.386   6.671 -0.0404  0.0070 -0.0266
  918YOPE   C3A13501  17.697  12.258   6.989 -0.0106  0.1339  0.2212
  918YOPE   C4A13502  17.481  12.199   7.337  0.2422 -0.1291  0.2258
  918YOPE   C1B13503  18.135  11.874   6.491 -0.0182 -0.1671 -0.0377
  918YOPE   C2B13504  18.044  11.953   6.802 -0.1718  0.0488  0.1099
  918YOPE   D3B13505  18.006  12.011   7.298  0.0500  0.2112 -0.3882
  918YOPE   C4B13506  18.252  12.172   7.671  0.1131 -0.0434 -0.4283
  919YOPE   NH313507   9.454  12.189   6.222 -0.2338  0.0293  0.0828
  919YOPE   PO413508   9.683  11.915   6.179  0.2154  0.0053 -0.1484
  919YOPE   GL113509   9.663  11.850   6.619  0.3976 -0.2876 -0.1637
  919YOPE   GL213510   9.564  11.507   6.648  0.2650  0.0321  0.2417
  919YOPE   C1A13511   9.758  12.021   7.076 -0.1862  0.2026 -0.0609
  919YOPE   D2A13512   9.715  11.985   7.456  0.0191 -0.0410  0.0375
  919YOPE   C3A13513   9.964  12.037   7.795 -0.3282 -0.1195  0.0585
  919YOPE   C4A13514  10.031  12.236   8.272  0.0078 -0.3163  0.3066
  919YOPE   C1B13515   9.640  11.539   7.131 -0.1802  0.0471  0.0177
  919YOPE   C2B13516   9.475  11.451   7.589 -0.0734  0.2256  0.2407
  919YOPE   D3B13517   9.111  11.371   7.892 -0.0966 -0.0069 -0.1102
  919YOPE   C4B13518   9.083  11.063   8.201 -0.0734  0.2022  0.0298
  920YOPE   NH313519  11.562  17.918   6.214 -0.1457 -0.0080  0.1102
  920YOPE   PO413520  11.594  17.485   6.054  0.1947 -0.2905 -0.3528
  920YOPE   GL113521  11.539  17.452   6.574 -0.2899  0.1497  0.0711
  920YOPE   GL213522  11.242  17.527   6.749 -0.2355  0.2631  0.1641
  920YOPE   C1A13523  11.697  17.370   6.996  0.0627  0.2314  0.1117
  920YOPE   D2A13524  11.940  17.459   7.312  0.0977 -0.0815 -0.2963
  920YOPE   C3A13525  11.821  17.394   7.672 -0.2482 -0.0265 -0.1570
  920YOPE   C4A13526  11.969  17.350   8.084  0.1543  0.1857  0.0808
  920YOPE   C1B13527  11.059  17.799   7.008 -0.0841 -0.0755  0.1404
  920YOPE   C2B13528  10.968  17.819   7.394 -0.2280 -0.2340 -0.1394
  920YOPE   D3B13529  10.744  17.864   7.656 -0.0082 -0.1233  0.0375
  920YOPE   C4B13530  10.413  17.636   7.755  0.3018 -0.4274 -0.2885
  921YOPE   NH313531   7.415   0.973   5.739  0.0033 -0.1771 -0.1703
  921YOPE   PO413532   7.496   0.540   5.982  0.0085 -0.1241 -0.0822
  921YOPE   GL113533   7.499   0.436   6.426 -0.3889 -0.3070 -0.1230
  921YOPE   GL213534   7.375   0.678   6.578  0.0079  0.2508 -0.1608
  921YOPE   C1A13535   7.437   0.043   6.685 -0.0438  0.0085  0.1081
  921YOPE   D2A13536   7.351  -0.064   7.109  0.0508  0.2423  0.2119
  921YOPE   C3A13537   7.149  -0.362   7.344 -0.2171 -0.3584 -0.1434
  921YOPE   C4A13538   6.953  -0.713   7.573  0.0596  0.4900 -0.1649
  921YOPE   C1B13539   7.142   0.887   6.940 -0.0247 -0.1139  0.5103
  921YOPE   C2B13540   7.140   0.855   7.355  0.1994  0.1886 -0.1647
  921YOPE   D3B13541   7.302   0.534   7.544  0.3594 -0.0759 -0.0491
  921YOPE   C4B13542   7.280   0.102   7.573  0.2924 -0.0232  0.2711
  922YOPE   NH313543  10.203  15.210   6.098  0.0541 -0.1227  0.1760
  922YOPE   PO413544  10.606  15.387   6.275 -0.1475 -0.0677 -0.0810
  922YOPE   GL113545  10.283  15.346   6.576 -0.1275 -0.1152  0.1023
  922YOPE   GL213546  10.293  15.667   6.737 -0.1357 -0.1756 -0.1643
  922YOPE   C1A13547  10.071  15.045   6.891  0.2910 -0.5018  0.0053
  922YOPE   D2A13548   9.840  14.728   7.060  0.0706 -0.2291  0.3269
  922YOPE   C3A13549   9.792  14.359   6.842 -0.0111 -0.0567  0.0031
  922YOPE   C4A13550   9.465  14.202   6.614 -0.0633 -0.0059 -0.2777
  922YOPE   C1B13551  10.123  15.992   7.065  0.2399 -0.0432 -0.0359
  922YOPE   C2B13552   9.954  16.076   7.479  0.1214  0.1403 -0.0413
  922YOPE   D3B13553   9.899  15.966   7.909  0.2242  0.1669 -0.2708
  922YOPE   C4B13554  10.009  15.795   8.264 -0.0886 -0.2937 -0.0278
  923YOPE   NH313555  14.744   4.266   5.960  0.0056  0.0135 -0.0607
  923YOPE   PO413556  14.907   3.898   6.123  0.0826 -0.0434  0.2028
  923YOPE   GL113557  15.138   3.927   6.418 -0.0227  0.1810  0.0266
  923YOPE   GL213558  15.377   3.641   6.464 -0.0630  0.1318  0.1718
  923YOPE   C1A13559  15.150   4.087   6.889 -0.1711 -0.0127 -0.0415
  923YOPE   D2A13560  14.949   3.981   7.249  0.1392  0.0352 -0.0461
  923YOPE   C3A13561  14.882   4.301   7.467 -0.0807  0.3930  0.1813
  923YOPE   C4A13562  14.462   4.497   7.548  0.0558 -0.1312  0.0816
  923YOPE   C1B13563  15.610   3.509   6.692  0.0726 -0.1950 -0.2688
  923YOPE   C2B13564  15.925   3.515   7.008 -0.1659 -0.1969 -0.2951
  923YOPE   D3B13565  15.981   3.542   7.396  0.0933  0.0131  0.1494
  923YOPE   C4B13566  16.199   3.748   7.732 -0.0563  0.0991  0.0358
  924YOPE   NH313567  15.735  15.213   6.135 -0.0050 -0.1644 -0.0128
  924YOPE   PO413568  15.349  14.932   6.112 -0.2301  0.5336 -0.3664
  924YOPE   GL113569  15.283  15.363   6.413  0.2010  0.3256  0.4075
  924YOPE   GL213570  15.377  15.580   6.128  0.1995 -0.1898 -0.0606
  924YOPE   C1A13571  15.102  15.440   6.801  0.0333 -0.1418  0.0000
  924YOPE   D2A13572  14.884  15.588   7.017 -0.1073  0.2351 -0.2399
  924YOPE   C3A13573  15.085  15.641   7.390  0.0508  0.0600  0.3809
  924YOPE   C4A13574  15.142  16.005   7.585 -0.4062  0.0557 -0.0126
  924YOPE   C1B13575  15.596  15.658   6.565 -0.0628 -0.0711  0.0026
  924YOPE   C2B13576  15.514  15.732   6.990  0.1699  0.2985 -0.0241
  924YOPE   D3B13577  15.580  15.723   7.341  0.2809  0.0156 -0.0147
  924YOPE   C4B13578  15.556  15.732   7.816 -0.0822  0.1787 -0.0779
  925POPC   NC313579   2.390  10.147   5.357 -0.4341  0.1080 -0.1267
  925POPC   PO413580   2.145  10.118   5.677 -0.0730 -0.2451  0.0246
  925POPC   GL113581   2.092   9.996   6.111 -0.0344  0.2245 -0.0777
  925POPC   GL213582   2.469  10.020   6.322 -0.0502  0.0006  0.0373
  925POPC   C1A13583   1.949   9.758   6.439  0.2252 -0.0059  0.0723
  925POPC   D2A13584   1.794   9.346   6.636 -0.1171 -0.1199  0.2009
  925POPC   C3A13585   1.848   8.875   6.674  0.0348  0.2662  0.1158
  925POPC   C4A13586   1.860   8.552   6.856  0.1237 -0.2439 -0.0759
  925POPC   C1B13587   2.922  10.044   6.624  0.0339 -0.0387  0.0359
  925POPC   C2B13588   2.866   9.815   6.976  0.2928 -0.3932 -0.1230
  925POPC   C3B13589   2.825   9.892   7.384  0.3794  0.0205 -0.0161
  925POPC   C4B13590   2.901   9.727   7.750  0.0364 -0.0381  0.3363
  926POPC   NC313591  15.450   9.490   5.907 -0.1006  0.0663  0.0998
  926POPC   PO413592  15.686   9.116   6.025  0.0747  0.2432  0.0467
  926POPC   GL113593  15.783   8.938   6.390  0.0418  0.1021 -0.0152
  926POPC   GL213594  15.862   8.621   6.393 -0.1465 -0.3594  0.1902
  926POPC   C1A13595  15.852   8.935   6.808  0.2004  0.0015  0.1724
  926POPC   D2A13596  15.864   8.770   7.110  0.1706 -0.1952  0.0971
  926POPC   C3A13597  15.830   8.820   7.524 -0.3820 -0.0959 -0.0623
  926POPC   C4A13598  15.872   8.450   7.891 -0.1221 -0.1790 -0.0729
  926POPC   C1B13599  15.684   8.371   6.755 -0.0501  0.0580  0.0296
  926POPC   C2B13600  15.581   8.196   7.175 -0.2855  0.0330 -0.1308
  926POPC   C3B13601  15.580   8.387   7.430 -0.0531  0.0465 -0.1526
  926POPC   C4B13602  15.417   8.675   7.749 -0.0934 -0.2424 -0.2072
  927POPC   NC313603   3.823   0.705   5.230  0.2450  0.1544 -0.1382
  927POPC   PO413604   3.836   0.704   5.619  0.2186  0.2372  0.0827
  927POPC   GL113605   4.141   0.623   5.971  0.0133  0.1169  0.1619
  927POPC   GL213606   4.107   0.338   6.146  0.0385  0.0869  0.2106
  927POPC   C1A13607   4.250   0.771   6.372  0.0028  0.2377 -0.1987
  927POPC   D2A13608   4.254   0.754   6.837 -0.1853  0.2056 -0.0241
  927POPC   C3A13609   4.622   0.680   7.159 -0.1366  0.0506 -0.1172
  927POPC   C4A13610   4.726   0.301   7.507 -0.1882 -0.1203  0.2509
  927POPC   C1B13611   4.257   0.153   6.535  0.2037  0.1351 -0.0233
  927POPC   C2B13612   4.182  -0.163   6.910 -0.0180  0.3265  0.3646
  927POPC   C3B13613   4.433  -0.269   7.317 -0.0546 -0.0785 -0.0312
  927POPC   C4B13614   4.452  -0.063   7.752  0.0446 -0.1888 -0.0528
  928POPC   NC313615  10.745   2.017   6.161  0.0248  0.0386  0.2226
  928POPC   PO413616  10.480   2.396   6.285 -0.0181 -0.1588  0.0725
  928POPC   GL113617  10.418   2.196   6.660 -0.1574 -0.0566 -0.0420
  928POPC   GL213618  10.280   2.435   6.875  0.0787 -0.0160  0.2350
  928POPC   C1A13619  10.523   1.816   6.928 -0.0141  0.2805  0.0651
  928POPC   D2A13620  10.492   1.578   7.254  0.0607  0.2286 -0.1186
  928POPC   C3A13621  10.549   1.161   7.285  0.0394 -0.1837  0.2605
  928POPC   C4A13622  10.353   0.729   7.195 -0.0086 -0.0916  0.0298
  928POPC   C1B13623  10.072   2.594   7.288  0.4081  0.4097 -0.1517
  928POPC   C2B13624  10.025   2.403   7.588  0.1737 -0.1891  0.1670
  928POPC   C3B13625   9.967   2.023   7.741  0.0475 -0.1271 -0.2113
  928POPC   C4B13626   9.986   1.697   7.975 -0.0708  0.1382  0.3856
  929POPC   NC313627   3.696  15.584   5.356 -0.1151  0.1827 -0.1675
  929POPC   PO413628   3.945  15.397   5.658 -0.0742 -0.2196 -0.0310
  929POPC   GL113629   3.896  15.574   5.984  0.1987 -0.1514 -0.1161
  929POPC   GL213630   3.724  15.762   6.209 -0.3254 -0.0852  0.0150
  929POPC   C1A13631   3.858  15.267   6.355 -0.1981 -0.1655 -0.0676
  929POPC   D2A13632   3.601  15.109   6.625 -0.0642  0.0098 -0.1406
  929POPC   C3A13633   3.592  14.914   6.989  0.4714  0.0279 -0.0678
  929POPC   C4A13634   3.677  14.817   7.389  0.1824 -0.1271 -0.0638
  929POPC   C1B13635   3.755  15.679   6.707 -0.0403  0.0897  0.3298
  929POPC   C2B13636   3.664  15.381   7.056  0.1529  0.0080 -0.1266
  929POPC   C3B13637   3.687  15.296   7.454 -0.1264  0.1615  0.0688
  929POPC   C4B13638   4.047  15.375   7.700  0.0204 -0.1269 -0.0252
  930POPC   NC313639  10.730   8.980   6.480 -0.0715 -0.0573 -0.1436
  930POPC   PO413640  10.289   9.095   6.420  0.0821 -0.1600 -0.0546
  930POPC   GL113641  10.481   9.483   6.675 -0.1758 -0.2025  0.0023
  930POPC   GL213642  10.797   9.463   6.683  0.1134 -0.0583  0.1360
  930POPC   C1A13643  10.608   9.207   7.084 -0.1407  0.1270 -0.2871
  930POPC   D2A13644  10.690   9.224   7.573 -0.2120  0.0879 -0.0203
  930POPC   C3A13645  10.696   9.497   7.982  0.2852  0.0596  0.2347
  930POPC   C4A13646  10.945   9.578   8.305 -0.3662  0.2248 -0.0241
  930POPC   C1B13647  11.042   9.767   6.907 -0.3771  0.3263  0.3712
  930POPC   C2B13648  11.405   9.888   7.274 -0.0405 -0.0162 -0.2336
  930POPC   C3B13649  11.480  10.025   7.723  0.1435 -0.1128 -0.2227
  930POPC   C4B13650  11.580  10.158   8.105  0.1402  0.0378 -0.1732
  931POPC   NC313651  14.716   8.456   6.118 -0.1170  0.2669 -0.2244
  931POPC   PO413652  14.985   8.127   5.947  0.1279 -0.0452  0.1191
  931POPC   GL113653  15.117   8.108   6.392 -0.0818  0.1050  0.3021
  931POPC   GL213654  15.028   7.821   6.506 -0.1712 -0.2109  0.0874
  931POPC   C1A13655  15.457   7.856   6.737 -0.4287  0.1410  0.0997
  931POPC   D2A13656  15.916   7.875   6.849 -0.0634  0.0410  0.0454
  931POPC   C3A13657  16.081   8.217   6.985  0.3422 -0.0815 -0.1352
  931POPC   C4A13658  16.174   8.467   6.778  0.0798 -0.1007 -0.1414
  931POPC   C1B13659  14.835   7.719   6.804 -0.1117  0.2536  0.3352
  931POPC   C2B13660  14.681   7.412   7.023  0.1609  0.2412  0.4017
  931POPC   C3B13661  14.256   7.209   7.260  0.0159  0.0461  0.3295
  931POPC   C4B13662  14.059   6.948   7.793 -0.2697  0.0413 -0.2196
  932POPC   NC313663  15.719   5.675   5.581  0.0447  0.1647 -0.0813
  932POPC   PO413664  15.308   5.701   5.665  0.0387  0.0608  0.0523
  932POPC   GL113665  15.329   5.853   6.039  0.0752 -0.1738  0.3392
  932POPC   GL213666  15.214   5.646   6.244 -0.3684  0.3282  0.0762
  932POPC   C1A13667  15.596   5.919   6.425  0.2632 -0.2024  0.0731
  932POPC   D2A13668  15.706   5.801   6.852 -0.2117 -0.3422  0.0957
  932POPC   C3A13669  15.704   5.454   7.094 -0.0864 -0.0051 -0.1377
  932POPC   C4A13670  15.534   5.380   7.437  0.1359 -0.2356 -0.0661
  932POPC   C1B13671  15.203   5.600   6.695  0.1373  0.0895 -0.0910
  932POPC   C2B13672  15.125   5.572   7.172 -0.0199 -0.3254  0.0423
  932POPC   C3B13673  14.814   5.811   7.421  0.3048 -0.1093  0.1919
  932POPC   C4B13674  14.577   6.152   7.468 -0.0581 -0.0078  0.1118
  933POPC   NC313675   6.324  16.198   5.684  0.1259 -0.0525  0.3150
  933POPC   PO413676   5.898  16.369   5.791 -0.0147 -0.1859  0.1800
  933POPC   GL113677   5.759  16.383   6.205  0.1557  0.1831 -0.1701
  933POPC   GL213678   5.595  16.679   6.345  0.1475 -0.0925 -0.1120
  933POPC   C1A13679   5.654  16.257   6.676 -0.1133 -0.2576 -0.1903
  933POPC   D2A13680   5.929  16.323   7.051 -0.2576  0.0193 -0.3059
  933POPC   C3A13681   6.239  16.057   6.922 -0.0760  0.1265  0.0153
  933POPC   C4A13682   6.484  16.023   6.633 -0.1575  0.1160 -0.2703
  933POPC   C1B13683   5.538  16.863   6.686 -0.3092 -0.2106 -0.1708
  933POPC   C2B13684   5.464  16.688   7.073 -0.2520  0.1023  0.1789
  933POPC   C3B13685   5.256  16.558   7.378  0.0558 -0.1463  0.0478
  933POPC   C4B13686   5.042  16.523   7.870 -0.0973  0.0726 -0.2498
  934POPC   NC313687   2.893   0.834   5.974  0.1811 -0.1593  0.0310
  934POPC   PO413688   2.549   0.945   6.330  0.1331 -0.1533 -0.0379
  934POPC   GL113689   2.174   0.961   6.256 -0.0309 -0.3537  0.1526
  934POPC   GL213690   2.144   1.308   6.276  0.0105 -0.2120 -0.2552
  934POPC   C1A13691   1.744   0.895   6.400  0.0593 -0.2119 -0.0158
  934POPC   D2A13692   1.482   0.516   6.459  0.2303 -0.0577  0.1287
  934POPC   C3A13693   1.300   0.441   6.852 -0.0533  0.0687 -0.0527
  934POPC   C4A13694   1.190   0.707   7.325 -0.1169  0.0947  0.3417
  934POPC   C1B13695   2.032   1.211   6.678  0.4259  0.1203  0.1328
  934POPC   C2B13696   1.739   1.339   7.018 -0.3006 -0.2455  0.0153
  934POPC   C3B13697   1.610   1.468   7.441  0.0837 -0.0112 -0.2436
  934POPC   C4B13698   1.162   1.404   7.616 -0.0263 -0.0696  0.1406
  935POPC   NC313699   1.916   7.608   5.496 -0.0245 -0.0708  0.3027
  935POPC   PO413700   2.144   7.797   5.923  0.0799  0.0323  0.0622
  935POPC   GL113701   2.336   7.587   6.278 -0.1416  0.2189 -0.0290
  935POPC   GL213702   2.149   7.592   6.510  0.2922 -0.4965 -0.0033
  935POPC   C1A13703   2.633   7.428   6.579 -0.2820 -0.1418  0.0811
  935POPC   D2A13704   2.659   7.537   6.995  0.1309  0.4142  0.4964
  935POPC   C3A13705   2.339   7.768   7.114 -0.2190  0.1133 -0.0715
  935POPC   C4A13706   2.099   8.189   7.187  0.0469 -0.0867 -0.2931
  935POPC   C1B13707   2.197   7.312   6.837 -0.0997 -0.0629  0.1362
  935POPC   C2B13708   2.424   7.047   6.922  0.2325 -0.1371 -0.0530
  935POPC   C3B13709   2.515   6.696   7.261  0.0915  0.2060 -0.1186
  935POPC   C4B13710   2.868   6.489   7.361  0.1592 -0.0221  0.4311
  936POPC   NC313711   0.985  11.768   5.913  0.3392 -0.0396 -0.2908
  936POPC   PO413712   0.697  11.371   5.944 -0.2380 -0.5150  0.0413
  936POPC   GL113713   0.677  11.577   6.320 -0.1905 -0.1203  0.0424
  936POPC   GL213714   0.344  11.529   6.533 -0.0274  0.1162  0.0879
  936POPC   C1A13715   0.779  11.584   6.789  0.3485 -0.2260 -0.3618
  936POPC   D2A13716   0.819  11.954   7.054  0.0129  0.0893 -0.4055
  936POPC   C3A13717   0.904  11.855   7.446  0.3194 -0.2854  0.0874
  936POPC   C4A13718   1.077  11.621   7.683 -0.1770  0.1242  0.2092
  936POPC   C1B13719   0.320  11.349   6.964  0.0559  0.1673 -0.2265
  936POPC   C2B13720   0.695  11.390   7.278  0.0932  0.0002  0.2250
  936POPC   C3B13721   0.837  11.159   7.580 -0.1005  0.0972 -0.0364
  936POPC   C4B13722   1.025  10.760   7.644 -0.2368 -0.0747  0.1085
  937POPC   NC313723   4.765  11.916   6.016 -0.0429  0.0425 -0.1730
  937POPC   PO413724   4.859  12.273   6.061  0.0652  0.0994 -0.1746
  937POPC   GL113725   4.771  12.469   6.369  0.0465 -0.4291  0.3160
  937POPC   GL213726   4.799  12.783   6.409  0.1857  0.2853  0.0160
  937POPC   C1A13727   4.331  12.572   6.535  0.0333 -0.3181  0.0824
  937POPC   D2A13728   3.986  12.615   6.794  0.0865  0.1350  0.1918
  937POPC   C3A13729   3.887  12.986   6.825  0.1482  0.1532 -0.0277
  937POPC   C4A13730   3.604  13.206   6.992  0.1581 -0.0333 -0.3508
  937POPC   C1B13731   4.749  12.486   6.863 -0.0401 -0.1830  0.3711
  937POPC   C2B13732   4.781  12.239   7.297  0.1470  0.0971  0.3381
  937POPC   C3B13733   5.014  12.298   7.843  0.2506  0.3464  0.1246
  937POPC   C4B13734   4.998  12.402   8.268 -0.1079 -0.0188 -0.0003
  938POPC   NC313735  12.087  16.272   5.863  0.0188 -0.1246  0.0338
  938POPC   PO413736  12.320  15.825   5.917 -0.1682  0.0024 -0.0299
  938POPC   GL113737  12.364  16.218   6.339  0.1988  0.0835  0.1086
  938POPC   GL213738  12.552  16.029   6.694  0.1056 -0.2364  0.1119
  938POPC   C1A13739  12.138  16.317   6.804  0.2505  0.2151  0.0321
  938POPC   D2A13740  11.774  16.231   7.099 -0.1783 -0.1174 -0.0479
  938POPC   C3A13741  11.857  16.260   7.573  0.1007 -0.3328  0.0951
  938POPC   C4A13742  11.961  16.286   7.992 -0.0967 -0.0439  0.0405
  938POPC   C1B13743  12.487  16.136   7.075  0.2408  0.1465 -0.2680
  938POPC   C2B13744  12.267  16.520   7.317 -0.1241 -0.1957 -0.0480
  938POPC   C3B13745  12.236  16.654   7.818 -0.2496 -0.0318 -0.1573
  938POPC   C4B13746  12.069  16.887   8.175  0.3273  0.2790  0.0598
  939POPC   NC313747  11.513  12.395   6.093 -0.0636  0.1458 -0.3459
  939POPC   PO413748  11.466  12.871   6.190  0.0136  0.0332 -0.2914
  939POPC   GL113749  11.555  12.664   6.555  0.3637 -0.0051  0.1175
  939POPC   GL213750  11.341  12.451   6.668 -0.3072  0.1031  0.3611
  939POPC   C1A13751  11.885  12.664   6.949  0.0466  0.0522 -0.0154
  939POPC   D2A13752  12.047  12.597   7.325 -0.0878  0.1124  0.0861
  939POPC   C3A13753  11.828  12.715   7.657 -0.0183  0.1770  0.1692
  939POPC   C4A13754  11.758  12.527   7.990  0.1363 -0.1110  0.0358
  939POPC   C1B13755  11.416  12.667   7.045 -0.1279  0.0954  0.1486
  939POPC   C2B13756  11.586  13.062   7.371  0.0349  0.1149  0.2079
  939POPC   C3B13757  11.625  13.352   7.488  0.1372 -0.2113 -0.0283
  939POPC   C4B13758  11.545  13.729   7.593 -0.0165 -0.2633  0.2198
  940POPC   NC313759  17.473  16.006   5.684  0.2649  0.3070  0.3031
  940POPC   PO413760  17.398  15.634   5.535 -0.0112 -0.3237 -0.1167
  940POPC   GL113761  17.454  15.383   5.878 -0.1968  0.2320 -0.1710
  940POPC   GL213762  17.039  15.347   5.939  0.0240 -0.1354 -0.2184
  940POPC   C1A13763  17.282  15.543   6.329 -0.0923 -0.0057  0.3230
  940POPC   D2A13764  17.458  15.536   6.725  0.1521 -0.3448  0.0116
  940POPC   C3A13765  17.320  15.321   7.086  0.1681  0.1185  0.1889
  940POPC   C4A13766  17.448  15.338   7.446 -0.0798 -0.0904  0.0320
  940POPC   C1B13767  17.122  15.127   6.290 -0.0874  0.4219  0.0792
  940POPC   C2B13768  17.209  15.102   6.676  0.4900 -0.1966  0.0746
  940POPC   C3B13769  17.128  14.708   6.941  0.0613  0.0047  0.2031
  940POPC   C4B13770  17.429  14.420   7.297 -0.2077 -0.1198 -0.1969
  941POPC   NC313771   1.102   9.190   5.415 -0.0299  0.0447  0.2557
  941POPC   PO413772   1.000   9.116   5.831 -0.0249  0.0551 -0.0136
  941POPC   GL113773   1.146   9.138   6.176  0.0517 -0.1358  0.0965
  941POPC   GL213774   1.094   8.847   6.288  0.1747  0.0450  0.1550
  941POPC   C1A13775   1.292   9.155   6.659 -0.0090 -0.1880 -0.1377
  941POPC   D2A13776   1.552   9.161   6.980 -0.0458 -0.1322 -0.3899
  941POPC   C3A13777   1.753   8.818   7.290 -0.2373  0.2086  0.0457
  941POPC   C4A13778   1.974   8.595   7.698 -0.2006  0.0738  0.0758
  941POPC   C1B13779   0.856   8.816   6.605  0.0601  0.0195  0.2290
  941POPC   C2B13780   0.730   8.920   6.998  0.0199  0.0286 -0.0037
  941POPC   C3B13781   0.739   9.041   7.417  0.4455 -0.1518  0.1459
  941POPC   C4B13782   0.776   9.140   7.839 -0.4722  0.1530 -0.1178
  942POPC   NC313783  13.985  15.322   5.774  0.1356 -0.0003  0.0932
  942POPC   PO413784  14.370  15.430   6.074 -0.1062  0.0459 -0.1436
  942POPC   GL113785  14.322  15.628   6.472 -0.0734  0.4469 -0.1239
  942POPC   GL213786  14.049  15.834   6.600  0.0590 -0.3991 -0.1788
  942POPC   C1A13787  14.353  15.533   6.850 -0.0296  0.0989 -0.2944
  942POPC   D2A13788  14.243  15.628   7.199  0.0576  0.0643  0.3595
  942POPC   C3A13789  14.196  15.400   7.567 -0.1197  0.3220 -0.4158
  942POPC   C4A13790  14.139  15.299   8.007  0.3433 -0.1560 -0.0233
  942POPC   C1B13791  13.795  15.544   6.897  0.3183  0.1919  0.1986
  942POPC   C2B13792  13.767  15.568   7.340  0.2484  0.1323  0.1298
  942POPC   C3B13793  13.724  15.309   7.681 -0.3968 -0.3154  0.0737
  942POPC   C4B13794  13.684  15.027   7.875 -0.1298  0.2818 -0.0997
  943POPC   NC313795   9.161   6.269   6.093 -0.0236 -0.1381 -0.3169
  943POPC   PO413796   9.129   5.851   5.934  0.1479 -0.0589  0.0552
  943POPC   GL113797   8.912   5.893   6.435  0.1536 -0.1576  0.2018
  943POPC   GL213798   8.627   6.034   6.516  0.1487 -0.0772 -0.0860
  943POPC   C1A13799   9.171   5.956   6.696 -0.2080  0.2402 -0.1031
  943POPC   D2A13800   9.170   5.550   6.858  0.1075  0.2714  0.1347
  943POPC   C3A13801   9.292   5.469   7.306  0.2635  0.0806  0.2408
  943POPC   C4A13802   9.520   5.459   7.717  0.0033 -0.3534 -0.0486
  943POPC   C1B13803   8.364   6.147   6.781  0.2897 -0.1108 -0.2114
  943POPC   C2B13804   8.422   6.109   7.306  0.0712 -0.3420 -0.2771
  943POPC   C3B13805   8.494   5.988   7.746  0.0801 -0.3906 -0.0911
  943POPC   C4B13806   8.532   5.883   8.288 -0.1127 -0.0329  0.0654
  944POPC   NC313807   1.681  14.761   5.679 -0.0989  0.0424  0.2024
  944POPC   PO413808   2.147  14.557   5.709  0.0257 -0.4877  0.1167
  944POPC   GL113809   1.831  14.460   6.046  0.2004 -0.2744 -0.1180
  944POPC   GL213810   1.531  14.478   6.032 -0.0175 -0.0792 -0.0423
  944POPC   C1A13811   1.834  14.513   6.572 -0.1242 -0.0710  0.0030
  944POPC   D2A13812   1.501  14.473   6.999  0.0219  0.0150  0.1221
  944POPC   C3A13813   1.547  14.248   7.295  0.0493 -0.0792 -0.2525
  944POPC   C4A13814   1.742  13.993   7.529  0.0393  0.1320  0.2467
  944POPC   C1B13815   1.375  14.504   6.478 -0.1782  0.0525  0.0964
  944POPC   C2B13816   1.216  14.249   6.741  0.0148  0.5683 -0.0789
  944POPC   C3B13817   1.038  14.283   7.143  0.1747 -0.1616  0.0078
  944POPC   C4B13818   1.024  14.220   7.552  0.0126 -0.2734 -0.0097
  945POPC   NC313819  17.960   1.722   5.178 -0.1866  0.1594  0.0034
  945POPC   PO413820  18.019   1.366   5.455 -0.0304  0.1948 -0.1616
  945POPC   GL113821  18.086   1.180   5.813  0.1948 -0.0481 -0.1185
  945POPC   GL213822  17.827   1.167   6.012  0.0104  0.3260 -0.3425
  945POPC   C1A13823  18.461   1.206   6.197  0.0878  0.3752  0.1072
  945POPC   D2A13824  18.622   1.032   6.564 -0.1312 -0.0951 -0.1820
  945POPC   C3A13825  18.632   1.245   6.934  0.0129 -0.0908 -0.0522
  945POPC   C4A13826  18.556   1.201   7.332 -0.0019 -0.1641  0.2903
  945POPC   C1B13827  18.019   1.142   6.369  0.0241 -0.3940  0.0370
  945POPC   C2B13828  18.106   1.112   6.841  0.0957  0.2798  0.4093
  945POPC   C3B13829  18.108   0.956   7.263  0.0688 -0.1683  0.0120
  945POPC   C4B13830  18.201   1.094   7.708 -0.2591 -0.1672 -0.1449
  946POPC   NC313831   8.794   2.345   6.068 -0.1735  0.0247  0.1400
  946POPC   PO413832   9.018   1.963   6.180 -0.0586 -0.1776  0.0061
  946POPC   GL113833   8.880   1.703   6.511  0.0065  0.0163  0.0319
  946POPC   GL213834   8.940   1.774   6.921 -0.1973  0.0756  0.0477
  946POPC   C1A13835   8.493   1.538   6.796 -0.0784 -0.1462 -0.1463
  946POPC   D2A13836   8.389   1.562   7.220 -0.0511  0.1340 -0.1252
  946POPC   C3A13837   8.554   1.879   7.480  0.3655  0.0163 -0.1225
  946POPC   C4A13838   8.475   2.168   7.880 -0.0915  0.1205 -0.0571
  946POPC   C1B13839   9.270   1.921   7.134 -0.0384 -0.0361 -0.3224
  946POPC   C2B13840   9.536   1.867   7.540  0.0070  0.0230 -0.2544
  946POPC   C3B13841   9.498   1.665   7.906 -0.0330 -0.3141 -0.0661
  946POPC   C4B13842   9.355   1.790   8.333  0.0327 -0.0755 -0.2036
  947POPC   NC313843   6.145  15.357   5.603 -0.3292 -0.0543 -0.1141
  947POPC   PO413844   6.400  15.749   5.468  0.2402 -0.0514  0.0341
  947POPC   GL113845   6.324  15.736   5.925  0.1386  0.1819 -0.2195
  947POPC   GL213846   5.983  15.801   6.003  0.3365 -0.0735  0.2087
  947POPC   C1A13847   6.553  15.829   6.179 -0.0386  0.1825 -0.4643
  947POPC   D2A13848   6.808  15.734   6.427 -0.0088  0.3347  0.0666
  947POPC   C3A13849   7.091  15.914   6.633  0.1048  0.1728 -0.0167
  947POPC   C4A13850   7.306  15.788   6.982 -0.0813 -0.1636 -0.3333
  947POPC   C1B13851   6.008  15.916   6.488  0.0616 -0.1020 -0.1201
  947POPC   C2B13852   5.847  15.711   6.863  0.1056  0.1196 -0.1357
  947POPC   C3B13853   5.894  15.748   7.269  0.1621  0.0026 -0.0896
  947POPC   C4B13854   6.002  15.607   7.711 -0.1259  0.1659  0.1334
  948POPC   NC313855   7.365   9.784   5.979  0.1106 -0.1167  0.0597
  948POPC   PO413856   7.062  10.149   5.766 -0.3077 -0.2986  0.0839
  948POPC   GL113857   6.894  10.094   6.125  0.1966 -0.0804 -0.0150
  948POPC   GL213858   6.534  10.175   6.273 -0.0562  0.0963 -0.1892
  948POPC   C1A13859   6.655   9.706   6.281  0.1827  0.5712  0.4609
  948POPC   D2A13860   6.305   9.311   6.388 -0.2432  0.0875 -0.4503
  948POPC   C3A13861   6.179   9.406   6.774 -0.2716 -0.0656  0.5547
  948POPC   C4A13862   6.103   9.357   7.176 -0.0185  0.0358 -0.0632
  948POPC   C1B13863   6.320   9.900   6.626  0.0618  0.0029  0.1338
  948POPC   C2B13864   6.431   9.766   6.992  0.0920 -0.0122 -0.1941
  948POPC   C3B13865   6.505   9.603   7.414 -0.1560 -0.2825  0.1750
  948POPC   C4B13866   6.341   9.238   7.584 -0.3267 -0.0383 -0.1708
  949POPC   NC313867   2.190   5.718   5.500  0.0237  0.2374  0.1253
  949POPC   PO413868   2.061   6.252   5.591 -0.3466 -0.2290  0.2888
  949POPC   GL113869   2.110   6.209   6.115  0.0589  0.2530  0.1586
  949POPC   GL213870   1.963   6.485   6.219 -0.1410 -0.2381  0.1135
  949POPC   C1A13871   1.949   5.993   6.383  0.1721 -0.0404  0.0782
  949POPC   D2A13872   1.741   5.625   6.497  0.1110 -0.0206 -0.1908
  949POPC   C3A13873   1.627   5.699   6.869 -0.0725  0.0839 -0.1433
  949POPC   C4A13874   1.599   5.445   7.239  0.3187  0.0217 -0.1729
  949POPC   C1B13875   1.778   6.508   6.564  0.1319  0.0759 -0.0279
  949POPC   C2B13876   1.710   6.314   6.966 -0.0691 -0.0714  0.0221
  949POPC   C3B13877   1.724   6.126   7.391  0.0190  0.1450  0.2365
  949POPC   C4B13878   1.885   5.695   7.625  0.1538 -0.0003 -0.1643
  950POPC   NC313879   8.030  16.428   5.977 -0.1168  0.4450 -0.3993
  950POPC   PO413880   7.572  16.280   6.058  0.0798  0.1025 -0.3150
  950POPC   GL113881   7.504  16.329   6.445  0.1379 -0.0650  0.0691
  950POPC   GL213882   7.384  16.561   6.644 -0.0404  0.1516  0.1428
  950POPC   C1A13883   7.569  16.093   6.712 -0.0487 -0.1726  0.2077
  950POPC   D2A13884   7.794  16.043   7.069 -0.1258 -0.1017  0.1144
  950POPC   C3A13885   8.127  15.780   7.170 -0.0814  0.1369  0.0710
  950POPC   C4A13886   8.255  15.371   7.282 -0.1695 -0.0169 -0.0855
  950POPC   C1B13887   7.598  16.490   7.056 -0.0568  0.0345 -0.2020
  950POPC   C2B13888   7.717  16.671   7.419 -0.4873  0.0434 -0.3980
  950POPC   C3B13889   7.644  16.825   7.916  0.1077  0.3003 -0.2712
  950POPC   C4B13890   7.774  17.089   8.241 -0.0091 -0.1633 -0.3318
  951POPC   NC313891   8.586   9.956   6.055  0.1049  0.0333  0.1095
  951POPC   PO413892   8.329  10.158   6.237  0.0274 -0.2536 -0.0826
  951POPC   GL113893   8.707  10.069   6.493 -0.1065 -0.0753  0.1683
  951POPC   GL213894   8.799   9.819   6.611  0.1813  0.4205 -0.2098
  951POPC   C1A13895   8.863  10.234   6.871 -0.1078 -0.2535 -0.0569
  951POPC   D2A13896   8.915  10.618   7.042 -0.3305  0.1459 -0.0372
  951POPC   C3A13897   8.619  10.689   7.382  0.1166 -0.1216  0.1299
  951POPC   C4A13898   8.367  10.741   7.785  0.0237 -0.0324  0.1008
  951POPC   C1B13899   8.658   9.651   6.946  0.0406  0.4558  0.0975
  951POPC   C2B13900   8.665   9.595   7.379 -0.3178 -0.1365 -0.0278
  951POPC   C3B13901   8.695   9.543   7.795  0.2050  0.1441  0.1700
  951POPC   C4B13902   8.441   9.450   8.057  0.2426 -0.1399  0.1817
  952POPC   NC313903   9.509  10.350   6.401 -0.3685 -0.1213  0.1348
  952POPC   PO413904   9.757  10.074   6.315 -0.1873  0.0554 -0.1169
  952POPC   GL113905   9.824  10.123   6.708  0.0285  0.1594 -0.1103
  952POPC   GL213906   9.986  10.376   6.699  0.1865 -0.0730  0.0184
  952POPC   C1A13907   9.942   9.972   7.057 -0.0817 -0.1487 -0.0261
  952POPC   D2A13908  10.083  10.046   7.444 -0.1795 -0.4520  0.1855
  952POPC   C3A13909   9.909  10.152   7.749  0.0071 -0.1843  0.0072
  952POPC   C4A13910   9.745  10.316   8.061  0.1777  0.1091 -0.1286
  952POPC   C1B13911  10.012  10.524   7.111 -0.0752 -0.2574 -0.1338
  952POPC   C2B13912   9.999  10.681   7.478  0.1074 -0.3515 -0.2007
  952POPC   C3B13913   9.586  10.676   7.696 -0.0598 -0.1362 -0.1947
  952POPC   C4B13914   9.488  11.047   7.860 -0.0758 -0.1919 -0.1040
  953POPC   NC313915  15.227  15.737   5.628 -0.1932  0.1396 -0.0556
  953POPC   PO413916  15.081  15.905   5.941  0.2043  0.2843 -0.2340
  953POPC   GL113917  15.075  15.820   6.393 -0.0929 -0.0723  0.1327
  953POPC   GL213918  14.750  15.834   6.542 -0.1849 -0.0794 -0.3506
  953POPC   C1A13919  15.148  15.978   6.823  0.0257 -0.2500  0.1420
  953POPC   D2A13920  14.936  16.234   7.216 -0.4034 -0.2311  0.0329
  953POPC   C3A13921  14.666  15.892   7.481 -0.0368  0.3389  0.3211
  953POPC   C4A13922  14.764  15.665   7.916  0.1568 -0.1992  0.2941
  953POPC   C1B13923  14.569  15.962   6.890  0.0387  0.1780 -0.0668
  953POPC   C2B13924  14.298  16.144   7.183 -0.1603  0.2050 -0.1001
  953POPC   C3B13925  14.084  16.152   7.577  0.0883 -0.0361 -0.3077
  953POPC   C4B13926  13.868  15.838   7.851  0.2112  0.3029 -0.3062
  954POPC   NC313927  11.621   8.853   6.155  0.1149  0.1626  0.3461
  954POPC   PO413928  11.527   9.186   6.202  0.3251 -0.0283 -0.0306
  954POPC   GL113929  11.405   9.439   6.524  0.0227 -0.1523  0.7108
  954POPC   GL213930  11.295   9.322   6.765  0.3036 -0.0683 -0.3854
  954POPC   C1A13931  11.618   9.658   6.826 -0.1153 -0.1158 -0.3048
  954POPC   D2A13932  11.603   9.396   7.193 -0.0400 -0.0511 -0.0256
  954POPC   C3A13933  11.590   9.581   7.588 -0.0301  0.1012 -0.0877
  954POPC   C4A13934  11.875   9.620   7.973  0.1489  0.0457 -0.0885
  954POPC   C1B13935  11.107   9.292   7.171  0.0132 -0.1060 -0.0879
  954POPC   C2B13936  11.186   9.374   7.532 -0.0424 -0.1151  0.1211
  954POPC   C3B13937  11.288   9.543   7.982  0.2196 -0.1320 -0.1064
  954POPC   C4B13938  11.401   9.597   8.489  0.0080 -0.1429  0.0907
  955POPC   NC313939   9.465  15.431   5.782 -0.1687  0.2160 -0.0971
  955POPC   PO413940   9.066  15.487   5.950  0.2272  0.0342  0.4027
  955POPC   GL113941   9.122  15.436   6.326 -0.0005 -0.0214  0.3037
  955POPC   GL213942   9.297  15.578   6.545 -0.0470 -0.0995 -0.1653
  955POPC   C1A13943   9.165  15.114   6.686 -0.0638 -0.1078 -0.1550
  955POPC   D2A13944   9.084  15.007   7.103 -0.0794 -0.0159 -0.1164
  955POPC   C3A13945   9.227  14.673   7.351 -0.1011  0.0838 -0.4452
  955POPC   C4A13946   9.565  14.430   7.301 -0.2982 -0.0031 -0.3250
  955POPC   C1B13947   9.337  15.577   7.010  0.1548 -0.1085 -0.0126
  955POPC   C2B13948   9.586  15.849   7.225  0.2747  0.0722  0.1806
  955POPC   C3B13949   9.411  16.131   7.449 -0.2156 -0.1361 -0.0225
  955POPC   C4B13950   9.162  16.494   7.521  0.0089 -0.1060 -0.1126
  956POPC   NC313951  11.221   6.148   5.730  0.1382 -0.0884 -0.2436
  956POPC   PO413952  11.053   5.877   6.004 -0.4153  0.2014 -0.2456
  956POPC   GL113953  11.061   6.087   6.403 -0.3697 -0.0099 -0.0497
  956POPC   GL213954  10.800   5.921   6.510  0.0690 -0.0500 -0.0514
  956POPC   C1A13955  11.175   6.206   6.817 -0.1949  0.0105 -0.2484
  956POPC   D2A13956  11.257   6.546   6.996 -0.0020  0.1893 -0.1418
  956POPC   C3A13957  11.543   6.778   6.856  0.1794 -0.1487  0.1333
  956POPC   C4A13958  11.874   6.835   7.127 -0.1785 -0.0380  0.1899
  956POPC   C1B13959  10.649   5.536   6.905  0.1817  0.0858 -0.1236
  956POPC   C2B13960  10.840   5.342   7.331 -0.0069 -0.1156  0.2025
  956POPC   C3B13961  11.133   5.418   7.657 -0.0535 -0.1375  0.1793
  956POPC   C4B13962  11.467   5.558   7.961 -0.2464  0.1127 -0.0767
  957POPC   NC313963  16.369   3.774   5.952 -0.2933  0.1040 -0.1201
  957POPC   PO413964  16.729   3.444   6.033 -0.0599  0.3667 -0.2373
  957POPC   GL113965  16.515   3.491   6.443 -0.1018  0.1124  0.0826
  957POPC   GL213966  16.234   3.817   6.450 -0.3136 -0.2682  0.0050
  957POPC   C1A13967  16.598   3.211   6.785 -0.3177  0.1209 -0.0649
  957POPC   D2A13968  16.957   3.439   7.183 -0.1620  0.0949  0.1598
  957POPC   C3A13969  17.245   3.279   7.429 -0.0672 -0.2976 -0.0886
  957POPC   C4A13970  17.581   3.147   7.579 -0.0402  0.0038 -0.5194
  957POPC   C1B13971  15.908   3.980   6.761  0.1924  0.0594 -0.2524
  957POPC   C2B13972  15.651   4.129   6.989 -0.2201  0.2704 -0.2546
  957POPC   C3B13973  15.614   4.056   7.427 -0.3452 -0.2876  0.2547
  957POPC   C4B13974  15.553   4.369   7.792 -0.0993  0.0087  0.1309
  958POPC   NC313975  12.221   9.572   5.644  0.0104 -0.2118  0.4660
  958POPC   PO413976  12.389   9.449   6.024  0.0745  0.2055  0.2542
  958POPC   GL113977  12.563   9.475   6.362 -0.1655 -0.2461  0.0345
  958POPC   GL213978  12.629   9.879   6.332 -0.1348  0.1706 -0.1788
  958POPC   C1A13979  12.491   9.612   6.745 -0.0123  0.2066  0.2790
  958POPC   D2A13980  12.197   9.704   6.986 -0.2107  0.1074 -0.0513
  958POPC   C3A13981  12.054   9.556   7.290 -0.2016  0.1256 -0.1226
  958POPC   C4A13982  12.289   9.567   7.655 -0.0369  0.0366 -0.0701
  958POPC   C1B13983  12.415  10.163   6.698 -0.3760 -0.0007 -0.2077
  958POPC   C2B13984  12.188  10.243   7.110  0.0989  0.1891 -0.2422
  958POPC   C3B13985  12.294  10.470   7.402  0.0589  0.4158  0.3677
  958POPC   C4B13986  12.595  10.124   7.724  0.1982 -0.4936  0.2285
  959POPC   NC313987  15.710  10.357   5.708  0.0218  0.2188  0.0949
  959POPC   PO413988  15.619   9.968   5.928 -0.2764 -0.1122 -0.0362
  959POPC   GL113989  15.532  10.003   6.365 -0.0670 -0.0534 -0.0516
  959POPC   GL213990  15.768   9.914   6.603 -0.1853  0.1671 -0.0235
  959POPC   C1A13991  15.320  10.050   6.754 -0.0860  0.0863 -0.1510
  959POPC   D2A13992  15.393   9.745   7.038 -0.2038  0.1623  0.0014
  959POPC   C3A13993  15.277   9.762   7.498 -0.2893 -0.0376 -0.0015
  959POPC   C4A13994  15.082   9.689   7.899 -0.0316  0.2627  0.0420
  959POPC   C1B13995  15.868   9.925   7.018 -0.0707  0.1564  0.1931
  959POPC   C2B13996  15.733   9.962   7.440 -0.1239 -0.1571  0.0438
  959POPC   C3B13997  15.522   9.939   7.932  0.2050  0.3524  0.2468
  959POPC   C4B13998  15.624   9.936   8.313  0.0022  0.0110  0.0953
  960POPC   NC313999  11.136  16.246   6.113  0.1134  0.0633  0.1416
  960POPC   PO414000  10.870  15.903   6.091  0.1409  0.1216  0.4505
  960POPC   GL114001  11.015  15.802   6.510  0.0816  0.2386  0.1578
  960POPC   GL214002  10.783  15.664   6.631 -0.0910 -0.3440  0.0605
  960POPC   C1A14003  11.079  16.077   6.866 -0.4166  0.0418  0.0525
  960POPC   D2A14004  10.954  16.164   7.209  0.0589 -0.0064 -0.1877
  960POPC   C3A14005  11.345  15.904   7.414 -0.1112 -0.2206 -0.1082
  960POPC   C4A14006  11.581  15.790   7.086  0.2431  0.0240  0.1846
  960POPC   C1B14007  10.651  15.772   7.112 -0.2654  0.1689  0.2222
  960POPC   C2B14008  10.379  15.758   7.546 -0.0794 -0.1060  0.0778
  960POPC   C3B14009  10.477  16.098   7.890  0.0965  0.0662  0.1333
  960POPC   C4B14010  10.513  16.019   8.379 -0.0518 -0.0045 -0.0128
  961POPC   NC314011  17.601   4.236   6.054 -0.2051 -0.0433  0.2705
  961POPC   PO414012  17.923   4.460   5.903 -0.1047 -0.0774 -0.2022
  961POPC   GL114013  17.606   4.692   6.268  0.3652  0.1076  0.2600
  961POPC   GL214014  17.855   4.793   6.490 -0.0598  0.1529  0.1249
  961POPC   C1A14015  17.417   4.523   6.633 -0.0322  0.0037 -0.1233
  961POPC   D2A14016  17.448   4.466   6.980  0.1624 -0.2265 -0.1267
  961POPC   C3A14017  17.408   4.640   7.322 -0.1198  0.1681 -0.1348
  961POPC   C4A14018  17.550   5.036   7.587 -0.2581 -0.1214  0.2676
  961POPC   C1B14019  17.962   4.727   6.881 -0.2019 -0.0692  0.1335
  961POPC   C2B14020  17.870   4.722   7.263 -0.0290 -0.2091  0.2943
  961POPC   C3B14021  17.838   4.579   7.690  0.0409 -0.1143  0.0163
  961POPC   C4B14022  18.131   4.754   8.033 -0.2030 -0.0692  0.3256
  962POPC   NC314023   8.217   5.405   6.153  0.0632  0.2942 -0.0424
  962POPC   PO414024   7.862   5.183   6.061 -0.0991  0.1803  0.5431
  962POPC   GL114025   7.752   5.498   6.403  0.0921  0.1975  0.2101
  962POPC   GL214026   7.475   5.693   6.524 -0.0601 -0.1582  0.2879
  962POPC   C1A14027   7.893   5.322   6.783 -0.2461  0.0719 -0.0320
  962POPC   D2A14028   7.844   4.995   7.041 -0.1600 -0.4500  0.0147
  962POPC   C3A14029   7.487   4.905   7.332 -0.0362  0.0933  0.0916
  962POPC   C4A14030   7.106   4.927   7.217  0.1181 -0.0067 -0.0013
  962POPC   C1B14031   7.525   5.585   6.941  0.1594 -0.1811 -0.0333
  962POPC   C2B14032   7.554   5.506   7.408  0.1865  0.4342  0.0212
  962POPC   C3B14033   7.427   5.128   7.765 -0.1864  0.2261 -0.1090
  962POPC   C4B14034   7.168   4.771   7.873  0.3060  0.2022  0.1575
  963YOPC   NC314035   7.033   8.337   6.205  0.3987 -0.2598 -0.3445
  963YOPC   PO414036   7.471   8.397   6.196  0.1530 -0.3359  0.4375
  963YOPC   GL114037   7.447   8.332   6.638  0.3752  0.2270 -0.0515
  963YOPC   GL214038   7.274   8.538   6.706  0.0290 -0.1824 -0.2264
  963YOPC   C1A14039   7.375   7.988   6.952  0.3128 -0.1224 -0.0957
  963YOPC   D2A14040   7.038   7.755   7.051  0.2997  0.0616 -0.1186
  963YOPC   C3A14041   6.791   7.913   7.328  0.4298 -0.0450 -0.1396
  963YOPC   C4A14042   6.425   7.949   7.318 -0.1903  0.2440  0.2232
  963YOPC   C1B14043   7.416   8.511   7.172  0.3002 -0.0262  0.3184
  963YOPC   C2B14044   7.264   8.234   7.489  0.3261  0.0378 -0.0665
  963YOPC   D3B14045   7.218   8.295   7.959 -0.1397 -0.0370 -0.1780
  963YOPC   C4B14046   7.200   8.515   8.373  0.1170 -0.0855  0.0827
  964YOPC   NC314047   8.244  13.252   5.755  0.3705  0.1070 -0.2229
  964YOPC   PO414048   8.066  13.157   6.238  0.0224  0.3728  0.2525
  964YOPC   GL114049   7.744  13.369   6.442  0.2529 -0.1239 -0.0122
  964YOPC   GL214050   7.435  13.545   6.401 -0.1831  0.0073 -0.0398
  964YOPC   C1A14051   7.707  13.449   6.860  0.1263  0.3671  0.0421
  964YOPC   D2A14052   7.533  13.283   7.300  0.1474  0.2824 -0.1230
  964YOPC   C3A14053   7.284  13.637   7.586 -0.1864  0.1464 -0.0534
  964YOPC   C4A14054   6.877  13.721   7.666 -0.1343  0.0165  0.0078
  964YOPC   C1B14055   7.213  13.470   6.779 -0.0775  0.0843  0.1085
  964YOPC   C2B14056   6.994  13.513   7.192 -0.1449 -0.1573 -0.1441
  964YOPC   D3B14057   6.533  13.675   7.206  0.1481  0.0673  0.3497
  964YOPC   C4B14058   6.175  13.501   7.177  0.0166  0.2062 -0.1563
  965YOPC   NC314059  17.556   3.867   5.213 -0.2085 -0.0994 -0.1132
  965YOPC   PO414060  17.532   3.853   5.721 -0.0409 -0.1666  0.0064
  965YOPC   GL114061  17.243   3.764   6.129 -0.1763  0.0348  0.2366
  965YOPC   GL214062  17.157   3.452   6.308 -0.2301  0.0256  0.1703
  965YOPC   C1A14063  17.287   3.898   6.552 -0.2034 -0.0642  0.0651
  965YOPC   D2A14064  17.256   3.987   6.944 -0.0596  0.1173  0.2115
  965YOPC   C3A14065  17.568   4.045   7.250 -0.2688  0.0196  0.6304
  965YOPC   C4A14066  17.892   4.199   7.327 -0.3010 -0.0879 -0.1816
  965YOPC   C1B14067  17.569   3.397   6.393  0.2398  0.1982  0.3608
  965YOPC   C2B14068  18.000   3.576   6.353  0.2332 -0.0524  0.0123
  965YOPC   D3B14069  18.202   3.681   6.715  0.0935  0.1468  0.0608
  965YOPC   C4B14070  18.222   3.821   7.102  0.2177 -0.0638  0.0795
  966YOPC   NC314071   6.529   5.474   6.179  0.1055 -0.1498  0.2858
  966YOPC   PO414072   6.108   5.689   6.252 -0.1948 -0.1312  0.1207
  966YOPC   GL114073   6.072   5.584   6.674  0.4103  0.1869  0.2353
  966YOPC   GL214074   6.092   5.880   6.833 -0.1864 -0.2237  0.0374
  966YOPC   C1A14075   5.786   5.429   6.867  0.2912 -0.2271 -0.1287
  966YOPC   D2A14076   5.360   5.457   7.032 -0.0509  0.1244  0.0050
  966YOPC   C3A14077   4.973   5.534   6.912 -0.6400  0.1164 -0.1669
  966YOPC   C4A14078   4.545   5.390   6.942 -0.0903  0.1944 -0.0376
  966YOPC   C1B14079   5.770   6.163   6.946 -0.1201  0.0793 -0.1383
  966YOPC   C2B14080   5.776   6.444   7.402  0.2325  0.1637 -0.1912
  966YOPC   D3B14081   5.579   6.305   7.724  0.1219  0.2427  0.0394
  966YOPC   C4B14082   5.895   6.060   7.926 -0.0528 -0.0363 -0.3218
  967YOPC   NC314083  11.763  12.187   5.587  0.0138 -0.2436  0.1695
  967YOPC   PO414084  11.593  11.959   5.987 -0.0680  0.2919 -0.0624
  967YOPC   GL114085  11.605  12.014   6.480  0.3250 -0.2001 -0.0393
  967YOPC   GL214086  11.399  11.759   6.752  0.0641 -0.2303 -0.0956
  967YOPC   C1A14087  11.698  12.225   6.896 -0.3747 -0.0632  0.2128
  967YOPC   D2A14088  11.592  12.335   7.348 -0.1087 -0.1681  0.0612
  967YOPC   C3A14089  11.740  12.168   7.666  0.0415 -0.1219 -0.0694
  967YOPC   C4A14090  12.071  12.012   8.033  0.0226  0.0837  0.3334
  967YOPC   C1B14091  11.385  11.823   7.160 -0.2365  0.0330 -0.4351
  967YOPC   C2B14092  11.695  11.461   7.403  0.4940  0.1157 -0.0116
  967YOPC   D3B14093  12.082  11.496   7.635  0.0724  0.1641  0.2837
  967YOPC   C4B14094  12.369  11.585   7.880  0.0034  0.1714  0.1400
  968YOPC   NC314095  16.727  16.829   5.447  0.1046  0.0345  0.2375
  968YOPC   PO414096  16.704  16.450   5.647 -0.1670  0.1678 -0.0445
  968YOPC   GL114097  16.761  16.711   6.003  0.0807 -0.0998 -0.1796
  968YOPC   GL214098  17.005  16.848   6.194  0.2529 -0.1719  0.0761
  968YOPC   C1A14099  16.572  16.659   6.375  0.1716  0.0679 -0.1282
  968YOPC   D2A14100  16.682  16.539   6.740  0.0672 -0.0293 -0.1667
  968YOPC   C3A14101  16.308  16.424   6.902  0.0876  0.1406  0.1144
  968YOPC   C4A14102  16.014  16.442   7.180  0.1755  0.0912  0.1285
  968YOPC   C1B14103  16.763  17.110   6.587  0.2435  0.0631 -0.1101
  968YOPC   C2B14104  16.790  17.569   6.783  0.0569 -0.1238 -0.0259
  968YOPC   D3B14105  17.076  17.668   7.091  0.3110  0.3157 -0.1720
  968YOPC   C4B14106  17.221  17.585   7.517 -0.0330 -0.0766  0.0889
  969YOPC   NC314107   6.730   1.384   5.837 -0.0086  0.1083 -0.1658
  969YOPC   PO414108   7.164   1.413   5.884  0.0416 -0.0740 -0.2355
  969YOPC   GL114109   7.280   1.686   6.177  0.1063 -0.1820  0.3242
  969YOPC   GL214110   7.486   1.946   6.356  0.0763 -0.3820  0.1069
  969YOPC   C1A14111   7.040   1.872   6.532 -0.1646  0.0399  0.0026
  969YOPC   D2A14112   6.771   1.752   6.790 -0.0074 -0.1372 -0.3158
  969YOPC   C3A14113   6.684   1.631   7.141 -0.1430  0.0274  0.2167
  969YOPC   C4A14114   6.716   1.586   7.630  0.1674  0.1068 -0.0985
  969YOPC   C1B14115   7.505   1.748   6.751 -0.0246  0.1164  0.1073
  969YOPC   C2B14116   7.655   1.541   7.104  0.2442  0.3729  0.2067
  969YOPC   D3B14117   7.996   1.703   7.370  0.3335  0.0581  0.0647
  969YOPC   C4B14118   8.125   1.667   7.753 -0.0721 -0.1767  0.0510
  970YOPC   NC314119  11.941   2.792   6.173  0.0165 -0.1951  0.1050
  970YOPC   PO414120  12.140   2.744   5.830  0.0257  0.0157 -0.0262
  970YOPC   GL114121  12.477   2.627   6.230  0.0402  0.2185  0.0951
  970YOPC   GL214122  12.413   2.837   6.590  0.3177  0.3864 -0.4913
  970YOPC   C1A14123  12.815   2.464   6.459  0.2699  0.0132 -0.2105
  970YOPC   D2A14124  12.974   2.423   6.794 -0.2614 -0.1556  0.2238
  970YOPC   C3A14125  12.760   2.603   7.099 -0.1315 -0.0360  0.2135
  970YOPC   C4A14126  12.717   2.726   7.538 -0.0834 -0.1759  0.2163
  970YOPC   C1B14127  12.841   2.948   6.613 -0.1535  0.2976 -0.1755
  970YOPC   C2B14128  13.164   3.346   6.624  0.1209  0.3225 -0.0929
  970YOPC   D3B14129  12.923   3.679   6.645 -0.1730 -0.0905 -0.0864
  970YOPC   C4B14130  12.559   3.497   6.623  0.2024 -0.1883 -0.0915
  971YOPC   NC314131   3.342   7.835   5.901  0.1982 -0.0227  0.1868
  971YOPC   PO414132   3.673   7.636   5.952 -0.0273 -0.2547 -0.2356
  971YOPC   GL114133   3.753   7.394   6.349 -0.2736  0.1136  0.1848
  971YOPC   GL214134   3.820   7.018   6.372  0.1816 -0.1358 -0.1169
  971YOPC   C1A14135   3.650   7.599   6.767  0.1079 -0.2374  0.1835
  971YOPC   D2A14136   3.592   7.661   7.161 -0.1106  0.0454 -0.1549
  971YOPC   C3A14137   3.541   7.614   7.572 -0.0793 -0.0465 -0.2703
  971YOPC   C4A14138   3.647   7.549   7.983  0.1430 -0.0921 -0.3166
  971YOPC   C1B14139   3.693   6.678   6.744 -0.0305  0.1025  0.0322
  971YOPC   C2B14140   3.400   6.422   6.772 -0.2111  0.0512 -0.4837
  971YOPC   D3B14141   3.272   6.345   7.098  0.0582 -0.3122  0.1393
  971YOPC   C4B14142   3.049   6.027   7.367  0.1650  0.0099  0.1441
  972YOPC   NC314143   2.598   5.127   5.873  0.2188  0.0061 -0.1459
  972YOPC   PO414144   2.298   5.577   5.936  0.0064 -0.4554 -0.0152
  972YOPC   GL114145   2.633   5.569   6.161 -0.2979 -0.0172 -0.0447
  972YOPC   GL214146   2.457   5.812   6.366 -0.0581  0.1788 -0.1201
  972YOPC   C1A14147   2.768   5.448   6.638 -0.1908  0.1946  0.2159
  972YOPC   D2A14148   3.120   5.407   6.965 -0.1603  0.0291 -0.2113
  972YOPC   C3A14149   2.969   5.105   7.227  0.3105  0.0684  0.0396
  972YOPC   C4A14150   3.090   4.925   7.606 -0.1575  0.3204 -0.0880
  972YOPC   C1B14151   2.368   6.206   6.524 -0.2232  0.1419 -0.2802
  972YOPC   C2B14152   2.266   6.616   6.790 -0.0883  0.0928  0.1862
  972YOPC   D3B14153   1.919   6.771   7.082  0.0282 -0.1050 -0.0048
  972YOPC   C4B14154   1.953   6.725   7.482  0.1759 -0.2184  0.0270
  973YOPC   NC314155   5.835   6.742   6.084 -0.0843 -0.2051  0.3982
  973YOPC   PO414156   5.485   6.640   6.247  0.5081  0.0294  0.4119
  973YOPC   GL114157   5.409   6.340   6.437 -0.0772  0.1199  0.1972
  973YOPC   GL214158   5.355   6.519   6.706  0.2035  0.1097  0.0678
  973YOPC   C1A14159   5.250   6.050   6.864 -0.0427  0.1145  0.1449
  973YOPC   D2A14160   5.406   5.970   7.233  0.0574  0.2671  0.1592
  973YOPC   C3A14161   5.178   6.159   7.526  0.2198 -0.1730  0.1033
  973YOPC   C4A14162   5.108   6.319   7.932  0.0171  0.2562 -0.0770
  973YOPC   C1B14163   5.007   6.622   6.984  0.0594  0.0707 -0.1335
  973YOPC   C2B14164   4.833   6.510   7.371 -0.2401 -0.0210 -0.0345
  973YOPC   D3B14165   4.656   6.129   7.658 -0.5793  0.0197 -0.2310
  973YOPC   C4B14166   4.349   5.922   7.933  0.0327  0.0643 -0.1042
  974YOPC   NC314167  14.996  13.450   5.807 -0.0264  0.1524 -0.0124
  974YOPC   PO414168  15.309  13.752   5.694 -0.1721 -0.0651  0.0020
  974YOPC   GL114169  15.358  13.667   6.173 -0.0677 -0.1484 -0.0048
  974YOPC   GL214170  15.434  13.279   6.250 -0.1493  0.2166  0.3659
  974YOPC   C1A14171  15.719  13.619   6.441  0.0943 -0.1262 -0.3430
  974YOPC   D2A14172  15.791  13.523   6.879  0.2856  0.0742 -0.2423
  974YOPC   C3A14173  15.936  13.014   6.855  0.0199  0.0215  0.0502
  974YOPC   C4A14174  16.132  12.662   6.701  0.1400 -0.0491 -0.1155
  974YOPC   C1B14175  15.483  13.186   6.638 -0.2822  0.2683  0.0827
  974YOPC   C2B14176  15.494  13.118   7.061 -0.0009  0.3292 -0.1966
  974YOPC   D3B14177  15.869  12.887   7.501  0.0753 -0.0116  0.0243
  974YOPC   C4B14178  16.334  12.834   7.674 -0.1215 -0.0911  0.0393
  975YOPC   NC314179  15.286   2.494   5.756  0.1413 -0.2183 -0.3302
  975YOPC   PO414180  15.038   2.199   5.650 -0.0185 -0.3382 -0.0676
  975YOPC   GL114181  14.960   2.245   6.066  0.0634  0.2404  0.0625
  975YOPC   GL214182  15.177   2.439   6.258  0.2044 -0.1625  0.0564
  975YOPC   C1A14183  14.971   1.875   6.380 -0.0551 -0.2633 -0.1695
  975YOPC   D2A14184  14.781   1.782   6.894  0.0951 -0.1551 -0.3058
  975YOPC   C3A14185  14.876   1.893   7.374  0.2186 -0.1209  0.0799
  975YOPC   C4A14186  14.923   1.649   7.720 -0.1009 -0.0744  0.1186
  975YOPC   C1B14187  15.358   2.640   6.581 -0.0329 -0.0232 -0.0180
  975YOPC   C2B14188  15.329   2.768   6.953 -0.2362  0.0447  0.2007
  975YOPC   D3B14189  15.262   2.576   7.157  0.3683  0.0562 -0.0807
  975YOPC   C4B14190  15.290   2.295   7.390 -0.1318  0.0414  0.2722
  976YOPC   NC314191   4.816  15.558   5.608  0.1138  0.0287 -0.0771
  976YOPC   PO414192   4.432  15.783   5.510 -0.1672 -0.0421  0.0219
  976YOPC   GL114193   4.385  15.607   5.939  0.0226  0.0856 -0.0745
  976YOPC   GL214194   4.727  15.415   6.068 -0.0136  0.0606  0.2415
  976YOPC   C1A14195   4.325  15.541   6.370 -0.1637 -0.2369 -0.3715
  976YOPC   D2A14196   4.125  15.345   6.747 -0.0612 -0.1299  0.2805
  976YOPC   C3A14197   4.126  15.590   7.019  0.4224  0.0426 -0.0423
  976YOPC   C4A14198   3.860  15.757   7.362  0.1390  0.1945  0.1830
  976YOPC   C1B14199   4.550  15.111   6.374 -0.1102 -0.1466  0.2333
  976YOPC   C2B14200   4.538  15.100   6.878  0.3465 -0.1956  0.0462
  976YOPC   D3B14201   4.632  14.747   7.127  0.0317 -0.0226  0.0801
  976YOPC   C4B14202   4.926  14.739   7.429  0.2895 -0.1306  0.2203
  977YOPC   NC314203  16.930   6.311   5.924 -0.3189 -0.1090 -0.1770
  977YOPC   PO414204  16.532   6.203   5.822  0.0236  0.1687 -0.1479
  977YOPC   GL114205  16.607   6.484   6.242  0.0535  0.2110 -0.2597
  977YOPC   GL214206  16.357   6.687   6.455  0.0605  0.1145  0.0161
  977YOPC   C1A14207  16.887   6.394   6.683  0.0112  0.0218 -0.0172
  977YOPC   D2A14208  17.255   6.646   6.737  0.0002  0.2788 -0.0976
  977YOPC   C3A14209  17.241   6.807   7.153 -0.2393 -0.0765 -0.1294
  977YOPC   C4A14210  17.296   7.147   7.416  0.1699 -0.1373  0.0484
  977YOPC   C1B14211  16.604   6.828   6.840 -0.3741 -0.0808 -0.0282
  977YOPC   C2B14212  16.571   6.692   7.236  0.1319 -0.0297 -0.1576
  977YOPC   D3B14213  16.802   6.864   7.545  0.1109 -0.0663  0.2173
  977YOPC   C4B14214  16.893   7.251   7.693  0.0182  0.0238  0.2684
  978YOPC   NC314215  18.010   3.101   5.512  0.0308  0.1455 -0.2136
  978YOPC   PO414216  18.361   2.924   5.671  0.0243  0.1469 -0.0327
  978YOPC   GL114217  18.062   2.860   5.946 -0.0534  0.2674  0.0210
  978YOPC   GL214218  18.247   2.715   6.161 -0.1129  0.0013 -0.1315
  978YOPC   C1A14219  17.853   2.950   6.351  0.1949  0.1515  0.0720
  978YOPC   D2A14220  17.778   3.165   6.820  0.1757 -0.2047 -0.3428
  978YOPC   C3A14221  17.883   2.941   7.138  0.2777 -0.1642 -0.2080
  978YOPC   C4A14222  18.084   2.983   7.418 -0.0143 -0.1317  0.1442
  978YOPC   C1B14223  18.261   2.776   6.639  0.2907  0.2462  0.0932
  978YOPC   C2B14224  18.238   2.602   7.109  0.3136 -0.0084 -0.1562
  978YOPC   D3B14225  18.311   2.174   7.229  0.1895  0.3216 -0.0506
  978YOPC   C4B14226  17.906   2.016   7.327 -0.0918 -0.2383  0.1917
  979YOPC   NC314227   3.539   3.287   5.833  0.2956  0.1004  0.0117
  979YOPC   PO414228   3.340   3.686   6.039  0.1061 -0.0228  0.1586
  979YOPC   GL114229   3.680   3.696   6.292  0.0659  0.2213 -0.0158
  979YOPC   GL214230   3.770   3.333   6.441 -0.0223 -0.0328  0.0173
  979YOPC   C1A14231   3.677   3.955   6.706  0.0490  0.0998  0.0581
  979YOPC   D2A14232   3.784   4.149   7.062  0.0419  0.0614 -0.2257
  979YOPC   C3A14233   3.648   4.125   7.464  0.2086  0.2119  0.3057
  979YOPC   C4A14234   3.560   4.212   7.850 -0.0422 -0.0770 -0.1189
  979YOPC   C1B14235   3.513   3.315   6.809  0.0599 -0.2869 -0.2475
  979YOPC   C2B14236   3.599   3.157   7.217  0.1320  0.0786  0.0706
  979YOPC   D3B14237   3.945   3.160   7.510  0.2056 -0.1538 -0.1094
  979YOPC   C4B14238   4.220   2.963   7.708 -0.2060 -0.3939 -0.0563
  980YOPC   NC314239  16.104   1.450   5.739  0.0963  0.3346 -0.1352
  980YOPC   PO414240  15.857   1.116   5.781  0.1700 -0.2054 -0.3863
  980YOPC   GL114241  15.523   1.029   6.064  0.0093 -0.2691 -0.1585
  980YOPC   GL214242  15.767   1.014   6.295 -0.4332 -0.2566 -0.0097
  980YOPC   C1A14243  15.351   1.018   6.567  0.0175 -0.0748  0.4448
  980YOPC   D2A14244  15.436   1.064   6.905 -0.3983  0.1836 -0.2401
  980YOPC   C3A14245  15.879   1.055   6.978  0.2719  0.2244 -0.1145
  980YOPC   C4A14246  16.278   0.938   7.030  0.2623 -0.1241 -0.5803
  980YOPC   C1B14247  15.754   1.332   6.596 -0.0152 -0.0155 -0.1265
  980YOPC   C2B14248  15.706   1.509   7.017  0.2106 -0.0865  0.2815
  980YOPC   D3B14249  15.401   1.338   7.309 -0.1326  0.0829 -0.0447
  980YOPC   C4B14250  15.245   0.768   7.458  0.3432 -0.1308 -0.0360
  981YOPC   NC314251  10.483   6.893   5.894  0.4436  0.0502 -0.2988
  981YOPC   PO414252  10.299   7.018   6.205 -0.2885  0.1659 -0.1214
  981YOPC   GL114253  10.526   6.982   6.572 -0.1495 -0.0418 -0.1759
  981YOPC   GL214254  10.619   7.293   6.771  0.2214 -0.4606  0.0193
  981YOPC   C1A14255  10.483   6.688   6.913  0.2372  0.2326  0.0449
  981YOPC   D2A14256  10.289   6.378   7.268 -0.1732 -0.2715 -0.1713
  981YOPC   C3A14257  10.537   5.969   7.376  0.1459 -0.0850  0.0613
  981YOPC   C4A14258  10.661   5.717   7.620  0.1017 -0.0779 -0.2746
  981YOPC   C1B14259  10.467   7.231   7.144  0.0399  0.5345  0.0665
  981YOPC   C2B14260  10.133   6.963   7.314 -0.0546  0.1902 -0.0136
  981YOPC   D3B14261   9.789   6.876   7.297 -0.0091 -0.1577  0.0482
  981YOPC   C4B14262   9.595   7.009   7.004  0.1947  0.1281  0.3050
  982YOPC   NC314263  14.871   6.076   5.433  0.0781 -0.0133  0.1015
  982YOPC   PO414264  14.951   6.201   5.915  0.1178 -0.2011  0.2456
  982YOPC   GL114265  15.159   6.283   6.330 -0.0607 -0.1316  0.0118
  982YOPC   GL214266  15.245   6.587   6.435 -0.0130 -0.1511  0.0151
  982YOPC   C1A14267  15.430   6.236   6.704 -0.1167  0.0143 -0.0660
  982YOPC   D2A14268  15.316   6.044   7.049  0.1805  0.2052 -0.2765
  982YOPC   C3A14269  15.452   5.880   7.399 -0.1086  0.1593 -0.0463
  982YOPC   C4A14270  16.049   5.934   7.363  0.1988  0.4342 -0.1808
  982YOPC   C1B14271  15.024   6.918   6.817  0.1193 -0.0711 -0.0127
  982YOPC   C2B14272  14.931   7.049   7.248  0.1055  0.0029 -0.3550
  982YOPC   D3B14273  14.982   7.445   7.449 -0.0742  0.1367 -0.0275
  982YOPC   C4B14274  15.396   7.387   7.649  0.1237 -0.1426 -0.0161
  983YOPC   NC314275  12.731  10.171   5.936 -0.0884 -0.0297  0.1051
  983YOPC   PO414276  12.757  10.549   6.237 -0.2586  0.1449  0.1007
  983YOPC   GL114277  12.563  10.811   6.572 -0.1823  0.1996  0.0773
  983YOPC   GL214278  12.567  11.072   6.623  0.0847 -0.3539  0.1448
  983YOPC   C1A14279  12.581  10.567   7.021 -0.1183  0.3179 -0.0246
  983YOPC   D2A14280  12.803  10.075   6.978  0.0095 -0.3486 -0.3366
  983YOPC   C3A14281  12.628   9.691   7.276 -0.3854  0.1074 -0.1933
  983YOPC   C4A14282  12.798   9.647   7.663 -0.2236  0.2083 -0.0430
  983YOPC   C1B14283  12.593  11.014   7.117 -0.3164 -0.1008  0.3070
  983YOPC   C2B14284  12.497  11.197   7.543  0.3593  0.1560  0.0865
  983YOPC   D3B14285  12.426  11.001   7.926  0.0967  0.0240 -0.1360
  983YOPC   C4B14286  12.236  10.842   8.389 -0.0971 -0.0589 -0.1102
  984YOPC   NC314287   0.819  17.650   5.727  0.0431 -0.1424 -0.0378
  984YOPC   PO414288   0.778  18.065   5.669 -0.2386  0.0292 -0.1412
  984YOPC   GL114289   0.676  17.970   6.072  0.1568  0.0247  0.0394
  984YOPC   GL214290   1.064  18.185   6.178  0.2378 -0.0175  0.0809
  984YOPC   C1A14291   0.615  17.703   6.507  0.3636  0.0281 -0.1854
  984YOPC   D2A14292   0.764  17.438   6.861 -0.0723  0.2232  0.2180
  984YOPC   C3A14293   0.939  17.681   7.145  0.4350 -0.2673 -0.0255
  984YOPC   C4A14294   1.020  18.005   7.451  0.0359  0.0763 -0.0203
  984YOPC   C1B14295   1.084  18.019   6.580  0.4392  0.0479  0.0576
  984YOPC   C2B14296   1.444  17.897   7.045  0.0301  0.0033 -0.1206
  984YOPC   D3B14297   1.450  17.619   7.313  0.1645 -0.2093 -0.0278
  984YOPC   C4B14298   1.506  17.476   7.739 -0.2318 -0.0998 -0.1759
  985YOPC   NC314299   5.350  11.402   5.929 -0.1106 -0.0098  0.0119
  985YOPC   PO414300   5.197  11.798   6.146 -0.1228  0.0170  0.1349
  985YOPC   GL114301   5.009  11.955   6.525  0.0464  0.1546 -0.0419
  985YOPC   GL214302   5.070  12.200   6.631  0.0281  0.1367 -0.0660
  985YOPC   C1A14303   4.634  11.993   6.797 -0.2242 -0.1279 -0.1339
  985YOPC   D2A14304   4.483  11.841   7.105 -0.5450  0.1867  0.4520
  985YOPC   C3A14305   4.369  11.950   7.514  0.3094  0.0101 -0.1099
  985YOPC   C4A14306   4.234  12.183   7.834 -0.2555 -0.0385 -0.0378
  985YOPC   C1B14307   5.080  12.007   7.015 -0.3162  0.0724  0.1016
  985YOPC   C2B14308   5.265  12.134   7.359 -0.0348 -0.0109 -0.0940
  985YOPC   D3B14309   5.286  11.845   7.705  0.0712 -0.2763  0.2348
  985YOPC   C4B14310   5.559  11.546   7.777 -0.0618 -0.0172  0.0803
  986YOPC   NC314311  15.156  18.057   5.743 -0.1696  0.2295 -0.0701
  986YOPC   PO414312  15.439  17.728   5.875  0.0401 -0.1135  0.1063
  986YOPC   GL114313  15.225  17.798   6.291 -0.2633 -0.1023 -0.1007
  986YOPC   GL214314  15.059  17.447   6.363 -0.0870 -0.1378 -0.2599
  986YOPC   C1A14315  15.163  18.034   6.709 -0.1063 -0.0510  0.1645
  986YOPC   D2A14316  14.893  18.075   7.025  0.0109 -0.0752  0.0670
  986YOPC   C3A14317  15.104  18.004   7.455 -0.3180 -0.0259  0.2122
  986YOPC   C4A14318  15.055  17.913   7.947  0.3197  0.2550 -0.0626
  986YOPC   C1B14319  15.015  17.572   6.822  0.2373 -0.3358 -0.1471
  986YOPC   C2B14320  15.045  17.542   7.302  0.2611  0.1863 -0.1660
  986YOPC   D3B14321  15.399  17.640   7.619 -0.4074  0.2121  0.1728
  986YOPC   C4B14322  15.813  17.685   7.841 -0.1406  0.2811  0.1073
  987YOPC   NC314323   3.674   0.336   5.934 -0.2851  0.1103  0.1282
  987YOPC   PO414324   3.732  -0.108   5.803 -0.1900 -0.0903  0.1244
  987YOPC   GL114325   3.650  -0.056   6.262  0.2013 -0.0342  0.1083
  987YOPC   GL214326   3.431   0.138   6.338 -0.0010  0.0494  0.2115
  987YOPC   C1A14327   3.845  -0.230   6.586  0.4900 -0.1712 -0.0947
  987YOPC   D2A14328   4.239  -0.386   6.491  0.0675  0.0970 -0.2224
  987YOPC   C3A14329   4.613  -0.471   6.802  0.0429  0.2233 -0.2280
  987YOPC   C4A14330   4.722  -0.704   7.220  0.2100 -0.1667  0.0822
  987YOPC   C1B14331   3.505   0.099   6.748  0.2997  0.1511  0.2730
  987YOPC   C2B14332   3.510  -0.192   7.072  0.0803 -0.2041  0.1563
  987YOPC   D3B14333   3.231  -0.568   7.229 -0.1733 -0.2997 -0.1054
  987YOPC   C4B14334   2.967  -0.856   7.092 -0.1654  0.0383  0.2539
  988YOPC   NC314335  12.041  11.801   6.258  0.3452  0.0578 -0.0245
  988YOPC   PO414336  11.739  11.451   6.042 -0.0394 -0.1277 -0.0917
  988YOPC   GL114337  11.813  11.341   6.564  0.2162 -0.1472 -0.0217
  988YOPC   GL214338  11.555  11.285   6.781 -0.0064  0.0606  0.1578
  988YOPC   C1A14339  11.988  11.431   7.000 -0.0216  0.0663  0.0987
  988YOPC   D2A14340  11.947  11.918   7.283  0.0733 -0.1303 -0.0937
  988YOPC   C3A14341  12.228  12.183   7.546 -0.0302 -0.1197  0.3099
  988YOPC   C4A14342  12.219  12.510   7.818  0.1840  0.4499 -0.0663
  988YOPC   C1B14343  11.588  11.018   7.068 -0.0181  0.3325 -0.3651
  988YOPC   C2B14344  11.423  10.891   7.404 -0.1582 -0.1174  0.1588
  988YOPC   D3B14345  11.532  11.041   7.788  0.5671 -0.0599  0.2874
  988YOPC   C4B14346  11.905  11.130   7.976 -0.3168 -0.0471  0.2363
  989YOPC   NC314347   7.998  15.351   6.132  0.0795  0.2817 -0.0527
  989YOPC   PO414348   8.275  15.063   6.227  0.0246 -0.0273 -0.0972
  989YOPC   GL114349   8.333  15.226   6.550  0.1385 -0.2466  0.1193
  989YOPC   GL214350   8.497  15.553   6.483  0.1024 -0.1363 -0.0727
  989YOPC   C1A14351   8.566  15.157   6.964  0.1982  0.3200  0.0878
  989YOPC   D2A14352   8.760  14.959   7.415 -0.0435  0.2353 -0.0599
  989YOPC   C3A14353   9.068  15.053   7.715 -0.2252 -0.0628  0.3864
  989YOPC   C4A14354   9.387  15.210   7.929  0.0101 -0.1967 -0.0550
  989YOPC   C1B14355   8.875  15.582   6.794 -0.0784 -0.4371  0.2050
  989YOPC   C2B14356   8.958  15.502   7.318  0.3147  0.0682 -0.0148
  989YOPC   D3B14357   8.698  15.495   7.649  0.2775  0.0506 -0.0420
  989YOPC   C4B14358   8.483  15.394   8.044 -0.1390 -0.0330 -0.2129
  990YOPC   NC314359   9.838  12.868   6.088 -0.1558 -0.0113 -0.0284
  990YOPC   PO414360   9.722  13.245   6.345  0.1944  0.1230  0.0230
  990YOPC   GL114361   9.738  13.225   6.672  0.0327 -0.4053  0.0055
  990YOPC   GL214362  10.008  13.426   6.741 -0.0344 -0.1728  0.1150
  990YOPC   C1A14363   9.792  12.806   6.864 -0.4423 -0.0350  0.2031
  990YOPC   D2A14364   9.545  12.539   7.207  0.4526 -0.1082 -0.0291
  990YOPC   C3A14365   9.628  12.403   7.636 -0.2157 -0.0838  0.1122
  990YOPC   C4A14366   9.459  12.313   7.960  0.2907 -0.1068 -0.2516
  990YOPC   C1B14367  10.101  13.834   6.912  0.1939  0.1518 -0.2500
  990YOPC   C2B14368  10.188  13.895   7.348  0.0855  0.0520  0.1037
  990YOPC   D3B14369  10.205  13.545   7.625  0.2091  0.1773 -0.1059
  990YOPC   C4B14370  10.172  13.112   7.746 -0.2093  0.0390 -0.1086
  991YOPC   NC314371  10.246   8.073   6.557 -0.0025  0.0512  0.3395
  991YOPC   PO414372   9.910   7.807   6.437  0.0238 -0.0616  0.1141
  991YOPC   GL114373   9.836   7.336   6.604  0.2119  0.4084  0.2160
  991YOPC   GL214374   9.605   7.085   6.498 -0.1543  0.1145  0.0893
  991YOPC   C1A14375  10.093   7.069   6.848  0.0241 -0.0297  0.0463
  991YOPC   D2A14376   9.969   6.588   6.926  0.5415  0.1314  0.2599
  991YOPC   C3A14377   9.762   6.339   7.244  0.2269  0.0944  0.2287
  991YOPC   C4A14378   9.562   5.965   7.533 -0.2460 -0.0359  0.0200
  991YOPC   C1B14379   9.493   6.619   6.595  0.0969  0.4057 -0.1122
  991YOPC   C2B14380   9.389   6.396   6.868  0.2167  0.0634  0.1766
  991YOPC   D3B14381   9.354   6.583   7.337 -0.2556  0.1279  0.0103
  991YOPC   C4B14382   9.442   6.408   7.782 -0.3488  0.3819 -0.1010
  992YOPC   NC314383  12.541   6.650   5.367 -0.1292  0.1057 -0.2640
  992YOPC   PO414384  12.645   6.553   5.850 -0.1298  0.1251  0.1282
  992YOPC   GL114385  12.567   6.387   6.218 -0.1935  0.1346 -0.2622
  992YOPC   GL214386  12.475   6.578   6.516  0.2856  0.1273 -0.2515
  992YOPC   C1A14387  12.311   6.120   6.506 -0.3149  0.0030 -0.0514
  992YOPC   D2A14388  12.555   5.928   6.793 -0.2709 -0.1841  0.0647
  992YOPC   C3A14389  12.576   6.167   7.082 -0.1713 -0.0744 -0.4803
  992YOPC   C4A14390  12.631   6.277   7.482  0.0510 -0.0905  0.0191
  992YOPC   C1B14391  12.881   6.364   6.765 -0.0247  0.0097  0.3864
  992YOPC   C2B14392  13.078   6.251   7.096  0.1323  0.1118  0.2436
  992YOPC   D3B14393  13.208   6.598   7.366  0.1445 -0.1278 -0.1026
  992YOPC   C4B14394  13.123   6.694   7.841 -0.3819  0.0561  0.1351
  993YOPC   NC314395   6.136  11.350   6.280  0.0225  0.1695  0.1550
  993YOPC   PO414396   5.665  11.208   6.239 -0.0269  0.0247 -0.3607
  993YOPC   GL114397   5.863  11.095   6.659 -0.0429  0.2232  0.0664
  993YOPC   GL214398   6.035  10.852   6.578 -0.0613  0.1865 -0.1607
  993YOPC   C1A14399   5.534  11.034   6.904  0.0539  0.3426 -0.3346
  993YOPC   D2A14400   5.551  10.722   7.238 -0.1780 -0.1271 -0.2247
  993YOPC   C3A14401   5.433  10.734   7.645  0.0462 -0.1187  0.2583
  993YOPC   C4A14402   5.332  10.551   8.055 -0.1493  0.2149 -0.0146
  993YOPC   C1B14403   6.098  10.712   6.914  0.1073 -0.0880  0.1745
  993YOPC   C2B14404   6.112  10.842   7.287 -0.2259  0.0901 -0.0019
  993YOPC   D3B14405   6.000  10.598   7.615 -0.2115  0.0211 -0.1163
  993YOPC   C4B14406   5.810  10.583   7.942  0.1380  0.0590  0.0998
  994YOPC   NC314407  16.168  17.758   5.339  0.0194 -0.0690  0.1162
  994YOPC   PO414408  15.986  17.978   5.661 -0.2428  0.1091 -0.1294
  994YOPC   GL114409  16.055  17.986   6.038 -0.1073 -0.0694 -0.0281
  994YOPC   GL214410  15.850  17.817   6.188  0.1824  0.0276  0.3212
  994YOPC   C1A14411  16.125  17.888   6.555 -0.1463  0.1968  0.0487
  994YOPC   D2A14412  16.054  17.912   7.009  0.1839 -0.1558  0.0773
  994YOPC   C3A14413  16.429  17.782   7.141 -0.2797 -0.0557 -0.2052
  994YOPC   C4A14414  16.741  17.676   7.419 -0.3380  0.0934  0.1567
  994YOPC   C1B14415  15.590  17.808   6.620 -0.4012 -0.0768 -0.1546
  994YOPC   C2B14416  15.459  17.711   7.093  0.2927  0.2115 -0.1331
  994YOPC   D3B14417  15.688  18.003   7.377  0.0607  0.3151  0.0038
  994YOPC   C4B14418  16.140  17.951   7.529 -0.0398  0.0825 -0.0469
  995YOPC   NC314419   5.628   1.099   5.824 -0.1442  0.0134 -0.0586
  995YOPC   PO414420   5.781   1.473   6.037  0.4490 -0.1675  0.3171
  995YOPC   GL114421   5.389   1.535   6.308 -0.1940 -0.0114 -0.1005
  995YOPC   GL214422   5.155   1.286   6.187 -0.0448 -0.1273  0.1713
  995YOPC   C1A14423   5.037   1.657   6.593 -0.0121  0.1072  0.1263
  995YOPC   D2A14424   4.772   1.557   7.012  0.1176  0.0757 -0.0285
  995YOPC   C3A14425   4.499   1.172   7.042  0.1548  0.1048  0.1419
  995YOPC   C4A14426   4.565   1.159   7.534 -0.0214  0.0248  0.1432
  995YOPC   C1B14427   5.125   1.202   6.639 -0.3420 -0.1981 -0.1089
  995YOPC   C2B14428   5.007   1.110   7.053 -0.0438  0.1336 -0.2495
  995YOPC   D3B14429   5.006   0.897   7.388  0.1488  0.2365 -0.0571
  995YOPC   C4B14430   5.234   1.116   7.630 -0.1406  0.3008  0.1480
  996YOPC   NC314431   4.474   4.674   6.020  0.1539 -0.1267 -0.0483
  996YOPC   PO414432   4.409   4.922   5.612 -0.0056  0.1987 -0.2926
  996YOPC   GL114433   4.545   5.268   5.962 -0.0546  0.0678  0.3150
  996YOPC   GL214434   4.643   5.548   6.052 -0.1657  0.0157 -0.0032
  996YOPC   C1A14435   4.861   5.328   6.450 -0.2015  0.1635  0.1606
  996YOPC   D2A14436   4.996   5.019   6.637 -0.2398  0.1566 -0.0355
  996YOPC   C3A14437   4.947   5.082   7.142 -0.3565  0.1861  0.2555
  996YOPC   C4A14438   4.947   5.105   7.571  0.0233 -0.0668 -0.2040
  996YOPC   C1B14439   4.640   5.808   6.461  0.0458 -0.3669  0.1545
  996YOPC   C2B14440   4.442   5.930   6.844 -0.4080  0.3454 -0.2474
  996YOPC   D3B14441   4.848   5.972   7.062  0.3903 -0.4196 -0.3808
  996YOPC   C4B14442   5.030   5.703   7.477 -0.1354  0.0391 -0.1687
  997YOPC   NC314443   3.437  10.737   5.917  0.0327 -0.1499  0.1802
  997YOPC   PO414444   3.505  11.102   5.893  0.1794 -0.1123 -0.1402
  997YOPC   GL114445   3.820  10.960   6.150  0.0066  0.2658 -0.1400
  997YOPC   GL214446   3.938  10.633   6.078 -0.1552  0.1170  0.1070
  997YOPC   C1A14447   3.881  11.164   6.609  0.0086  0.1903 -0.0135
  997YOPC   D2A14448   3.756  11.224   7.040  0.2646 -0.1791  0.0553
  997YOPC   C3A14449   4.010  10.981   7.435  0.1222 -0.1407  0.0363
  997YOPC   C4A14450   4.172  10.830   7.700 -0.0362 -0.0440  0.1511
  997YOPC   C1B14451   4.125  10.367   6.497 -0.0090  0.2492 -0.1001
  997YOPC   C2B14452   4.343  10.501   6.869  0.0870 -0.2977 -0.1076
  997YOPC   D3B14453   4.210  10.470   7.316 -0.0106 -0.0399  0.2159
  997YOPC   C4B14454   3.860  10.478   7.584  0.2475  0.0820 -0.1390
  998YOPC   NC314455   5.575  15.056   5.777  0.1213 -0.1516 -0.2187
  998YOPC   PO414456   5.645  15.460   5.736 -0.0788 -0.2258 -0.1544
  998YOPC   GL114457   5.842  15.307   6.081 -0.2011 -0.0380 -0.1952
  998YOPC   GL214458   5.895  14.952   6.184 -0.4653 -0.2240 -0.0939
  998YOPC   C1A14459   5.712  15.434   6.417  0.2890  0.0412 -0.1075
  998YOPC   D2A14460   5.438  15.327   6.738  0.0101 -0.1393  0.0262
  998YOPC   C3A14461   5.492  15.474   7.135  0.0601  0.0468 -0.3250
  998YOPC   C4A14462   5.463  15.658   7.533 -0.1996  0.1705  0.0848
  998YOPC   C1B14463   5.947  15.011   6.509  0.4501  0.0749 -0.1711
  998YOPC   C2B14464   5.970  15.226   6.929  0.1772 -0.1057 -0.1616
  998YOPC   D3B14465   6.278  15.100   7.269 -0.0820 -0.2435 -0.3024
  998YOPC   C4B14466   6.273  15.017   7.606  0.2446  0.1555 -0.3426
  999YOPC   NC314467   6.185  12.686   6.127  0.3257  0.1061 -0.1474
  999YOPC   PO414468   6.528  12.608   5.998  0.0118 -0.0221  0.2775
  999YOPC   GL114469   6.711  12.715   6.373 -0.0678 -0.0526 -0.0555
  999YOPC   GL214470   6.444  12.851   6.654 -0.3103 -0.1480 -0.2552
  999YOPC   C1A14471   6.948  12.678   6.659 -0.1762 -0.2487 -0.1823
  999YOPC   D2A14472   7.308  12.492   6.801  0.0964  0.0664  0.1080
  999YOPC   C3A14473   7.579  12.260   7.135 -0.1346 -0.0097 -0.2289
  999YOPC   C4A14474   7.813  12.110   7.431 -0.0184 -0.2400  0.1961
  999YOPC   C1B14475   6.453  13.095   7.090 -0.0083  0.0466  0.4321
  999YOPC   C2B14476   6.479  13.239   7.470  0.0400  0.1995 -0.1742
  999YOPC   D3B14477   6.902  13.203   7.592 -0.0791  0.2041 -0.1749
  999YOPC   C4B14478   7.236  12.974   7.679  0.2004 -0.0646  0.1572
 1000YOPC   NC314479   5.778   0.029   5.218 -0.0255 -0.1324 -0.1560
 1000YOPC   PO414480   5.872  -0.245   5.575  0.1125 -0.3245  0.0379
 1000YOPC   GL114481   5.941  -0.157   6.039  0.2661 -0.0441  0.1027
 1000YOPC   GL214482   6.014  -0.482   6.293 -0.1449  0.1379 -0.0930
 1000YOPC   C1A14483   5.844   0.286   6.166 -0.0485  0.0731  0.1330
 1000YOPC   D2A14484   5.696   0.634   6.367 -0.0731 -0.0587 -0.1466
 1000YOPC   C3A14485   5.432   0.831   6.671 -0.0707 -0.1339  0.3309
 1000YOPC   C4A14486   5.462   0.859   7.125  0.0405 -0.1358 -0.0880
 1000YOPC   C1B14487   5.964  -0.375   6.668 -0.1979 -0.2407 -0.2021
 1000YOPC   C2B14488   5.924  -0.110   6.905 -0.1346 -0.0212 -0.0358
 1000YOPC   D3B14489   5.893  -0.029   7.332 -0.0240 -0.1286 -0.2320
 1000YOPC   C4B14490   5.820   0.262   7.761  0.2230  0.0217  0.1154
 1001YOPC   NC314491   2.873  13.839   5.753  0.1560  0.2290  0.1176
 1001YOPC   PO414492   2.521  13.816   6.033  0.2816 -0.0032 -0.0429
 1001YOPC   GL114493   2.657  13.653   6.323 -0.2175 -0.1122 -0.2727
 1001YOPC   GL214494   2.707  13.347   6.361  0.1968  0.0602 -0.1142
 1001YOPC   C1A14495   2.541  13.521   6.764 -0.1905  0.0973  0.2984
 1001YOPC   D2A14496   2.823  13.283   6.996  0.2011 -0.4360  0.5014
 1001YOPC   C3A14497   2.719  12.997   7.366  0.0738 -0.0613  0.1082
 1001YOPC   C4A14498   2.456  12.860   7.672  0.0257 -0.0234  0.0075
 1001YOPC   C1B14499   2.575  12.951   6.621 -0.0948  0.0448  0.0280
 1001YOPC   C2B14500   2.246  12.709   6.840  0.0902  0.2329  0.3795
 1001YOPC   D3B14501   2.087  12.726   7.321 -0.1002 -0.1638  0.2346
 1001YOPC   C4B14502   1.984  12.999   7.631 -0.0528 -0.1827 -0.0855
 1002YOPC   NC314503  16.014  15.062   5.213 -0.3427  0.1149 -0.2967
 1002YOPC   PO414504  16.232  14.683   5.611  0.1496 -0.3250  0.0997
 1002YOPC   GL114505  16.313  14.634   6.035  0.0218 -0.1557  0.1976
 1002YOPC   GL214506  16.044  14.707   6.122 -0.1640 -0.0436  0.1653
 1002YOPC   C1A14507  16.478  14.364   6.393  0.4339  0.2547 -0.2327
 1002YOPC   D2A14508  16.676  14.336   6.637 -0.0325 -0.0578  0.0493
 1002YOPC   C3A14509  16.359  14.505   6.895 -0.0567  0.0326 -0.0592
 1002YOPC   C4A14510  16.498  14.677   7.207 -0.0551 -0.2600 -0.0998
 1002YOPC   C1B14511  16.157  14.834   6.571 -0.1119 -0.0872 -0.2500
 1002YOPC   C2B14512  16.172  15.001   6.961  0.0151  0.0633  0.1323
 1002YOPC   D3B14513  15.840  14.896   7.255 -0.1453 -0.0200  0.0353
 1002YOPC   C4B14514  15.636  14.921   7.576  0.0487  0.0750  0.0321
 1003YOPC   NC314515   1.782   9.736   5.759  0.3710 -0.0370  0.0711
 1003YOPC   PO414516   1.955   9.330   5.748 -0.1741 -0.1423  0.0230
 1003YOPC   GL114517   2.072   9.141   6.080 -0.1244 -0.1938 -0.3952
 1003YOPC   GL214518   2.314   8.983   6.044 -0.1240  0.1888  0.1432
 1003YOPC   C1A14519   2.239   9.115   6.465 -0.0370  0.6235 -0.2791
 1003YOPC   D2A14520   2.298   9.183   6.957 -0.1466 -0.0322 -0.0881
 1003YOPC   C3A14521   2.310   9.452   7.264  0.2657  0.1158 -0.1760
 1003YOPC   C4A14522   2.176   9.455   7.643  0.4199  0.1879  0.1560
 1003YOPC   C1B14523   2.761   9.163   6.324 -0.1051 -0.3454  0.0024
 1003YOPC   C2B14524   2.687   9.384   6.663 -0.1901  0.2648 -0.1530
 1003YOPC   D3B14525   2.354   9.591   6.668  0.2762 -0.0054 -0.1018
 1003YOPC   C4B14526   2.194   9.876   6.970 -0.1167  0.2792  0.2542
 1004YOPC   NC314527   0.474  14.800   5.574 -0.0895 -0.0042 -0.0634
 1004YOPC   PO414528   0.398  15.147   5.736  0.1848  0.3110 -0.2147
 1004YOPC   GL114529   0.510  15.120   6.112 -0.0476 -0.2768  0.2433
 1004YOPC   GL214530   0.794  15.210   6.246 -0.0553  0.1011 -0.0964
 1004YOPC   C1A14531   0.211  15.124   6.369  0.1533 -0.3408  0.0547
 1004YOPC   D2A14532  -0.197  14.970   6.487  0.3493  0.0015 -0.0417
 1004YOPC   C3A14533  -0.322  15.241   6.754 -0.0497  0.4187  0.1830
 1004YOPC   C4A14534  -0.388  15.521   7.033  0.1062 -0.1268 -0.3916
 1004YOPC   C1B14535   0.877  14.980   6.556  0.3165  0.0124  0.0327
 1004YOPC   C2B14536   1.053  14.735   6.876  0.0490  0.0536  0.3006
 1004YOPC   D3B14537   0.972  14.795   7.338 -0.2908 -0.1016 -0.0775
 1004YOPC   C4B14538   1.038  14.735   7.756  0.0763 -0.0719  0.0107
 1005YOPC   NC314539   3.221   6.767   5.667 -0.0405 -0.1460  0.1033
 1005YOPC   PO414540   2.947   6.882   5.897  0.1857  0.0701  0.0900
 1005YOPC   GL114541   2.902   7.162   6.220 -0.0299 -0.0317  0.1283
 1005YOPC   GL214542   3.193   7.376   6.353  0.0319  0.0376  0.2832
 1005YOPC   C1A14543   2.897   7.089   6.722 -0.2839  0.2583  0.0525
 1005YOPC   D2A14544   2.920   7.026   7.173 -0.0314 -0.1039 -0.0558
 1005YOPC   C3A14545   3.303   6.832   7.311 -0.4224  0.0837  0.2030
 1005YOPC   C4A14546   3.303   6.512   7.675  0.1215  0.0681  0.1314
 1005YOPC   C1B14547   3.160   7.712   6.600  0.2196  0.4243 -0.0656
 1005YOPC   C2B14548   3.074   7.857   7.034  0.0447  0.0673  0.1014
 1005YOPC   D3B14549   2.736   7.947   7.418  0.1627 -0.0915  0.0640
 1005YOPC   C4B14550   2.398   7.671   7.674  0.0767  0.1840 -0.0463
 1006YOPC   NC314551  11.087  10.723   6.137 -0.1457 -0.2556 -0.2848
 1006YOPC   PO414552  10.597  10.913   6.224  0.2361 -0.1453 -0.4070
 1006YOPC   GL114553  10.547  10.563   6.530 -0.1533  0.3050 -0.0889
 1006YOPC   GL214554  10.739  10.344   6.434  0.2422 -0.1895 -0.0649
 1006YOPC   C1A14555  10.452  10.499   6.911  0.1432  0.1118  0.1735
 1006YOPC   D2A14556  10.486  10.186   7.100  0.3754 -0.0970 -0.0322
 1006YOPC   C3A14557  10.554  10.387   7.524 -0.1645 -0.0085 -0.0370
 1006YOPC   C4A14558  10.725  10.426   7.907  0.0547 -0.0631 -0.1178
 1006YOPC   C1B14559  10.996  10.296   6.764  0.1900 -0.0465  0.1335
 1006YOPC   C2B14560  11.090  10.236   7.000 -0.0498  0.2505  0.0193
 1006YOPC   D3B14561  11.234  10.407   7.406 -0.2355 -0.2132 -0.0434
 1006YOPC   C4B14562  11.204  10.425   7.837  0.2016 -0.2104 -0.3065
 1007YOPC   NC314563  17.866  16.976   5.471  0.0704 -0.2500  0.3653
 1007YOPC   PO414564  17.562  16.552   5.639  0.0009 -0.4423  0.2044
 1007YOPC   GL114565  17.559  16.724   6.020  0.0334 -0.2579 -0.2634
 1007YOPC   GL214566  17.519  17.005   6.070  0.1612 -0.0317 -0.0810
 1007YOPC   C1A14567  17.375  16.690   6.433  0.1152  0.1520  0.0684
 1007YOPC   D2A14568  17.212  16.849   6.776 -0.0886 -0.1301  0.2816
 1007YOPC   C3A14569  17.043  16.698   7.090 -0.0058  0.0461  0.1001
 1007YOPC   C4A14570  16.625  16.733   7.247 -0.1205  0.0260  0.1626
 1007YOPC   C1B14571  17.601  17.148   6.475  0.0559 -0.0688 -0.2729
 1007YOPC   C2B14572  17.710  16.970   6.969  0.0075 -0.1563  0.2117
 1007YOPC   D3B14573  17.567  16.541   6.982 -0.3310 -0.3929 -0.2290
 1007YOPC   C4B14574  17.680  16.300   6.568 -0.1963  0.1744 -0.2543
 1008YOPC   NC314575   1.267  11.005   5.890  0.3256  0.0341 -0.0500
 1008YOPC   PO414576   0.804  10.846   5.999  0.0133  0.0380 -0.0347
 1008YOPC   GL114577   0.949  10.747   6.442 -0.0760  0.1129 -0.0788
 1008YOPC   GL214578   1.267  10.869   6.408 -0.2095  0.0811  0.1360
 1008YOPC   C1A14579   0.985  10.631   6.764  0.1568 -0.4333 -0.0193
 1008YOPC   D2A14580   1.153  10.825   7.116  0.1997 -0.0371 -0.0125
 1008YOPC   C3A14581   1.327  11.134   7.289 -0.0266  0.2045  0.2650
 1008YOPC   C4A14582   1.196  11.521   7.138 -0.0163 -0.2483  0.1689
 1008YOPC   C1B14583   1.548  10.874   6.662  0.1715  0.3090  0.0352
 1008YOPC   C2B14584   1.645  10.670   7.080 -0.0785 -0.2747  0.2068
 1008YOPC   D3B14585   1.362  10.287   7.094  0.0774 -0.1367 -0.3938
 1008YOPC   C4B14586   0.919  10.329   7.172 -0.2013  0.1947 -0.0491
 1009YOPC   NC314587   0.611  10.384   5.901  0.0372 -0.0775  0.3317
 1009YOPC   PO414588   0.235  10.352   5.932 -0.0653  0.0845 -0.1511
 1009YOPC   GL114589   0.456  10.060   6.289 -0.0798  0.2190  0.0904
 1009YOPC   GL214590   0.448   9.813   6.425  0.3219  0.0300  0.0952
 1009YOPC   C1A14591   0.606  10.126   6.768  0.1549  0.0560 -0.5920
 1009YOPC   D2A14592   0.342  10.180   7.187  0.1293  0.0612  0.1577
 1009YOPC   C3A14593   0.574  10.030   7.523 -0.1639  0.1249 -0.2777
 1009YOPC   C4A14594   0.744   9.751   7.785  0.0047  0.3688 -0.0960
 1009YOPC   C1B14595   0.248   9.724   6.881  0.0628 -0.0240 -0.2367
 1009YOPC   C2B14596   0.004   9.523   7.247  0.0943 -0.1604 -0.2296
 1009YOPC   D3B14597   0.065   9.865   7.567  0.0244  0.0895  0.1990
 1009YOPC   C4B14598   0.185  10.288   7.747 -0.3566  0.0315 -0.0664
 1010YOPC   NC314599   7.753   4.450   6.307  0.2755  0.2692 -0.1092
 1010YOPC   PO414600   7.348   4.357   6.325 -0.1486 -0.0839 -0.1685
 1010YOPC   GL114601   7.193   4.229   6.831 -0.3116  0.2065  0.1714
 1010YOPC   GL214602   6.865   4.285   6.903  0.0328 -0.0585 -0.0363
 1010YOPC   C1A14603   7.205   4.374   7.231 -0.1562 -0.1062  0.3795
 1010YOPC   D2A14604   6.909   4.477   7.489  0.1854 -0.1775 -0.0593
 1010YOPC   C3A14605   6.501   4.144   7.588  0.1211 -0.2538  0.1076
 1010YOPC   C4A14606   6.550   3.905   7.987  0.0057  0.1110 -0.0403
 1010YOPC   C1B14607   6.684   4.630   7.087 -0.0732 -0.1376  0.0148
 1010YOPC   C2B14608   6.228   4.719   7.266  0.0516 -0.0483  0.1275
 1010YOPC   D3B14609   5.907   4.972   7.062  0.3614  0.3028 -0.2388
 1010YOPC   C4B14610   5.413   5.017   6.865 -0.1031  0.0969 -0.0804
 1011YOPC   NC314611   4.773  10.980   5.904  0.0069  0.3711  0.3860
 1011YOPC   PO414612   4.865  11.358   5.980 -0.1357 -0.0930  0.0363
 1011YOPC   GL114613   5.012  11.393   6.443 -0.5179  0.0796  0.0984
 1011YOPC   GL214614   5.278  11.333   6.594  0.0166 -0.2460 -0.0780
 1011YOPC   C1A14615   4.873  11.526   6.840 -0.0907  0.2638 -0.2069
 1011YOPC   D2A14616   4.763  11.430   7.234 -0.0394  0.0865  0.3004
 1011YOPC   C3A14617   4.857  11.734   7.446  0.3276 -0.0359  0.2237
 1011YOPC   C4A14618   4.706  11.910   7.902  0.0730  0.0815 -0.0028
 1011YOPC   C1B14619   5.355  11.514   7.027 -0.0203 -0.0764 -0.1553
 1011YOPC   C2B14620   5.709  11.729   7.320  0.5077  0.1501  0.0126
 1011YOPC   D3B14621   6.107  11.882   7.301 -0.0501 -0.1621  0.3317
 1011YOPC   C4B14622   6.420  12.226   7.349 -0.1629  0.0656  0.2196
 1012YOPC   NC314623   6.461   7.499   6.037 -0.3128  0.1287 -0.1173
 1012YOPC   PO414624   6.231   7.812   5.920 -0.1163 -0.0652 -0.1546
 1012YOPC   GL114625   6.413   8.022   6.283  0.2630 -0.0831  0.0499
 1012YOPC   GL214626   6.193   7.769   6.531  0.2126  0.0355 -0.2245
 1012YOPC   C1A14627   6.348   8.205   6.737  0.0526 -0.2406  0.0112
 1012YOPC   D2A14628   6.128   8.374   7.076 -0.0494  0.0383  0.0307
 1012YOPC   C3A14629   6.233   8.361   7.494  0.1162 -0.0811 -0.3226
 1012YOPC   C4A14630   6.115   8.032   7.729  0.3140 -0.1370  0.0301
 1012YOPC   C1B14631   5.890   8.081   6.648  0.1708  0.0643 -0.0314
 1012YOPC   C2B14632   5.677   8.165   6.982 -0.0188  0.1104  0.0101
 1012YOPC   D3B14633   5.334   8.021   7.348 -0.1957  0.0468 -0.0133
 1012YOPC   C4B14634   5.061   7.834   7.616 -0.1149  0.4664  0.0000
 1013YOPC   NC314635   3.205  12.024   5.840 -0.2765  0.2576  0.2095
 1013YOPC   PO414636   2.798  12.163   5.769  0.1728 -0.0068 -0.0083
 1013YOPC   GL114637   2.921  12.280   6.176 -0.0729 -0.1481  0.0741
 1013YOPC   GL214638   3.204  12.359   6.165 -0.0329  0.2432  0.2406
 1013YOPC   C1A14639   2.874  12.549   6.514 -0.2132  0.0410  0.4030
 1013YOPC   D2A14640   2.869  12.597   6.930 -0.0670 -0.0973  0.2258
 1013YOPC   C3A14641   2.506  12.491   7.170 -0.3785 -0.0057  0.0213
 1013YOPC   C4A14642   2.226  12.268   7.542 -0.0322  0.0577 -0.2064
 1013YOPC   C1B14643   3.213  12.141   6.551 -0.0130 -0.2637 -0.0412
 1013YOPC   C2B14644   3.309  12.233   6.949  0.0324  0.0320 -0.0322
 1013YOPC   D3B14645   3.181  12.462   7.314 -0.0687 -0.0773 -0.0420
 1013YOPC   C4B14646   3.190  12.735   7.658 -0.2399  0.0790 -0.0714
 1014YOPC   NC314647  10.624   6.112   6.062  0.2536 -0.0453  0.4057
 1014YOPC   PO414648  10.704   6.462   6.154 -0.1099  0.1182  0.0904
 1014YOPC   GL114649  10.729   6.429   6.596  0.0523  0.3797  0.1979
 1014YOPC   GL214650  10.962   6.645   6.607  0.0103 -0.1272  0.0634
 1014YOPC   C1A14651  10.758   6.319   7.110 -0.1121  0.0175 -0.1720
 1014YOPC   D2A14652  10.991   6.520   7.418 -0.0087 -0.0341  0.1225
 1014YOPC   C3A14653  11.162   6.423   7.863  0.1043 -0.0795 -0.0828
 1014YOPC   C4A14654  11.037   6.489   8.236  0.0635  0.0827 -0.0145
 1014YOPC   C1B14655  10.903   6.917   7.014 -0.2667  0.0509  0.0515
 1014YOPC   C2B14656  10.566   6.807   7.395 -0.0337 -0.2239  0.0180
 1014YOPC   D3B14657  10.490   6.460   7.715 -0.1211  0.2153 -0.0921
 1014YOPC   C4B14658  10.685   6.218   7.797 -0.0586 -0.0969 -0.3035
 1015YOPC   NC314659   1.793  12.504   5.930  0.1988 -0.2889  0.3280
 1015YOPC   PO414660   1.412  12.208   6.022 -0.0148 -0.3005 -0.0108
 1015YOPC   GL114661   1.103  12.017   6.363 -0.0778  0.3015  0.2119
 1015YOPC   GL214662   1.112  11.718   6.502 -0.0312 -0.4321  0.0517
 1015YOPC   C1A14663   0.672  12.064   6.616 -0.2834  0.1329  0.2714
 1015YOPC   D2A14664   0.371  11.846   6.867  0.1436  0.2546 -0.1600
 1015YOPC   C3A14665   0.346  11.948   7.268 -0.0045  0.2217  0.2421
 1015YOPC   C4A14666   0.616  12.273   7.410 -0.2439  0.1142 -0.2772
 1015YOPC   C1B14667   1.475  11.368   6.514  0.2071 -0.3972 -0.4108
 1015YOPC   C2B14668   1.900  11.240   6.753 -0.0481 -0.0295  0.4902
 1015YOPC   D3B14669   1.704  11.313   7.100  0.0744  0.1541  0.2177
 1015YOPC   C4B14670   1.920  11.372   7.518  0.1594 -0.1828  0.0076
 1016YOPC   NC314671   5.239  12.532   6.177  0.0193 -0.3786  0.1291
 1016YOPC   PO414672   5.698  12.579   6.100  0.0180  0.1393  0.2039
 1016YOPC   GL114673   5.538  12.816   6.603  0.0653 -0.0151 -0.1028
 1016YOPC   GL214674   5.196  12.644   6.705  0.2791  0.1594 -0.3007
 1016YOPC   C1A14675   5.405  13.180   6.760 -0.0763  0.0816 -0.0068
 1016YOPC   D2A14676   5.016  13.071   7.073 -0.3561 -0.0427 -0.2688
 1016YOPC   C3A14677   4.891  13.317   7.449  0.1147 -0.2010  0.1414
 1016YOPC   C4A14678   5.179  13.556   7.741  0.1493  0.1551 -0.1161
 1016YOPC   C1B14679   5.232  12.503   7.081  0.0451 -0.6253  0.3148
 1016YOPC   C2B14680   5.218  12.663   7.448  0.1296 -0.1051 -0.4675
 1016YOPC   D3B14681   5.495  12.396   7.739 -0.1185 -0.1663 -0.0087
 1016YOPC   C4B14682   5.758  12.021   7.734  0.1856 -0.1685  0.0985
 1017YOPC   NC314683   5.762   2.522   6.037  0.3123 -0.1854  0.0135
 1017YOPC   PO414684   5.724   2.053   5.820 -0.1382  0.2976  0.0686
 1017YOPC   GL114685   5.766   2.032   6.241 -0.2091  0.2092  0.2776
 1017YOPC   GL214686   6.012   2.148   6.299 -0.1042 -0.2668 -0.0560
 1017YOPC   C1A14687   5.477   1.959   6.548 -0.0460  0.0708  0.0380
 1017YOPC   D2A14688   5.664   2.157   6.980  0.1752  0.2210 -0.0866
 1017YOPC   C3A14689   5.430   2.051   7.306 -0.2075 -0.1816 -0.1749
 1017YOPC   C4A14690   5.275   2.103   7.731 -0.3152  0.0834  0.6735
 1017YOPC   C1B14691   5.976   1.898   6.719 -0.3077  0.3260  0.0984
 1017YOPC   C2B14692   6.112   1.731   7.167  0.2481  0.2436 -0.3413
 1017YOPC   D3B14693   5.796   1.732   7.487 -0.0643 -0.0774  0.0146
 1017YOPC   C4B14694   5.514   1.625   7.840 -0.0757  0.3357 -0.4617
 1018YOPC   NC314695   4.837   4.681   5.615 -0.1106  0.0694 -0.1285
 1018YOPC   PO414696   4.906   4.314   5.895  0.3161  0.2447 -0.0624
 1018YOPC   GL114697   4.921   4.460   6.213 -0.2859 -0.0355 -0.2018
 1018YOPC   GL214698   5.259   4.521   6.330 -0.1173 -0.3138 -0.0853
 1018YOPC   C1A14699   4.830   4.549   6.621 -0.1794 -0.1837 -0.0083
 1018YOPC   D2A14700   4.744   4.530   6.999 -0.3117 -0.1881 -0.0608
 1018YOPC   C3A14701   4.646   4.619   7.435  0.0848  0.2547 -0.3576
 1018YOPC   C4A14702   4.488   4.724   7.786  0.1080  0.1249  0.0482
 1018YOPC   C1B14703   5.325   4.399   6.732  0.0358 -0.3542  0.1150
 1018YOPC   C2B14704   5.299   4.511   7.164  0.3476 -0.1812 -0.0265
 1018YOPC   D3B14705   5.384   4.890   7.385 -0.0252 -0.3971 -0.1255
 1018YOPC   C4B14706   5.444   4.928   7.821  0.0816 -0.0442  0.2367
 1019YOPC   NC314707   8.082   9.150   6.093 -0.0253 -0.4645 -0.1524
 1019YOPC   PO414708   8.339   9.487   6.044 -0.1445  0.0538 -0.3251
 1019YOPC   GL114709   8.378   9.562   6.493  0.0971 -0.0683  0.1416
 1019YOPC   GL214710   8.372   9.229   6.627  0.1734 -0.3464  0.1873
 1019YOPC   C1A14711   8.141   9.672   6.758  0.3216  0.2274 -0.1495
 1019YOPC   D2A14712   7.689   9.695   6.782  0.0410  0.2194 -0.1999
 1019YOPC   C3A14713   7.316   9.696   6.975  0.2249  0.1626 -0.0570
 1019YOPC   C4A14714   7.103   9.307   7.146  0.0149  0.0616 -0.0847
 1019YOPC   C1B14715   8.351   9.311   7.072 -0.1571  0.0709  0.0851
 1019YOPC   C2B14716   8.086   9.525   7.355 -0.1667  0.0045 -0.0094
 1019YOPC   D3B14717   7.941   9.902   7.136 -0.1568  0.0674 -0.0347
 1019YOPC   C4B14718   7.899  10.293   7.133  0.1581 -0.0331 -0.1057
 1020YOPC   NC314719   8.014   1.969   6.359 -0.0689  0.3037  0.1913
 1020YOPC   PO414720   7.695   2.318   6.125  0.0611 -0.2749 -0.1512
 1020YOPC   GL114721   7.786   2.423   6.603  0.1498 -0.0306 -0.2746
 1020YOPC   GL214722   8.057   2.275   6.757  0.0610  0.2872  0.2067
 1020YOPC   C1A14723   7.704   2.604   6.983  0.0311  0.1675 -0.1288
 1020YOPC   D2A14724   7.703   2.937   7.239  0.1127 -0.1385  0.0873
 1020YOPC   C3A14725   7.936   2.900   7.615 -0.0206 -0.0324  0.2260
 1020YOPC   C4A14726   8.142   3.135   8.015  0.3056  0.1881  0.1437
 1020YOPC   C1B14727   7.752   2.113   7.054 -0.0788  0.0348  0.3132
 1020YOPC   C2B14728   7.608   2.001   7.487 -0.2062 -0.1344 -0.2872
 1020YOPC   D3B14729   7.347   1.616   7.673 -0.0397 -0.1713  0.2325
 1020YOPC   C4B14730   7.140   1.285   7.575  0.1699 -0.0137  0.0104
 1021YOPC   NC314731   1.067   3.724   5.690  0.1873 -0.2657  0.0708
 1021YOPC   PO414732   0.663   3.654   5.642 -0.0231 -0.2513 -0.0147
 1021YOPC   GL114733   0.453   3.511   5.970  0.2914 -0.4622 -0.5607
 1021YOPC   GL214734   0.182   3.224   6.073  0.0702 -0.1615  0.2198
 1021YOPC   C1A14735   0.199   3.840   6.267  0.0190 -0.0542  0.1834
 1021YOPC   D2A14736   0.317   4.103   6.673  0.0009  0.0168  0.1847
 1021YOPC   C3A14737   0.086   4.313   7.059 -0.0182 -0.1598  0.1728
 1021YOPC   C4A14738   0.114   4.599   7.361  0.0940 -0.0876  0.0241
 1021YOPC   C1B14739   0.140   3.245   6.561 -0.0074 -0.1382  0.5610
 1021YOPC   C2B14740   0.022   3.255   7.018 -0.0713 -0.2863  0.0160
 1021YOPC   D3B14741  -0.326   3.466   7.282  0.1404  0.1066  0.1487
 1021YOPC   C4B14742  -0.644   3.634   7.481 -0.2220  0.2507 -0.0717
 1022YOPC   NC314743  17.112   2.846   5.587 -0.1214  0.0135  0.1419
 1022YOPC   PO414744  17.489   2.994   5.502 -0.0240 -0.2132 -0.2166
 1022YOPC   GL114745  17.498   2.826   5.973  0.0395 -0.1442  0.0068
 1022YOPC   GL214746  17.745   2.487   6.008  0.0241  0.0606  0.0625
 1022YOPC   C1A14747  17.301   2.721   6.329 -0.2515  0.2845 -0.1744
 1022YOPC   D2A14748  17.262   2.956   6.640  0.1004  0.1613  0.1404
 1022YOPC   C3A14749  17.344   2.977   7.049 -0.0252  0.0404 -0.2871
 1022YOPC   C4A14750  17.213   2.680   7.334  0.1007 -0.0280 -0.1360
 1022YOPC   C1B14751  18.073   2.215   6.306  0.2950 -0.0049  0.1454
 1022YOPC   C2B14752  17.996   2.307   6.781 -0.2263 -0.0743 -0.0580
 1022YOPC   D3B14753  17.697   1.959   6.820 -0.1540  0.4218  0.0148
 1022YOPC   C4B14754  17.671   1.544   6.904  0.2612  0.0162 -0.3058
 1023YOPC   NC314755   1.861  11.558   5.713 -0.1954 -0.1039 -0.2146
 1023YOPC   PO414756   1.900  12.043   5.777  0.1283 -0.1896  0.0642
 1023YOPC   GL114757   1.874  12.183   6.314 -0.1369 -0.0083 -0.1331
 1023YOPC   GL214758   1.630  12.030   6.436  0.2003 -0.2096  0.4484
 1023YOPC   C1A14759   2.300  12.341   6.548  0.1904  0.0066  0.2034
 1023YOPC   D2A14760   2.566  11.976   6.499  0.1241 -0.0381 -0.3419
 1023YOPC   C3A14761   2.799  12.079   6.829 -0.1683  0.1016 -0.0269
 1023YOPC   C4A14762   2.820  12.141   7.242  0.2147 -0.0116  0.1064
 1023YOPC   C1B14763   1.975  11.969   6.737 -0.0696  0.0861 -0.1499
 1023YOPC   C2B14764   2.355  12.011   6.995  0.0682 -0.0264  0.2652
 1023YOPC   D3B14765   2.392  11.861   7.335  0.2063 -0.1638 -0.2161
 1023YOPC   C4B14766   2.566  11.853   7.705  0.1127  0.2822  0.0705
 1024YOPC   NC314767   2.959   5.775   5.907  0.0557  0.0571 -0.0945
 1024YOPC   PO414768   3.088   5.445   5.846  0.0072 -0.1131  0.2238
 1024YOPC   GL114769   3.209   5.157   6.134  0.1237 -0.0999 -0.2383
 1024YOPC   GL214770   3.045   4.893   6.095 -0.1034 -0.4044  0.1162
 1024YOPC   C1A14771   3.301   5.420   6.506  0.1944 -0.2523  0.1993
 1024YOPC   D2A14772   3.588   5.403   6.917  0.0320  0.0072  0.0533
 1024YOPC   C3A14773   4.043   5.195   6.928 -0.1864 -0.0218 -0.0137
 1024YOPC   C4A14774   4.373   5.130   6.522  0.2172  0.0028 -0.0081
 1024YOPC   C1B14775   2.901   4.951   6.575  0.3522 -0.2749  0.1989
 1024YOPC   C2B14776   2.585   5.021   6.869  0.2375  0.0292  0.0919
 1024YOPC   D3B14777   2.636   5.441   7.090 -0.4288 -0.1628  0.1703
 1024YOPC   C4B14778   2.342   5.477   7.402 -0.0463 -0.0427  0.1452
 1025YOPC   NC314779  16.791  10.466   5.803  0.0865  0.0756  0.2290
 1025YOPC   PO414780  16.756  10.573   6.231 -0.1606 -0.1538 -0.2278
 1025YOPC   GL114781  16.920  10.316   6.617 -0.0993  0.3118  0.3338
 1025YOPC   GL214782  17.195  10.333   6.586 -0.0967 -0.1741 -0.0274
 1025YOPC   C1A14783  16.951  10.313   7.115  0.2591  0.5928 -0.0925
 1025YOPC   D2A14784  17.005  10.274   7.512 -0.0291  0.2939 -0.0222
 1025YOPC   C3A14785  16.817  10.506   7.818  0.0804 -0.0718  0.0859
 1025YOPC   C4A14786  16.512  10.401   8.087  0.0304 -0.3058 -0.1573
 1025YOPC   C1B14787  17.325  10.053   6.868  0.1586 -0.0865  0.1850
 1025YOPC   C2B14788  17.547  10.120   7.186  0.1684  0.3922  0.0885
 1025YOPC   D3B14789  17.492  10.188   7.618  0.0822 -0.2800 -0.0103
 1025YOPC   C4B14790  17.293  10.553   7.847  0.1186  0.2583  0.3582
 1026YOPC   NC314791   4.334   9.351   6.095 -0.3423  0.0058 -0.0378
 1026YOPC   PO414792   4.052   8.933   6.026  0.0318  0.2582  0.2202
 1026YOPC   GL114793   3.758   8.836   6.437 -0.1702  0.0731 -0.0436
 1026YOPC   GL214794   3.545   8.473   6.429 -0.3959 -0.2949 -0.1097
 1026YOPC   C1A14795   3.872   8.487   6.798 -0.0613 -0.1431  0.0530
 1026YOPC   D2A14796   4.227   8.601   6.976 -0.2833 -0.0110  0.1924
 1026YOPC   C3A14797   4.342   9.033   6.925  0.1347 -0.0166  0.2992
 1026YOPC   C4A14798   4.678   9.167   7.271 -0.1530 -0.0724 -0.1145
 1026YOPC   C1B14799   3.365   8.853   6.786  0.4380 -0.1851  0.2925
 1026YOPC   C2B14800   3.409   9.176   7.069  0.0763  0.1760 -0.0867
 1026YOPC   D3B14801   3.541   9.203   7.485 -0.2144  0.0706  0.1097
 1026YOPC   C4B14802   3.852   9.550   7.543  0.2941  0.1797  0.2411
 1027YOPC   NC314803   2.566   8.785   5.171 -0.0442  0.2440  0.1314
 1027YOPC   PO414804   2.262   8.496   5.454 -0.2899  0.3728 -0.3248
 1027YOPC   GL114805   2.223   8.505   5.969 -0.0226  0.1255 -0.2583
 1027YOPC   GL214806   1.959   8.254   6.139 -0.2624 -0.1815  0.0624
 1027YOPC   C1A14807   2.167   8.599   6.407 -0.1007 -0.0707  0.1289
 1027YOPC   D2A14808   2.313   8.533   6.753 -0.0388  0.0609  0.3583
 1027YOPC   C3A14809   2.240   8.715   7.147  0.0563  0.1731 -0.2933
 1027YOPC   C4A14810   2.312   8.888   7.511  0.0098 -0.2330 -0.0063
 1027YOPC   C1B14811   2.056   8.102   6.639  0.3991 -0.0890  0.0436
 1027YOPC   C2B14812   1.810   7.704   7.003  0.4683  0.2733  0.2328
 1027YOPC   D3B14813   1.880   7.811   7.416 -0.1490 -0.0716 -0.2527
 1027YOPC   C4B14814   1.874   8.045   7.725 -0.1936 -0.0644 -0.0801
 1028YOPC   NC314815  16.706   4.391   5.970 -0.2874 -0.2187 -0.0623
 1028YOPC   PO414816  16.235   4.209   5.943  0.1628 -0.1849 -0.3022
 1028YOPC   GL114817  16.461   4.289   6.399 -0.1489 -0.0884 -0.1229
 1028YOPC   GL214818  16.693   4.421   6.480 -0.1688 -0.1336 -0.0830
 1028YOPC   C1A14819  16.471   4.280   6.901  0.3071  0.0025 -0.2647
 1028YOPC   D2A14820  16.748   4.068   7.215 -0.1649 -0.3379 -0.0260
 1028YOPC   C3A14821  16.616   4.079   7.607  0.1249  0.0954 -0.0721
 1028YOPC   C4A14822  16.441   4.178   8.024 -0.3141  0.4483  0.2864
 1028YOPC   C1B14823  16.915   4.164   6.709 -0.2624  0.2935 -0.0642
 1028YOPC   C2B14824  16.837   3.781   6.805 -0.0036  0.0464 -0.0700
 1028YOPC   D3B14825  16.452   3.780   6.907 -0.0714  0.2000 -0.0286
 1028YOPC   C4B14826  16.264   3.989   7.261  0.0715  0.2854 -0.2622
 1029YOPC   NC314827   3.329  14.757   5.913  0.1701 -0.0526  0.0454
 1029YOPC   PO414828   3.013  14.804   5.694  0.0697  0.0117  0.1318
 1029YOPC   GL114829   2.934  14.952   6.114  0.2125  0.0036 -0.3214
 1029YOPC   GL214830   3.004  14.660   6.233  0.0533  0.3464  0.5259
 1029YOPC   C1A14831   2.991  15.242   6.345  0.1722 -0.3785 -0.4383
 1029YOPC   D2A14832   3.174  15.305   6.729  0.0924 -0.2234  0.3033
 1029YOPC   C3A14833   3.205  15.295   7.135  0.1384  0.1568 -0.0003
 1029YOPC   C4A14834   2.866  15.381   7.488 -0.1596  0.0948 -0.2849
 1029YOPC   C1B14835   2.690  14.748   6.488 -0.0259 -0.2105  0.1350
 1029YOPC   C2B14836   2.723  15.071   6.775  0.1400  0.0665  0.1557
 1029YOPC   D3B14837   2.589  15.400   6.709  0.0010  0.0893  0.2139
 1029YOPC   C4B14838   2.687  15.712   6.482 -0.0805 -0.3391 -0.3302
 1030YOPC   NC314839  13.630   0.592   6.029  0.3111  0.2207  0.0866
 1030YOPC   PO414840  13.191   0.355   5.978  0.4061  0.2221 -0.2723
 1030YOPC   GL114841  13.236   0.299   6.304  0.2531  0.2497 -0.0627
 1030YOPC   GL214842  13.596   0.267   6.419 -0.3209  0.0355 -0.0283
 1030YOPC   C1A14843  13.125   0.603   6.630  0.1961 -0.2651 -0.1579
 1030YOPC   D2A14844  13.028   0.857   7.041 -0.1898 -0.1234  0.0476
 1030YOPC   C3A14845  13.099   0.605   7.354  0.0269 -0.2783 -0.0331
 1030YOPC   C4A14846  13.380   0.272   7.443 -0.1494  0.0424 -0.1047
 1030YOPC   C1B14847  13.469   0.404   6.887 -0.0836 -0.0503 -0.0529
 1030YOPC   C2B14848  13.706   0.607   7.236 -0.1780 -0.2287 -0.1175
 1030YOPC   D3B14849  13.999   0.579   7.519 -0.1041 -0.1485  0.2817
 1030YOPC   C4B14850  14.448   0.482   7.682 -0.3966  0.2317  0.0083
 1031YOPC   NC314851  11.453   7.000   5.998  0.1179 -0.1493  0.1377
 1031YOPC   PO414852  11.731   6.781   6.273 -0.0959 -0.0265 -0.2344
 1031YOPC   GL114853  12.056   6.783   6.635  0.2503 -0.0426  0.1455
 1031YOPC   GL214854  12.228   7.005   6.674  0.4311  0.0151  0.0466
 1031YOPC   C1A14855  12.295   6.596   6.992 -0.1387 -0.1783 -0.1209
 1031YOPC   D2A14856  12.661   6.760   7.202 -0.1853  0.0002  0.1366
 1031YOPC   C3A14857  12.708   6.840   7.558 -0.0268  0.0236 -0.2418
 1031YOPC   C4A14858  12.558   6.518   7.868  0.2194 -0.0003 -0.1431
 1031YOPC   C1B14859  11.981   7.280   6.979  0.1988  0.0607 -0.1687
 1031YOPC   C2B14860  11.980   7.407   7.442  0.0472 -0.0518 -0.3245
 1031YOPC   D3B14861  11.808   7.080   7.556 -0.3325  0.0117  0.0283
 1031YOPC   C4B14862  11.735   6.562   7.487 -0.0706  0.1588 -0.0522
 1032YOPC   NC314863  11.720   4.600   5.753  0.0269 -0.1341  0.1699
 1032YOPC   PO414864  11.642   4.353   6.160 -0.0762  0.1255  0.0142
 1032YOPC   GL114865  11.714   4.582   6.609 -0.0698  0.2669  0.0137
 1032YOPC   GL214866  11.511   4.767   6.708  0.0404 -0.3178 -0.1003
 1032YOPC   C1A14867  11.870   4.319   6.983 -0.5686 -0.0793 -0.0679
 1032YOPC   D2A14868  12.141   4.037   7.168  0.0686  0.3462  0.1327
 1032YOPC   C3A14869  12.175   3.832   7.504  0.1453 -0.0143 -0.1535
 1032YOPC   C4A14870  12.301   3.642   7.889 -0.0842 -0.3533 -0.0756
 1032YOPC   C1B14871  11.846   4.900   6.955  0.0936 -0.2812 -0.0984
 1032YOPC   C2B14872  12.034   4.775   7.279 -0.0995 -0.3191  0.2450
 1032YOPC   D3B14873  11.958   4.549   7.550 -0.1051 -0.1683  0.1910
 1032YOPC   C4B14874  11.782   4.513   7.930  0.0977 -0.1719  0.1645
 1033YOPC   NC314875   4.481  14.776   5.594 -0.2150  0.1602  0.1759
 1033YOPC   PO414876   4.261  14.464   5.844  0.2037 -0.2384  0.0272
 1033YOPC   GL114877   4.121  14.624   6.145  0.0311 -0.2524 -0.1813
 1033YOPC   GL214878   3.948  14.408   6.332  0.1578 -0.0762  0.1565
 1033YOPC   C1A14879   4.038  14.810   6.679  0.0943  0.0008  0.1361
 1033YOPC   D2A14880   4.090  15.027   7.127 -0.0908 -0.1308 -0.1636
 1033YOPC   C3A14881   4.514  15.043   7.460  0.2643  0.2168 -0.1227
 1033YOPC   C4A14882   4.697  15.004   7.876 -0.0208  0.0805  0.1287
 1033YOPC   C1B14883   3.801  14.369   6.657  0.0885 -0.3003  0.1380
 1033YOPC   C2B14884   3.745  14.423   6.967  0.1068  0.3013  0.0061
 1033YOPC   D3B14885   3.963  14.470   7.357 -0.1342 -0.2685 -0.0615
 1033YOPC   C4B14886   4.006  14.281   7.753  0.2214 -0.2546  0.2247
 1034YOPC   NC314887  16.857   0.348   5.646 -0.2247  0.2488  0.1763
 1034YOPC   PO414888  16.947  -0.046   5.782  0.1877  0.0393  0.5944
 1034YOPC   GL114889  17.115  -0.097   6.132  0.0001  0.2291 -0.3459
 1034YOPC   GL214890  17.349   0.009   6.153 -0.2399 -0.0071 -0.2950
 1034YOPC   C1A14891  17.266  -0.320   6.526 -0.0057  0.1147  0.1916
 1034YOPC   D2A14892  17.324  -0.105   6.947  0.1950  0.0934  0.2204
 1034YOPC   C3A14893  17.122  -0.159   7.423  0.1244 -0.1564  0.2475
 1034YOPC   C4A14894  17.390  -0.087   7.721 -0.1141 -0.0227 -0.4009
 1034YOPC   C1B14895  17.720   0.008   6.471 -0.0409 -0.0529  0.0007
 1034YOPC   C2B14896  17.871  -0.010   6.904  0.0836 -0.3630  0.0056
 1034YOPC   D3B14897  18.016   0.398   7.134 -0.0336  0.0795 -0.0800
 1034YOPC   C4B14898  17.806   0.609   7.524  0.0799 -0.0925  0.3542
 1035YOPC   NC314899  11.092  14.058   5.968  0.1334  0.0011  0.1027
 1035YOPC   PO414900  10.992  14.437   5.843  0.0846  0.0408  0.2317
 1035YOPC   GL114901  11.147  14.404   6.306  0.1603  0.1416 -0.1848
 1035YOPC   GL214902  11.118  14.738   6.540 -0.0456 -0.0782 -0.0053
 1035YOPC   C1A14903  11.341  14.394   6.804 -0.0920 -0.1866  0.0042
 1035YOPC   D2A14904  11.083  14.194   7.110 -0.0540  0.6029 -0.0894
 1035YOPC   C3A14905  11.125  14.067   7.494  0.0437 -0.2835  0.0714
 1035YOPC   C4A14906  11.275  14.051   7.911  0.1470  0.2563  0.5007
 1035YOPC   C1B14907  11.342  14.871   6.968 -0.3953  0.2142 -0.2870
 1035YOPC   C2B14908  11.396  14.919   7.403 -0.1323 -0.2446 -0.0113
 1035YOPC   D3B14909  11.122  15.050   7.713 -0.4546 -0.0274  0.1417
 1035YOPC   C4B14910  10.876  15.221   8.041 -0.1323 -0.1866 -0.3907
 1036YOPC   NC314911  10.287  17.479   5.793  0.0414 -0.1174 -0.0797
 1036YOPC   PO414912  10.248  17.012   6.020  0.5896 -0.2741 -0.0096
 1036YOPC   GL114913  10.359  17.199   6.424 -0.0421  0.0324 -0.0124
 1036YOPC   GL214914  10.191  17.454   6.462 -0.0809  0.2191  0.0893
 1036YOPC   C1A14915  10.577  17.062   6.866  0.1615  0.0399 -0.0505
 1036YOPC   D2A14916  10.936  17.248   7.134 -0.2208 -0.1244  0.1914
 1036YOPC   C3A14917  10.838  17.377   7.562 -0.3120 -0.1214 -0.2073
 1036YOPC   C4A14918  10.914  17.544   8.027  0.1709  0.0129 -0.1203
 1036YOPC   C1B14919  10.237  17.510   6.837  0.0950  0.1858 -0.5163
 1036YOPC   C2B14920  10.437  17.522   7.199  0.3521 -0.0280  0.2155
 1036YOPC   D3B14921  10.348  18.008   7.372  0.0041  0.2149 -0.0892
 1036YOPC   C4B14922  10.509  18.267   7.826  0.0462 -0.2345 -0.0213
 1037YOPC   NC314923  17.593   4.777   5.683 -0.6067  0.0694 -0.1193
 1037YOPC   PO414924  17.241   4.711   5.920 -0.2637  0.0708 -0.3117
 1037YOPC   GL114925  17.039   4.791   6.285  0.1440 -0.1970 -0.0643
 1037YOPC   GL214926  16.705   4.876   6.342 -0.3358 -0.1369  0.2741
 1037YOPC   C1A14927  16.924   4.756   6.794  0.4095 -0.1012  0.2094
 1037YOPC   D2A14928  16.855   4.531   7.203 -0.0372  0.0315  0.1158
 1037YOPC   C3A14929  17.119   4.265   7.483 -0.1395 -0.3078 -0.0614
 1037YOPC   C4A14930  17.103   3.772   7.516 -0.0730  0.1684  0.1410
 1037YOPC   C1B14931  16.618   5.159   6.525 -0.0187 -0.0896  0.2202
 1037YOPC   C2B14932  16.763   5.185   6.913 -0.1726 -0.1599  0.0222
 1037YOPC   D3B14933  16.517   5.014   7.324 -0.0671 -0.2133 -0.1277
 1037YOPC   C4B14934  16.542   5.093   7.744  0.1956  0.3396  0.0435
 1038YOPC   NC314935  16.104   7.420   6.012 -0.0385  0.2917 -0.0049
 1038YOPC   PO414936  15.681   7.399   6.053  0.0625  0.1071 -0.0317
 1038YOPC   GL114937  15.764   7.298   6.330  0.1264  0.1671 -0.1354
 1038YOPC   GL214938  15.593   7.017   6.428 -0.0958 -0.1827 -0.0285
 1038YOPC   C1A14939  15.728   7.442   6.734  0.0280 -0.5181 -0.1350
 1038YOPC   D2A14940  16.038   7.401   7.054  0.0099  0.3107  0.4237
 1038YOPC   C3A14941  16.419   7.297   7.136 -0.2195 -0.0634  0.1150
 1038YOPC   C4A14942  16.848   7.146   7.126  0.3868 -0.1052 -0.0607
 1038YOPC   C1B14943  15.585   6.929   6.864  0.1170  0.0286  0.3160
 1038YOPC   C2B14944  15.403   6.696   7.125  0.3864 -0.3341 -0.1844
 1038YOPC   D3B14945  15.332   6.830   7.525  0.0205 -0.0899  0.0054
 1038YOPC   C4B14946  15.062   7.043   7.839 -0.3131  0.0479  0.0876
 1039YOPC   NC314947   9.070   0.584   5.914  0.0797  0.1254  0.2489
 1039YOPC   PO414948   9.368   0.905   6.150  0.0807  0.1517 -0.0544
 1039YOPC   GL114949   9.231   1.199   6.449  0.2765 -0.2538 -0.1492
 1039YOPC   GL214950   9.362   1.505   6.597  0.1996 -0.3983 -0.1563
 1039YOPC   C1A14951   8.873   1.203   6.758 -0.0654 -0.2759  0.2618
 1039YOPC   D2A14952   8.806   1.023   7.080 -0.1249  0.0900 -0.2189
 1039YOPC   C3A14953   8.576   1.155   7.430 -0.1101 -0.1364 -0.0429
 1039YOPC   C4A14954   8.606   1.330   7.702 -0.3485 -0.2623 -0.0240
 1039YOPC   C1B14955   9.207   1.411   6.979  0.0773 -0.0514  0.1878
 1039YOPC   C2B14956   8.994   1.469   7.304  0.0389  0.2022  0.0841
 1039YOPC   D3B14957   9.038   1.749   7.587  0.1884 -0.0055 -0.0670
 1039YOPC   C4B14958   8.956   1.747   7.993  0.1032  0.2744  0.0220
 1040YOPC   NC314959  18.215   7.437   5.809  0.0026 -0.0259 -0.0675
 1040YOPC   PO414960  18.835   7.439   5.879 -0.1843 -0.2370  0.1521
 1040YOPC   GL114961  19.253   7.433   6.289  0.2627 -0.0900 -0.3982
 1040YOPC   GL214962  19.531   7.381   6.216  0.1269 -0.1396 -0.0919
 1040YOPC   C1A14963  19.388   7.611   6.644  0.0379 -0.0667  0.1104
 1040YOPC   D2A14964  19.398   8.007   6.816  0.4492  0.1408 -0.0223
 1040YOPC   C3A14965  19.412   8.169   7.210 -0.1801  0.0242 -0.1800
 1040YOPC   C4A14966  19.493   7.957   7.559  0.1044 -0.3830  0.2002
 1040YOPC   C1B14967  19.589   7.166   6.608  0.2094  0.0649 -0.1983
 1040YOPC   C2B14968  19.358   7.148   6.994 -0.2326 -0.0980  0.0926
 1040YOPC   D3B14969  19.591   7.214   7.357  0.2544 -0.0227  0.0544
 1040YOPC   C4B14970  19.699   7.388   7.584  0.0903  0.2144 -0.2655
 1041YOPC   NC314971   1.144   0.737   5.614  0.3153  0.2903 -0.2195
 1041YOPC   PO414972   1.449   0.475   5.899 -0.0261  0.0071  0.0025
 1041YOPC   GL114973   1.082   0.435   6.119 -0.1493  0.1481 -0.0847
 1041YOPC   GL214974   0.712   0.378   6.045  0.3343  0.1495 -0.0107
 1041YOPC   C1A14975   0.834   0.257   6.553 -0.0988 -0.0525  0.2320
 1041YOPC   D2A14976   0.600   0.354   6.906  0.0940 -0.1187  0.0813
 1041YOPC   C3A14977   0.877   0.252   7.218  0.1178 -0.2470 -0.1065
 1041YOPC   C4A14978   0.874   0.284   7.700  0.4402  0.1773 -0.0197
 1041YOPC   C1B14979   0.377   0.338   6.226 -0.1766  0.2707 -0.1147
 1041YOPC   C2B14980  -0.030   0.191   6.455 -0.0880  0.2131 -0.0514
 1041YOPC   D3B14981   0.108   0.111   6.899 -0.1286  0.1889  0.0720
 1041YOPC   C4B14982  -0.075  -0.151   7.304 -0.2313 -0.0284  0.1442
 1042YOPC   NC314983   3.718   6.010   5.419 -0.1765 -0.0653 -0.1224
 1042YOPC   PO414984   3.884   5.726   5.693 -0.1112  0.2170 -0.1964
 1042YOPC   GL114985   4.147   5.570   6.027 -0.1980  0.1545  0.1524
 1042YOPC   GL214986   4.271   5.801   6.178  0.1101 -0.1848 -0.0316
 1042YOPC   C1A14987   4.165   5.556   6.585 -0.0200 -0.1560  0.3073
 1042YOPC   D2A14988   3.904   5.808   6.827 -0.1165 -0.2805 -0.3831
 1042YOPC   C3A14989   3.914   5.765   7.240 -0.0565 -0.0003 -0.1306
 1042YOPC   C4A14990   3.798   5.404   7.377 -0.2716  0.0094 -0.0471
 1042YOPC   C1B14991   4.174   6.057   6.504  0.3044 -0.0471  0.2154
 1042YOPC   C2B14992   4.050   6.377   6.787 -0.1032  0.2423  0.2209
 1042YOPC   D3B14993   3.811   6.253   7.103 -0.1781 -0.0623  0.1917
 1042YOPC   C4B14994   3.579   6.131   7.471  0.4061  0.2010 -0.0260
 1043YOPC   NC314995  13.516  14.517   6.037  0.2109 -0.1184 -0.0238
 1043YOPC   PO414996  13.041  14.512   6.160 -0.3514 -0.2198 -0.0682
 1043YOPC   GL114997  13.128  14.600   6.498  0.0393 -0.0285  0.2576
 1043YOPC   GL214998  13.468  14.642   6.620  0.0150 -0.1856 -0.0221
 1043YOPC   C1A14999  13.058  14.709   6.932 -0.1222 -0.0947 -0.3587
 1043YOPC   D2A15000  13.053  14.764   7.309 -0.0842  0.0980  0.1801
 1043YOPC   C3A15001  13.172  14.426   7.546  0.3208  0.1346  0.0736
 1043YOPC   C4A15002  13.551  14.166   7.771 -0.2238 -0.1048  0.1628
 1043YOPC   C1B15003  13.508  14.551   7.101  0.0553  0.0230  0.3577
 1043YOPC   C2B15004  13.565  14.679   7.478  0.1531 -0.2211  0.1336
 1043YOPC   D3B15005  13.887  14.519   7.786  0.1256 -0.2981  0.3601
 1043YOPC   C4B15006  14.263  14.351   7.852 -0.2309  0.1644  0.2104
 1044YOPC   NC315007  17.926  14.018   5.798 -0.0103  0.2562  0.2902
 1044YOPC   PO415008  17.540  13.811   5.733 -0.0226 -0.0759  0.2658
 1044YOPC   GL115009  17.504  13.990   6.181 -0.1131  0.1870  0.2241
 1044YOPC   GL215010  17.541  14.350   6.231 -0.0112 -0.0556  0.0209
 1044YOPC   C1A15011  17.720  13.818   6.561 -0.2170  0.1138  0.1305
 1044YOPC   D2A15012  17.758  13.981   7.018 -0.1587  0.2314  0.0690
 1044YOPC   C3A15013  18.063  13.971   7.322 -0.2303 -0.0379  0.1044
 1044YOPC   C4A15014  18.342  14.091   7.662 -0.1427  0.3056 -0.1639
 1044YOPC   C1B15015  17.439  14.259   6.622 -0.0842 -0.0090  0.1234
 1044YOPC   C2B15016  17.093  14.117   6.744  0.0461 -0.1295 -0.3538
 1044YOPC   D3B15017  16.962  14.339   7.211  0.1356  0.1420  0.2673
 1044YOPC   C4B15018  17.095  14.571   7.672  0.0551  0.0928 -0.0095
 1045YOPC   NC315019   1.925  17.959   5.479 -0.2304  0.0695 -0.0308
 1045YOPC   PO415020   2.138  17.572   5.513  0.2841 -0.3144 -0.2779
 1045YOPC   GL115021   2.008  17.632   5.888 -0.0685  0.2170  0.4385
 1045YOPC   GL215022   2.113  17.416   6.184  0.1015 -0.2439  0.2578
 1045YOPC   C1A15023   2.057  17.975   6.170 -0.3746  0.1915 -0.1990
 1045YOPC   D2A15024   2.448  18.134   6.517  0.0114  0.0078  0.2622
 1045YOPC   C3A15025   2.348  18.239   6.956 -0.2159 -0.3898  0.2245
 1045YOPC   C4A15026   2.225  18.478   7.293  0.0731 -0.0905  0.1672
 1045YOPC   C1B15027   1.745  17.544   6.367  0.0395 -0.1115 -0.0725
 1045YOPC   C2B15028   1.773  18.070   6.578  0.2871  0.1938 -0.1359
 1045YOPC   D3B15029   1.636  18.348   6.889  0.0382 -0.0936 -0.2533
 1045YOPC   C4B15030   1.796  18.247   7.274  0.1196  0.0766 -0.2157
 1046YOPC   NC315031   7.102  17.522   5.619 -0.3678 -0.3409 -0.0545
 1046YOPC   PO415032   6.844  17.844   5.613  0.2522  0.1372  0.1785
 1046YOPC   GL115033   6.730  18.047   6.082 -0.1453  0.0182 -0.0836
 1046YOPC   GL215034   6.998  18.021   6.388  0.0605  0.2062 -0.0947
 1046YOPC   C1A15035   6.739  18.476   6.381 -0.0335 -0.0913 -0.2134
 1046YOPC   D2A15036   6.672  18.868   6.542  0.2327 -0.0696  0.3407
 1046YOPC   C3A15037   6.466  18.904   7.016  0.1958 -0.4880  0.3403
 1046YOPC   C4A15038   6.286  19.023   7.349  0.2608 -0.1516 -0.1098
 1046YOPC   C1B15039   6.951  18.169   6.879  0.1906 -0.1101  0.1202
 1046YOPC   C2B15040   6.822  18.283   7.305 -0.2787 -0.4648 -0.3297
 1046YOPC   D3B15041   6.760  18.679   7.361 -0.0129 -0.3872  0.1097
 1046YOPC   C4B15042   6.511  18.774   7.695 -0.3392  0.1843  0.2760
 1047YOPC   NC315043  17.581  13.311   5.714 -0.0986 -0.3089  0.3577
 1047YOPC   PO415044  18.066  13.427   5.677  0.0512 -0.4856  0.0633
 1047YOPC   GL115045  18.052  13.607   6.085  0.1502  0.0434 -0.2143
 1047YOPC   GL215046  17.703  13.514   6.148  0.0389 -0.0175 -0.1559
 1047YOPC   C1A15047  18.211  13.865   6.471  0.2017  0.1534 -0.1223
 1047YOPC   D2A15048  18.169  13.913   6.832 -0.3634 -0.0791  0.0472
 1047YOPC   C3A15049  18.379  14.267   7.087 -0.2449  0.2968 -0.2074
 1047YOPC   C4A15050  18.410  14.533   7.437 -0.1417  0.2933 -0.0031
 1047YOPC   C1B15051  17.622  13.298   6.506 -0.1908 -0.3911  0.0374
 1047YOPC   C2B15052  17.313  13.207   6.833  0.0575  0.0431 -0.1140
 1047YOPC   D3B15053  17.162  13.376   7.204  0.3195 -0.0926 -0.4085
 1047YOPC   C4B15054  17.041  13.479   7.642 -0.1710 -0.0103  0.0453
 1048YOPC   NC315055  12.430   8.305   6.196 -0.2495  0.2882  0.1163
 1048YOPC   PO415056  12.328   7.873   6.271 -0.2430  0.1489 -0.1911
 1048YOPC   GL115057  12.647   7.796   6.444  0.3187 -0.1309 -0.2429
 1048YOPC   GL215058  12.900   8.050   6.431  0.1548  0.2415 -0.0104
 1048YOPC   C1A15059  12.743   7.657   6.822 -0.2714  0.3999 -0.1897
 1048YOPC   D2A15060  12.835   7.797   7.227  0.2673 -0.0137 -0.1162
 1048YOPC   C3A15061  12.504   8.085   7.371 -0.2928  0.4173 -0.1135
 1048YOPC   C4A15062  12.346   8.254   7.656  0.0381 -0.1196  0.0602
 1048YOPC   C1B15063  13.052   8.076   6.833 -0.0838  0.0755  0.0300
 1048YOPC   C2B15064  13.214   8.296   7.136 -0.3123 -0.1535  0.0921
 1048YOPC   D3B15065  13.158   8.079   7.461 -0.0381  0.1210  0.0083
 1048YOPC   C4B15066  12.822   7.945   7.734 -0.0005 -0.4833  0.0344
 1049YOPC   NC315067  12.485  17.479   5.681  0.1512 -0.0098 -0.1323
 1049YOPC   PO415068  12.375  17.573   6.089 -0.0299  0.0883  0.3356
 1049YOPC   GL115069  12.488  17.480   6.456  0.2619  0.0916 -0.1528
 1049YOPC   GL215070  12.388  17.087   6.435 -0.3018  0.0431  0.2376
 1049YOPC   C1A15071  12.631  17.675   6.944  0.0131  0.0062  0.3137
 1049YOPC   D2A15072  12.789  17.925   7.141 -0.0630 -0.1653 -0.3510
 1049YOPC   C3A15073  12.784  17.896   7.603 -0.1630  0.2893 -0.1226
 1049YOPC   C4A15074  12.824  18.089   8.077  0.1678  0.3876  0.0005
 1049YOPC   C1B15075  12.322  16.781   6.750 -0.2229  0.1824  0.0282
 1049YOPC   C2B15076  11.974  16.780   7.031  0.3841 -0.2859  0.2213
 1049YOPC   D3B15077  11.977  16.961   7.480 -0.3320 -0.3109  0.3587
 1049YOPC   C4B15078  12.301  17.137   7.730  0.2244 -0.1904 -0.0946
 1050YOPC   NC315079   3.403  10.179   5.732 -0.2679 -0.3109  0.1328
 1050YOPC   PO415080   3.740  10.196   5.912 -0.1728  0.0100 -0.1187
 1050YOPC   GL115081   3.572  10.345   6.354 -0.0973 -0.0856 -0.0997
 1050YOPC   GL215082   3.622  10.694   6.540  0.2253  0.0922  0.0184
 1050YOPC   C1A15083   3.350  10.274   6.743  0.0141 -0.1195  0.1997
 1050YOPC   D2A15084   3.158  10.237   7.102  0.2818  0.1258  0.0114
 1050YOPC   C3A15085   3.381  10.446   7.381  0.2371  0.2075  0.0116
 1050YOPC   C4A15086   3.231  10.719   7.747 -0.0615 -0.0979 -0.0346
 1050YOPC   C1B15087   3.413  10.702   6.934  0.0997 -0.0163 -0.1775
 1050YOPC   C2B15088   3.475  10.978   7.347  0.3406  0.0834  0.1621
 1050YOPC   D3B15089   3.081  11.190   7.576 -0.0324  0.0447 -0.1450
 1050YOPC   C4B15090   2.960  11.511   7.883  0.0887  0.0328 -0.3307
 1051YOPC   NC315091  12.232  11.324   5.874  0.2124  0.2736 -0.1409
 1051YOPC   PO415092  12.470  11.492   6.209 -0.4244 -0.1268  0.1464
 1051YOPC   GL115093  12.283  11.486   6.582  0.0068 -0.1427 -0.4170
 1051YOPC   GL215094  12.232  11.830   6.791  0.2957 -0.0725  0.2774
 1051YOPC   C1A15095  12.465  11.430   6.905  0.0872  0.0503 -0.1962
 1051YOPC   D2A15096  12.376  11.678   7.237 -0.1182  0.3220 -0.0682
 1051YOPC   C3A15097  12.627  11.895   7.558  0.0972 -0.0079  0.1737
 1051YOPC   C4A15098  12.636  12.181   7.892  0.0826  0.1838  0.1689
 1051YOPC   C1B15099  12.301  12.276   7.000  0.1172  0.0083 -0.1496
 1051YOPC   C2B15100  12.383  12.705   6.967  0.0749  0.2521 -0.1346
 1051YOPC   D3B15101  12.511  12.998   6.759 -0.2157  0.0438 -0.0168
 1051YOPC   C4B15102  12.465  13.159   6.336  0.0099  0.3596 -0.0993
 1052YOPC   NC315103   9.050   5.417   6.282 -0.0708 -0.1856 -0.1057
 1052YOPC   PO415104   9.565   5.529   6.238 -0.0821 -0.2006 -0.0573
 1052YOPC   GL115105   9.789   5.293   6.544  0.0913 -0.0169 -0.0503
 1052YOPC   GL215106   9.717   5.423   6.839  0.1388  0.1931  0.0779
 1052YOPC   C1A15107   9.873   4.914   6.871  0.2323 -0.1854  0.2756
 1052YOPC   D2A15108  10.096   4.941   7.205 -0.1893  0.0911 -0.1933
 1052YOPC   C3A15109  10.226   4.705   7.580  0.1249  0.0913  0.1267
 1052YOPC   C4A15110  10.454   4.787   7.827 -0.1073 -0.1524  0.2341
 1052YOPC   C1B15111   9.749   5.418   7.204 -0.1636 -0.1031  0.1993
 1052YOPC   C2B15112  10.020   5.516   7.641  0.1415 -0.1528  0.0472
 1052YOPC   D3B15113  10.102   5.103   7.964 -0.0005 -0.3224 -0.0665
 1052YOPC   C4B15114   9.920   4.653   7.952 -0.2870  0.0289 -0.1285
 1053YOPC   NC315115  11.084   1.168   5.966 -0.1812  0.1291 -0.3392
 1053YOPC   PO415116  11.538   1.134   6.035 -0.2733 -0.1161 -0.0605
 1053YOPC   GL115117  11.860   1.046   6.364 -0.2698  0.1373  0.2427
 1053YOPC   GL215118  12.065   1.284   6.305 -0.0721 -0.3099 -0.0754
 1053YOPC   C1A15119  11.937   0.768   6.854 -0.0949  0.1631  0.1260
 1053YOPC   D2A15120  11.713   0.570   7.236 -0.1454  0.0230 -0.2235
 1053YOPC   C3A15121  11.305   0.705   7.292  0.2951 -0.0142 -0.1461
 1053YOPC   C4A15122  11.072   0.478   7.426  0.3036  0.4059  0.0500
 1053YOPC   C1B15123  12.063   1.240   6.753 -0.4217  0.1267 -0.1507
 1053YOPC   C2B15124  12.128   1.200   7.091 -0.0565 -0.1811  0.2358
 1053YOPC   D3B15125  12.097   0.920   7.371  0.2189  0.6453  0.4179
 1053YOPC   C4B15126  12.111   0.827   7.880 -0.0210  0.0824 -0.0142
 1054YOPC   NC315127  16.683   2.069   5.711  0.5710  0.1763 -0.1731
 1054YOPC   PO415128  17.117   1.918   5.628 -0.2040  0.1229 -0.1960
 1054YOPC   GL115129  17.135   1.970   5.989 -0.1412  0.0709 -0.3083
 1054YOPC   GL215130  17.300   2.200   6.073  0.1434 -0.2490  0.1417
 1054YOPC   C1A15131  17.369   1.758   6.282  0.3447 -0.2365 -0.0099
 1054YOPC   D2A15132  17.593   1.438   6.382  0.1856 -0.1757  0.4080
 1054YOPC   C3A15133  17.489   1.099   6.565  0.1167 -0.1687  0.1740
 1054YOPC   C4A15134  17.245   0.862   6.719  0.2788 -0.1012 -0.3521
 1054YOPC   C1B15135  17.535   2.312   6.450  0.2703  0.1879 -0.0524
 1054YOPC   C2B15136  17.666   2.662   6.756 -0.0975  0.0202  0.0304
 1054YOPC   D3B15137  17.759   2.461   7.197 -0.4078  0.0240  0.0838
 1054YOPC   C4B15138  17.660   2.641   7.488 -0.0232  0.2306  0.0046
 1055YOPC   NC315139  14.261   5.622   6.124 -0.0216 -0.0436 -0.0103
 1055YOPC   PO415140  14.213   5.918   6.318  0.2852 -0.2049 -0.1869
 1055YOPC   GL115141  14.441   6.235   6.556 -0.0652 -0.1838 -0.2172
 1055YOPC   GL215142  14.501   6.431   6.277 -0.2539 -0.0452  0.0937
 1055YOPC   C1A15143  14.402   6.256   7.028 -0.1191  0.0859  0.0197
 1055YOPC   D2A15144  14.397   5.767   7.161 -0.0548 -0.2418 -0.0321
 1055YOPC   C3A15145  14.192   5.702   7.566 -0.1749 -0.0875 -0.1121
 1055YOPC   C4A15146  14.028   5.547   7.868 -0.1923 -0.1383  0.2580
 1055YOPC   C1B15147  14.607   6.664   6.507 -0.1100  0.1500 -0.0512
 1055YOPC   C2B15148  14.501   6.933   6.865 -0.0694  0.1719  0.0610
 1055YOPC   D3B15149  14.549   6.706   7.232 -0.1467 -0.1813 -0.1170
 1055YOPC   C4B15150  14.849   6.604   7.565 -0.3615 -0.1772 -0.0811
 1056YOPC   NC315151   9.879   0.625   6.029 -0.1402 -0.0098 -0.1270
 1056YOPC   PO415152   9.975   0.148   5.971  0.0490 -0.0625 -0.1151
 1056YOPC   GL115153   9.994   0.259   6.401  0.0359  0.2713  0.1348
 1056YOPC   GL215154  10.290   0.058   6.599 -0.0238 -0.1342  0.0319
 1056YOPC   C1A15155  10.004   0.561   6.746 -0.0790 -0.1600 -0.0626
 1056YOPC   D2A15156   9.905   0.522   7.181 -0.0045  0.2867 -0.5149
 1056YOPC   C3A15157  10.032   0.747   7.615 -0.5977 -0.0402 -0.3524
 1056YOPC   C4A15158  10.225   0.555   7.979 -0.0267  0.0516  0.1328
 1056YOPC   C1B15159  10.275   0.202   7.004  0.2669  0.1007  0.0071
 1056YOPC   C2B15160  10.233   0.296   7.497  0.0435 -0.1504 -0.1621
 1056YOPC   D3B15161   9.948   0.227   7.716 -0.2535  0.5327  0.2774
 1056YOPC   C4B15162   9.496  -0.073   7.830  0.0383 -0.4845  0.1615
 1057YOPC   NC315163  14.606  15.851   6.015  0.0958  0.3656  0.2058
 1057YOPC   PO415164  14.308  16.114   6.228  0.1220 -0.2141 -0.1931
 1057YOPC   GL115165  14.064  16.358   6.602 -0.1328 -0.1575  0.2119
 1057YOPC   GL215166  13.799  16.487   6.425  0.0694  0.2545  0.0845
 1057YOPC   C1A15167  13.960  16.622   7.017 -0.2108 -0.3073 -0.2179
 1057YOPC   D2A15168  13.726  16.660   7.499 -0.2199 -0.0255 -0.3524
 1057YOPC   C3A15169  13.830  16.493   7.822 -0.1405 -0.1428 -0.2035
 1057YOPC   C4A15170  14.051  16.279   8.092 -0.1604  0.2455  0.0345
 1057YOPC   C1B15171  13.362  16.637   6.572  0.0160 -0.0866 -0.0696
 1057YOPC   C2B15172  13.392  16.546   6.951  0.1264  0.0206  0.1615
 1057YOPC   D3B15173  13.134  16.839   7.086  0.2261 -0.1426  0.2897
 1057YOPC   C4B15174  13.196  16.971   7.553 -0.3544 -0.1847  0.0153
 1058YOPC   NC315175  15.316   1.302   5.729 -0.1419 -0.0474  0.0475
 1058YOPC   PO415176  15.577   1.630   5.825  0.1668 -0.0305  0.5320
 1058YOPC   GL115177  15.349   1.497   6.225 -0.6009 -0.0413  0.1658
 1058YOPC   GL215178  15.508   1.792   6.432 -0.1314  0.0002  0.1430
 1058YOPC   C1A15179  15.176   1.463   6.622 -0.3550 -0.1716 -0.0760
 1058YOPC   D2A15180  14.948   1.268   6.777  0.1697  0.0434 -0.1180
 1058YOPC   C3A15181  14.739   1.338   7.179 -0.1490  0.2317  0.0045
 1058YOPC   C4A15182  14.335   1.321   7.041 -0.0624 -0.1035  0.2199
 1058YOPC   C1B15183  15.902   1.774   6.583 -0.0922  0.0939 -0.1526
 1058YOPC   C2B15184  16.032   1.920   6.948  0.2012 -0.2670 -0.0474
 1058YOPC   D3B15185  16.003   1.788   7.398  0.0726  0.2090 -0.1868
 1058YOPC   C4B15186  16.022   1.494   7.766  0.1319 -0.0143 -0.1937
 1059YOPC   NC315187   1.796   4.898   5.889  0.0559  0.1197 -0.0128
 1059YOPC   PO415188   2.276   4.735   5.977  0.1028 -0.1806 -0.0246
 1059YOPC   GL115189   2.107   4.685   6.381 -0.1055 -0.1417  0.0464
 1059YOPC   GL215190   2.007   4.319   6.417  0.0098  0.0604  0.2820
 1059YOPC   C1A15191   2.158   4.706   6.725 -0.2655  0.2540 -0.1318
 1059YOPC   D2A15192   2.196   4.973   7.138 -0.1148 -0.1708  0.1361
 1059YOPC   C3A15193   2.540   4.900   7.413  0.2345  0.0681  0.1402
 1059YOPC   C4A15194   2.658   4.546   7.657 -0.1237  0.0830  0.0653
 1059YOPC   C1B15195   2.073   4.233   6.827 -0.0041 -0.0235 -0.2136
 1059YOPC   C2B15196   1.931   4.149   7.255  0.1833 -0.0315  0.0824
 1059YOPC   D3B15197   2.317   4.107   7.490  0.0524 -0.2779  0.0760
 1059YOPC   C4B15198   2.022   3.955   7.772  0.0624  0.2844 -0.1050
 1060YOPC   NC315199   4.537   1.129   5.489  0.0714  0.0663 -0.0161
 1060YOPC   PO415200   4.769   0.890   5.416 -0.3189 -0.1544  0.2328
 1060YOPC   GL115201   4.601   0.825   5.864  0.0268 -0.1340  0.1687
 1060YOPC   GL215202   4.517   1.051   5.985  0.2183 -0.1397 -0.0300
 1060YOPC   C1A15203   4.629   0.467   6.151 -0.2742  0.0093  0.1202
 1060YOPC   D2A15204   4.701   0.057   6.198 -0.1228  0.2372  0.0640
 1060YOPC   C3A15205   4.906  -0.039   6.562 -0.0471  0.1595 -0.0789
 1060YOPC   C4A15206   5.030  -0.148   6.993 -0.1368  0.4393 -0.1295
 1060YOPC   C1B15207   4.811   1.011   6.340  0.0653 -0.2888  0.0894
 1060YOPC   C2B15208   4.830   0.791   6.695  0.2102 -0.1339 -0.3537
 1060YOPC   D3B15209   4.663   0.442   6.673  0.1222 -0.0649  0.0866
 1060YOPC   C4B15210   4.602   0.150   6.978  0.0511  0.2425 -0.0472
 1061YOPC   NC315211   0.058   6.590   5.675  0.1703 -0.0902 -0.4321
 1061YOPC   PO415212   0.189   6.973   5.691 -0.5871 -0.3770  0.0670
 1061YOPC   GL115213  -0.081   7.056   6.065 -0.2151 -0.0277  0.1632
 1061YOPC   GL215214  -0.204   6.668   6.220  0.1078 -0.1974 -0.1526
 1061YOPC   C1A15215   0.013   7.017   6.489 -0.0189  0.1007 -0.1654
 1061YOPC   D2A15216  -0.091   7.080   6.867 -0.1459  0.0107 -0.2755
 1061YOPC   C3A15217  -0.044   6.943   7.281  0.2702  0.1089  0.1763
 1061YOPC   C4A15218   0.002   6.568   7.578 -0.1891  0.1880  0.2875
 1061YOPC   C1B15219  -0.395   6.596   6.542  0.0346  0.0359 -0.4969
 1061YOPC   C2B15220  -0.375   6.237   6.850 -0.0414 -0.0487  0.0859
 1061YOPC   D3B15221  -0.028   5.988   6.953  0.0567  0.1025  0.2409
 1061YOPC   C4B15222   0.391   6.113   6.864 -0.0825 -0.0251 -0.0085
 1062YOPC   NC315223  16.080   2.802   5.619 -0.2800  0.1840 -0.1211
 1062YOPC   PO415224  15.875   2.479   5.688  0.2217  0.3246  0.1376
 1062YOPC   GL115225  16.097   2.651   6.111 -0.1219 -0.3555 -0.0152
 1062YOPC   GL215226  16.468   2.864   6.089  0.0052 -0.3155  0.0772
 1062YOPC   C1A15227  16.325   2.540   6.455  0.3089  0.1045 -0.2228
 1062YOPC   D2A15228  16.488   2.389   6.761 -0.0186  0.0820  0.1288
 1062YOPC   C3A15229  16.377   2.201   7.223 -0.1257 -0.1470  0.2273
 1062YOPC   C4A15230  16.200   2.270   7.588 -0.1682  0.1174  0.1386
 1062YOPC   C1B15231  16.741   2.788   6.525  0.0234  0.0265  0.1924
 1062YOPC   C2B15232  16.878   2.794   6.954 -0.0689  0.0119  0.0168
 1062YOPC   D3B15233  16.840   3.001   7.334  0.2518  0.1580  0.1400
 1062YOPC   C4B15234  16.479   3.093   7.622  0.0523 -0.2015 -0.3712
 1063YOPC   NC315235   0.261   5.012   5.973 -0.0488  0.2282 -0.1569
 1063YOPC   PO415236   0.518   5.403   5.879  0.0328  0.1690  0.1276
 1063YOPC   GL115237   0.500   5.359   6.307  0.1493  0.0992 -0.4065
 1063YOPC   GL215238   0.426   5.621   6.481 -0.0250 -0.2053 -0.0095
 1063YOPC   C1A15239   0.721   5.268   6.728 -0.1567  0.3322 -0.1197
 1063YOPC   D2A15240   0.798   5.114   7.136 -0.0981  0.3406 -0.0655
 1063YOPC   C3A15241   0.656   4.742   7.314  0.0241 -0.3541 -0.0124
 1063YOPC   C4A15242   0.572   4.366   7.582 -0.2159 -0.1681  0.0404
 1063YOPC   C1B15243   0.613   5.715   6.861 -0.0868 -0.3182 -0.2104
 1063YOPC   C2B15244   0.878   5.976   7.069  0.1354 -0.1195 -0.0803
 1063YOPC   D3B15245   0.793   6.221   7.354 -0.3150  0.0653 -0.1087
 1063YOPC   C4B15246   1.051   6.460   7.642 -0.2858 -0.1092 -0.2984
 1064YOPC   NC315247  13.254  10.561   6.231  0.0181 -0.3933 -0.2120
 1064YOPC   PO415248  13.243  10.115   6.004 -0.0065 -0.3219 -0.0124
 1064YOPC   GL115249  13.077  10.084   6.442  0.1723  0.2183 -0.1487
 1064YOPC   GL215250  13.101  10.398   6.657 -0.5244 -0.1165  0.2614
 1064YOPC   C1A15251  13.301   9.965   6.812  0.2650 -0.0627  0.1465
 1064YOPC   D2A15252  13.347   9.964   7.304  0.1267 -0.1512 -0.1452
 1064YOPC   C3A15253  13.009  10.004   7.435  0.0876  0.0889  0.0446
 1064YOPC   C4A15254  12.855  10.436   7.450 -0.1701 -0.3089  0.1296
 1064YOPC   C1B15255  13.045  10.713   7.074 -0.1886  0.5384  0.1505
 1064YOPC   C2B15256  13.058  11.016   7.192 -0.1449  0.2896  0.1786
 1064YOPC   D3B15257  13.248  11.234   7.547 -0.2531  0.1270  0.0171
 1064YOPC   C4B15258  13.547  11.497   7.694 -0.0933  0.1400  0.0175
 1065YOPC   NC315259  13.748  17.803   5.769 -0.0721 -0.0829  0.2909
 1065YOPC   PO415260  14.117  18.192   5.832  0.1628  0.3859  0.2834
 1065YOPC   GL115261  14.032  18.507   6.174  0.0364  0.2033  0.1810
 1065YOPC   GL215262  14.317  18.775   6.191 -0.1137  0.0656 -0.0661
 1065YOPC   C1A15263  14.226  18.520   6.586 -0.0550 -0.0364 -0.0077
 1065YOPC   D2A15264  14.133  18.581   7.061  0.1023  0.2001  0.1079
 1065YOPC   C3A15265  14.297  18.321   7.440 -0.0754 -0.5735  0.0878
 1065YOPC   C4A15266  14.172  18.339   7.857 -0.2360  0.0864  0.0957
 1065YOPC   C1B15267  14.647  18.784   6.487  0.2419  0.2800  0.0542
 1065YOPC   C2B15268  14.891  18.978   6.760 -0.0471  0.0006  0.1016
 1065YOPC   D3B15269  14.801  19.083   7.110  0.3989 -0.1488  0.0925
 1065YOPC   C4B15270  14.861  19.309   7.588  0.1393 -0.2531 -0.0311
 1066YOPC   NC315271  17.015   1.394   5.515 -0.4480 -0.2553  0.1954
 1066YOPC   PO415272  16.637   1.568   5.708 -0.0284  0.0698  0.2855
 1066YOPC   GL115273  16.483   1.752   6.106 -0.0768 -0.2333 -0.3566
 1066YOPC   GL215274  16.230   2.103   6.191  0.0391 -0.0360 -0.1822
 1066YOPC   C1A15275  16.821   1.728   6.363  0.1197 -0.1263 -0.0090
 1066YOPC   D2A15276  17.108   1.689   6.657 -0.1172 -0.1786 -0.0825
 1066YOPC   C3A15277  17.145   1.713   7.124  0.1250  0.1515 -0.1830
 1066YOPC   C4A15278  16.868   1.882   7.470  0.0445  0.3108  0.5039
 1066YOPC   C1B15279  16.461   1.987   6.549  0.0562  0.1784 -0.2393
 1066YOPC   C2B15280  16.651   1.881   6.886 -0.1791  0.0047  0.1754
 1066YOPC   D3B15281  16.488   1.671   7.207  0.2059  0.0235 -0.1543
 1066YOPC   C4B15282  16.217   1.450   7.008 -0.2022 -0.1638 -0.3253
 1067YOPC   NC315283   7.450  10.577   6.017 -0.0739 -0.0902 -0.1901
 1067YOPC   PO415284   7.245  10.443   6.233  0.0690  0.0187 -0.0237
 1067YOPC   GL115285   7.407  10.464   6.605 -0.4597 -0.1336 -0.1584
 1067YOPC   GL215286   7.731  10.627   6.806  0.0165  0.3443 -0.2898
 1067YOPC   C1A15287   7.462  10.188   6.903  0.1335  0.1474 -0.2055
 1067YOPC   D2A15288   7.439  10.132   7.266 -0.2438 -0.1594  0.0587
 1067YOPC   C3A15289   7.503   9.914   7.634  0.1615  0.4548  0.0420
 1067YOPC   C4A15290   7.532   9.583   7.431 -0.1753  0.0578  0.3105
 1067YOPC   C1B15291   7.496  10.642   7.150  0.1935  0.1705 -0.0579
 1067YOPC   C2B15292   7.387  10.662   7.613 -0.0442 -0.0991  0.1222
 1067YOPC   D3B15293   7.385  11.067   7.737  0.1746  0.1730  0.0077
 1067YOPC   C4B15294   7.522  11.444   8.024  0.0565 -0.0719  0.1407
 1068YOPC   NC315295  13.154  12.354   5.901 -0.3096  0.0664 -0.3979
 1068YOPC   PO415296  13.060  12.339   6.287  0.0679  0.3180 -0.0929
 1068YOPC   GL115297  13.297  12.347   6.682  0.2995  0.0619  0.0595
 1068YOPC   GL215298  13.355  12.030   6.643 -0.2412 -0.1279 -0.3166
 1068YOPC   C1A15299  13.626  12.371   6.945  0.1026  0.0882  0.0846
 1068YOPC   D2A15300  13.748  12.346   7.379  0.0541 -0.3486  0.2287
 1068YOPC   C3A15301  13.526  12.056   7.619 -0.3155 -0.0893  0.2614
 1068YOPC   C4A15302  13.381  11.903   8.115  0.1949 -0.2738 -0.0884
 1068YOPC   C1B15303  13.258  12.127   7.108  0.2850 -0.0810  0.0381
 1068YOPC   C2B15304  13.022  12.134   7.427  0.0207 -0.0421  0.3441
 1068YOPC   D3B15305  13.054  11.863   7.809 -0.0508 -0.2205 -0.0693
 1068YOPC   C4B15306  12.887  11.916   8.273 -0.0942 -0.0220 -0.2762
 1069YOPC   NC315307   8.163   3.969   6.363  0.1614 -0.4738 -0.0781
 1069YOPC   PO415308   8.434   3.627   6.385 -0.0007 -0.3309 -0.0974
 1069YOPC   GL115309   8.284   3.354   6.690 -0.1837 -0.0672 -0.5000
 1069YOPC   GL215310   8.173   3.634   7.052 -0.1257  0.1653 -0.1133
 1069YOPC   C1A15311   8.133   3.020   6.980  0.0808  0.0474  0.6134
 1069YOPC   D2A15312   8.392   2.824   7.443  0.2984 -0.4259  0.2393
 1069YOPC   C3A15313   8.587   2.447   7.481  0.0729 -0.0270  0.0062
 1069YOPC   C4A15314   8.947   2.201   7.733  0.3350  0.2229 -0.2860
 1069YOPC   C1B15315   8.028   4.029   7.319 -0.1084 -0.0545  0.1170
 1069YOPC   C2B15316   8.163   4.094   7.823  0.3459  0.0179 -0.3283
 1069YOPC   D3B15317   8.214   4.488   8.058 -0.1213  0.0328 -0.4230
 1069YOPC   C4B15318   8.251   4.684   8.440  0.0318  0.1026 -0.0454
 1070YOPC   NC315319   2.785  17.319   5.351  0.1126 -0.3013 -0.2966
 1070YOPC   PO415320   2.848  16.861   5.495 -0.0912  0.0834  0.0037
 1070YOPC   GL115321   2.938  16.775   5.879 -0.0869  0.0492  0.0429
 1070YOPC   GL215322   2.708  17.014   6.153  0.1760 -0.2322 -0.2580
 1070YOPC   C1A15323   3.141  16.725   6.291  0.0795 -0.0866  0.0533
 1070YOPC   D2A15324   3.306  16.802   6.685  0.0166 -0.2192 -0.0285
 1070YOPC   C3A15325   3.337  16.431   6.947  0.0956  0.4715 -0.1918
 1070YOPC   C4A15326   3.194  16.387   7.267  0.3807  0.0615 -0.1747
 1070YOPC   C1B15327   2.665  16.662   6.391 -0.0482 -0.2362 -0.0203
 1070YOPC   C2B15328   2.444  16.557   6.690 -0.0317  0.3555 -0.1757
 1070YOPC   D3B15329   2.020  16.658   6.824  0.1105 -0.2869  0.0843
 1070YOPC   C4B15330   1.604  16.775   6.973 -0.0773 -0.0313 -0.2097
 1071YOPC   NC315331   9.132   9.007   6.068  0.1680  0.0724  0.1750
 1071YOPC   PO415332   9.346   9.179   6.344 -0.3204 -0.0197 -0.2734
 1071YOPC   GL115333   9.508   9.112   6.692  0.1217  0.0556  0.1548
 1071YOPC   GL215334   9.274   8.963   6.879 -0.0353  0.1138  0.1094
 1071YOPC   C1A15335   9.517   9.345   7.114 -0.0756  0.0076 -0.3066
 1071YOPC   D2A15336   9.532   9.305   7.555 -0.2563 -0.0942  0.1449
 1071YOPC   C3A15337   9.171   9.326   7.937 -0.1125  0.0938  0.0857
 1071YOPC   C4A15338   9.175   9.002   8.386 -0.1643 -0.1508 -0.1667
 1071YOPC   C1B15339   9.336   8.864   7.388  0.1187  0.2671  0.0846
 1071YOPC   C2B15340   9.508   8.814   7.663  0.0249  0.2004 -0.0608
 1071YOPC   D3B15341   9.456   8.930   8.017  0.3045  0.5916 -0.0922
 1071YOPC   C4B15342   9.536   9.338   8.278 -0.1764  0.1652  0.2270
 1072YOPC   NC315343   1.602  15.905   5.669  0.1635 -0.1558 -0.0100
 1072YOPC   PO415344   1.048  15.885   5.738  0.0176 -0.2394  0.3114
 1072YOPC   GL115345   0.886  15.736   6.280 -0.0555 -0.1441  0.2632
 1072YOPC   GL215346   0.653  15.791   6.494 -0.1158 -0.1727 -0.0907
 1072YOPC   C1A15347   1.021  15.472   6.732 -0.0300 -0.2334 -0.0170
 1072YOPC   D2A15348   0.899  15.182   7.028 -0.0605  0.3043 -0.1236
 1072YOPC   C3A15349   0.736  15.231   7.472  0.1965 -0.1089  0.2645
 1072YOPC   C4A15350   0.552  15.421   7.867 -0.2814  0.2049  0.0829
 1072YOPC   C1B15351   0.559  15.325   6.684 -0.0679  0.0407 -0.2264
 1072YOPC   C2B15352   0.486  14.943   6.866  0.0346 -0.2863  0.3509
 1072YOPC   D3B15353   0.437  14.975   7.212  0.1019  0.0903  0.1267
 1072YOPC   C4B15354   0.391  14.953   7.668  0.0577 -0.1460  0.2953
 1073YOPC   NC315355  15.364   3.298   6.059 -0.0283  0.2152  0.1391
 1073YOPC   PO415356  15.152   3.009   5.829 -0.0173 -0.0034 -0.3988
 1073YOPC   GL115357  15.029   2.957   6.280 -0.0028  0.0526 -0.0111
 1073YOPC   GL215358  14.775   2.678   6.443  0.0416  0.1931  0.2215
 1073YOPC   C1A15359  15.055   3.135   6.717  0.0080 -0.1255 -0.1006
 1073YOPC   D2A15360  14.949   3.475   6.921  0.0348  0.0277 -0.0935
 1073YOPC   C3A15361  14.799   3.502   7.380  0.3378 -0.1857  0.0496
 1073YOPC   C4A15362  14.713   3.826   7.726  0.1014  0.0292  0.0240
 1073YOPC   C1B15363  14.841   2.666   6.788 -0.3087  0.0393 -0.1845
 1073YOPC   C2B15364  14.774   2.471   7.160 -0.1699 -0.1078  0.0867
 1073YOPC   D3B15365  14.536   2.128   7.144 -0.0915 -0.0735 -0.2220
 1073YOPC   C4B15366  14.310   1.763   7.238  0.1846 -0.1079  0.0126
 1074YOPC   NC315367   3.627   4.542   5.515 -0.0239  0.1328  0.1449
 1074YOPC   PO415368   3.607   4.194   5.868 -0.2106  0.3137 -0.0970
 1074YOPC   GL115369   3.480   4.190   6.345  0.1479  0.0424  0.2352
 1074YOPC   GL215370   3.221   4.428   6.340 -0.0959 -0.0916 -0.3620
 1074YOPC   C1A15371   3.578   4.489   6.707  0.0801  0.4187  0.1350
 1074YOPC   D2A15372   3.769   4.650   7.068 -0.0205  0.0618 -0.0620
 1074YOPC   C3A15373   3.513   5.012   7.332 -0.0648 -0.1390 -0.3478
 1074YOPC   C4A15374   3.474   5.283   7.747 -0.4778  0.1579 -0.1862
 1074YOPC   C1B15375   3.090   4.400   6.758  0.1155  0.1947  0.1484
 1074YOPC   C2B15376   3.353   4.335   7.151  0.2954  0.0991 -0.2014
 1074YOPC   D3B15377   3.350   4.524   7.425 -0.0488  0.3038  0.0754
 1074YOPC   C4B15378   3.167   4.462   7.860  0.3187 -0.0554  0.0098
 1075YOPC   NC315379   6.066  17.218   5.414  0.0594  0.3512 -0.0617
 1075YOPC   PO415380   5.676  17.164   5.611  0.0314  0.1649  0.1319
 1075YOPC   GL115381   5.556  17.154   6.021 -0.0061 -0.4200 -0.1468
 1075YOPC   GL215382   5.821  17.145   6.337  0.1519 -0.0677  0.1537
 1075YOPC   C1A15383   5.317  17.231   6.492 -0.1052  0.1593 -0.0693
 1075YOPC   D2A15384   5.339  17.195   6.974 -0.0089 -0.2879  0.1454
 1075YOPC   C3A15385   5.068  17.086   7.305 -0.1379  0.1941 -0.3185
 1075YOPC   C4A15386   5.021  17.058   7.719 -0.1261 -0.1783  0.1687
 1075YOPC   C1B15387   5.805  17.370   6.688 -0.3670  0.2434  0.0318
 1075YOPC   C2B15388   5.923  17.696   7.160  0.2120 -0.1484  0.0537
 1075YOPC   D3B15389   6.011  17.599   7.568 -0.1022  0.0033  0.1018
 1075YOPC   C4B15390   6.202  17.691   7.946 -0.2965  0.3129  0.2810
 1076YOPC   NC315391   9.534   8.095   6.291  0.1018 -0.0944  0.2791
 1076YOPC   PO415392   9.891   8.346   6.246 -0.0414 -0.0124 -0.3794
 1076YOPC   GL115393   9.812   8.236   6.711  0.0445 -0.0152 -0.1979
 1076YOPC   GL215394   9.910   8.431   6.895  0.0674  0.2882 -0.0784
 1076YOPC   C1A15395   9.666   8.015   7.012 -0.0184  0.1665 -0.1607
 1076YOPC   D2A15396   9.767   7.999   7.391 -0.1429  0.1132  0.1927
 1076YOPC   C3A15397   9.771   8.298   7.749 -0.3734  0.4131 -0.2004
 1076YOPC   C4A15398   9.895   8.694   7.986 -0.3220  0.2452  0.1305
 1076YOPC   C1B15399  10.250   8.341   7.153 -0.1616  0.4834 -0.0794
 1076YOPC   C2B15400  10.269   8.017   7.436  0.0039  0.1809  0.2796
 1076YOPC   D3B15401  10.141   7.881   7.753  0.0237  0.0668 -0.0868
 1076YOPC   C4B15402  10.090   7.930   8.117  0.4710  0.1616  0.0213
 1077YOPC   NC315403   8.851  16.636   5.961 -0.0270 -0.0653 -0.0535
 1077YOPC   PO415404   8.413  16.719   5.833 -0.3666  0.0942 -0.2517
 1077YOPC   GL115405   8.335  16.685   6.285 -0.0053 -0.3130 -0.2238
 1077YOPC   GL215406   8.160  16.384   6.456  0.0566  0.0872  0.2169
 1077YOPC   C1A15407   8.499  16.654   6.684 -0.1476 -0.1083 -0.4017
 1077YOPC   D2A15408   8.559  16.418   6.981  0.4065 -0.2519 -0.1672
 1077YOPC   C3A15409   8.660  16.507   7.336  0.2914 -0.4023 -0.4455
 1077YOPC   C4A15410   8.663  16.391   7.769  0.3963 -0.3970 -0.2836
 1077YOPC   C1B15411   8.091  16.393   6.854 -0.0033 -0.0629 -0.1020
 1077YOPC   C2B15412   8.189  16.445   7.255  0.0630 -0.2518 -0.5265
 1077YOPC   D3B15413   8.133  16.370   7.646 -0.0576 -0.0030 -0.1498
 1077YOPC   C4B15414   7.954  16.108   7.985  0.0620 -0.4256  0.0291
 1078YOPC   NC315415   5.007   0.028   5.357 -0.1132  0.0223 -0.1195
 1078YOPC   PO415416   5.450   0.182   5.492  0.1742  0.0381  0.0502
 1078YOPC   GL115417   5.440  -0.043   5.785 -0.0635 -0.1435  0.3268
 1078YOPC   GL215418   5.112   0.067   5.892 -0.2532 -0.0914 -0.1806
 1078YOPC   C1A15419   5.490  -0.067   6.242 -0.0218 -0.0888  0.0193
 1078YOPC   D2A15420   5.671   0.196   6.612  0.1364 -0.2798 -0.0093
 1078YOPC   C3A15421   5.517   0.211   7.051 -0.0082  0.0331  0.1600
 1078YOPC   C4A15422   5.249   0.127   7.361  0.1779 -0.0313  0.2452
 1078YOPC   C1B15423   5.057  -0.294   6.185 -0.1836  0.0152  0.0450
 1078YOPC   C2B15424   5.059  -0.540   6.644  0.1498  0.1837 -0.2316
 1078YOPC   D3B15425   4.843  -0.926   6.820  0.2240  0.1929 -0.0889
 1078YOPC   C4B15426   4.575  -1.202   7.139 -0.2068  0.0335  0.0881
 1079YOPC   NC315427  14.666   6.693   5.848 -0.1579  0.1971 -0.1915
 1079YOPC   PO415428  14.228   6.741   5.979 -0.1967 -0.2074  0.0246
 1079YOPC   GL115429  14.078   6.666   6.420  0.0416  0.0474  0.0561
 1079YOPC   GL215430  14.035   6.995   6.528  0.0172  0.0665 -0.0553
 1079YOPC   C1A15431  14.106   6.620   6.869  0.2311  0.1088 -0.0311
 1079YOPC   D2A15432  14.038   6.697   7.304  0.0868  0.1380 -0.2481
 1079YOPC   C3A15433  14.304   6.504   7.638 -0.1114  0.0883  0.2713
 1079YOPC   C4A15434  14.367   6.498   8.056  0.4096 -0.1878 -0.2293
 1079YOPC   C1B15435  13.881   7.062   6.895 -0.1905 -0.0168 -0.1791
 1079YOPC   C2B15436  13.586   7.108   7.245 -0.1595  0.1733 -0.0331
 1079YOPC   D3B15437  13.751   7.338   7.572  0.0355 -0.0688 -0.0733
 1079YOPC   C4B15438  13.931   7.499   7.958 -0.0639  0.1296 -0.1470
 1080YOPC   NC315439  14.472  14.181   5.831 -0.0368 -0.0181 -0.2020
 1080YOPC   PO415440  14.851  13.912   5.985  0.1196  0.1526 -0.0062
 1080YOPC   GL115441  14.798  13.661   6.233 -0.1423  0.2564  0.1931
 1080YOPC   GL215442  14.854  13.375   6.278  0.1301 -0.0841 -0.3832
 1080YOPC   C1A15443  14.676  13.616   6.740  0.0641  0.0701  0.0012
 1080YOPC   D2A15444  14.696  13.675   7.229  0.0095  0.1264  0.1996
 1080YOPC   C3A15445  14.866  13.647   7.599 -0.0917 -0.1164  0.1297
 1080YOPC   C4A15446  14.880  13.645   7.939  0.0075 -0.2389 -0.2539
 1080YOPC   C1B15447  15.157  13.585   6.592 -0.2420  0.1402 -0.1141
 1080YOPC   C2B15448  15.143  13.482   7.083 -0.1451  0.0795 -0.3091
 1080YOPC   D3B15449  15.419  13.598   7.442  0.1495 -0.1328 -0.0126
 1080YOPC   C4B15450  15.475  13.823   7.655  0.0882  0.1667 -0.0519
 1081YOPC   NC315451   3.001   4.879   5.588  0.1938  0.1074 -0.0870
 1081YOPC   PO415452   3.427   5.093   5.660 -0.0855 -0.2174  0.1401
 1081YOPC   GL115453   3.666   4.948   6.068  0.4680 -0.1020 -0.2735
 1081YOPC   GL215454   3.733   4.646   6.191 -0.2226  0.1881 -0.1107
 1081YOPC   C1A15455   3.378   4.872   6.495 -0.1336  0.3331  0.0889
 1081YOPC   D2A15456   3.280   4.837   6.932  0.1207 -0.3401 -0.1850
 1081YOPC   C3A15457   2.961   4.610   7.152 -0.0298 -0.1204  0.2411
 1081YOPC   C4A15458   2.860   4.243   7.264 -0.1167  0.2439 -0.2590
 1081YOPC   C1B15459   4.033   4.398   6.528  0.2549  0.2623  0.0601
 1081YOPC   C2B15460   4.233   4.689   6.828  0.0669 -0.1641  0.2271
 1081YOPC   D3B15461   4.245   4.574   7.161  0.0044  0.2095  0.2133
 1081YOPC   C4B15462   4.079   4.665   7.499  0.0479  0.1053  0.5696
 1082YOPC   NC315463   9.083   7.401   6.115 -0.2596  0.0051 -0.1453
 1082YOPC   PO415464   9.144   7.677   6.351 -0.2389  0.2090 -0.0248
 1082YOPC   GL115465   9.309   7.431   6.620  0.2978  0.0482  0.3436
 1082YOPC   GL215466   9.116   7.261   6.845 -0.2601  0.0766  0.0618
 1082YOPC   C1A15467   9.554   7.507   7.015 -0.1120 -0.0692  0.0224
 1082YOPC   D2A15468   9.449   7.596   7.464 -0.0205 -0.0318 -0.0188
 1082YOPC   C3A15469   9.662   7.803   7.834 -0.1196  0.0635 -0.0960
 1082YOPC   C4A15470   9.403   8.038   8.169 -0.3093  0.0948 -0.1271
 1082YOPC   C1B15471   9.096   7.225   7.229  0.1992 -0.0204 -0.1561
 1082YOPC   C2B15472   9.385   7.055   7.490 -0.0263 -0.3460  0.1876
 1082YOPC   D3B15473   9.177   6.903   7.861  0.0446  0.0753  0.1956
 1082YOPC   C4B15474   9.193   6.738   8.166 -0.0704  0.0941  0.0855
 1083YOPC   NC315475   1.054   2.037   5.264 -0.2080  0.0460 -0.2848
 1083YOPC   PO415476   0.826   1.612   5.162 -0.1277 -0.1099 -0.3246
 1083YOPC   GL115477   0.569   1.629   5.605 -0.3537 -0.1203 -0.0359
 1083YOPC   GL215478   0.340   1.388   5.684  0.0842  0.0513 -0.0588
 1083YOPC   C1A15479   0.566   1.683   6.022  0.1867  0.0557  0.0168
 1083YOPC   D2A15480   0.510   1.662   6.429  0.1287  0.0820 -0.0989
 1083YOPC   C3A15481   0.298   1.959   6.668  0.2308  0.1124  0.1454
 1083YOPC   C4A15482   0.304   2.351   6.730  0.1304 -0.5216  0.0813
 1083YOPC   C1B15483   0.778   1.228   5.818 -0.2042 -0.1052 -0.0121
 1083YOPC   C2B15484   0.742   0.851   6.115 -0.0065  0.2131  0.3847
 1083YOPC   D3B15485   0.938   0.762   6.581 -0.0714  0.0533 -0.2320
 1083YOPC   C4B15486   0.722   0.856   6.941  0.0870  0.1814 -0.0255
 1084YOPC   NC315487  17.492   6.863   6.050 -0.0347 -0.2889  0.1715
 1084YOPC   PO415488  17.363   6.456   6.017  0.0679  0.0381 -0.0771
 1084YOPC   GL115489  17.202   6.255   6.341 -0.0792  0.0751 -0.1124
 1084YOPC   GL215490  17.007   6.034   6.370 -0.0032  0.0954  0.1078
 1084YOPC   C1A15491  17.259   6.163   6.768 -0.2903  0.0661  0.0121
 1084YOPC   D2A15492  17.415   6.327   7.181 -0.0922  0.3567 -0.1251
 1084YOPC   C3A15493  17.146   6.397   7.700 -0.0043  0.1547 -0.1050
 1084YOPC   C4A15494  16.786   6.400   7.938  0.4360  0.3010  0.1214
 1084YOPC   C1B15495  16.867   5.611   6.405  0.1703 -0.0723  0.3582
 1084YOPC   C2B15496  17.109   5.249   6.464  0.0477 -0.1272  0.2446
 1084YOPC   D3B15497  17.334   4.995   6.674  0.2735  0.0858 -0.0102
 1084YOPC   C4B15498  17.430   5.009   7.005 -0.0184  0.2135  0.2042
 1085YOPC   NC315499  11.648  17.025   6.162  0.1435 -0.1213  0.0647
 1085YOPC   PO415500  11.536  16.629   6.188  0.2321 -0.1159 -0.0676
 1085YOPC   GL115501  11.555  16.411   6.616 -0.0102  0.1241  0.2062
 1085YOPC   GL215502  11.466  16.138   6.474  0.2155 -0.2366 -0.3108
 1085YOPC   C1A15503  11.387  16.468   7.043  0.1062  0.2406 -0.0001
 1085YOPC   D2A15504  11.318  16.450   7.435 -0.1229  0.0686 -0.0415
 1085YOPC   C3A15505  11.071  16.266   7.671  0.0262  0.2768  0.0859
 1085YOPC   C4A15506  10.859  15.927   7.669 -0.4316  0.3838  0.1866
 1085YOPC   C1B15507  11.562  15.686   6.625 -0.0023 -0.0501 -0.4599
 1085YOPC   C2B15508  11.210  15.428   6.820 -0.2120 -0.6519  0.3537
 1085YOPC   D3B15509  11.145  15.438   7.264  0.0432  0.2899  0.1861
 1085YOPC   C4B15510  10.778  15.389   7.500 -0.0406  0.4367  0.1304
 1086YOPC   NC315511   5.114  17.025   5.822 -0.3261  0.1753 -0.1014
 1086YOPC   PO415512   4.787  17.364   5.755 -0.4208  0.0627  0.0580
 1086YOPC   GL115513   5.080  17.464   6.047  0.3752 -0.2284 -0.0467
 1086YOPC   GL215514   4.744  17.551   6.306 -0.0254  0.0860  0.0567
 1086YOPC   C1A15515   5.463  17.659   6.329 -0.1152 -0.1515  0.1576
 1086YOPC   D2A15516   5.458  17.934   6.701  0.1943  0.2180 -0.1302
 1086YOPC   C3A15517   5.451  17.710   7.025  0.0216  0.0053 -0.1939
 1086YOPC   C4A15518   5.416  17.883   7.464  0.1621 -0.2850 -0.0626
 1086YOPC   C1B15519   4.740  17.133   6.396 -0.1221  0.1128 -0.0554
 1086YOPC   C2B15520   4.587  16.844   6.405 -0.1656  0.1141 -0.2467
 1086YOPC   D3B15521   4.338  16.797   6.792  0.1197 -0.0678 -0.0775
 1086YOPC   C4B15522   4.002  16.608   6.861 -0.0574 -0.0614  0.0071
 1087YOPC   NC315523  14.443   7.902   6.195 -0.2115 -0.2605 -0.0934
 1087YOPC   PO415524  14.000   7.984   6.119  0.1307 -0.0288  0.1558
 1087YOPC   GL115525  14.228   8.010   6.646 -0.0426 -0.2182 -0.0299
 1087YOPC   GL215526  14.569   8.102   6.648  0.0973  0.2186  0.2004
 1087YOPC   C1A15527  14.314   7.828   7.081 -0.2236 -0.3218 -0.0158
 1087YOPC   D2A15528  14.428   7.659   7.414  0.1998  0.3389  0.0752
 1087YOPC   C3A15529  14.665   7.919   7.574 -0.0486  0.0148 -0.2004
 1087YOPC   C4A15530  15.100   8.067   7.588  0.2352  0.1202 -0.2099
 1087YOPC   C1B15531  14.628   8.188   7.098 -0.0402  0.0045  0.2043
 1087YOPC   C2B15532  14.703   8.448   7.426  0.0322 -0.0751  0.0491
 1087YOPC   D3B15533  15.086   8.505   7.414 -0.0304  0.1269 -0.1354
 1087YOPC   C4B15534  15.248   8.740   7.143 -0.1225 -0.0463 -0.1542
 1088YOPC   NC315535  11.812   3.258   6.001  0.2058 -0.0508  0.0658
 1088YOPC   PO415536  11.339   3.504   5.944  0.1633 -0.2955  0.0621
 1088YOPC   GL115537  11.402   3.362   6.355 -0.0396 -0.0321 -0.0251
 1088YOPC   GL215538  11.153   3.170   6.593  0.0788 -0.2166  0.2534
 1088YOPC   C1A15539  11.733   3.608   6.624  0.0929  0.0336  0.1527
 1088YOPC   D2A15540  12.102   3.687   6.801  0.0575 -0.4255  0.1269
 1088YOPC   C3A15541  12.148   3.463   7.191  0.0148  0.1422  0.2082
 1088YOPC   C4A15542  11.984   3.267   7.574 -0.1783  0.0967 -0.2891
 1088YOPC   C1B15543  11.493   3.285   6.881  0.2878  0.0113 -0.2556
 1088YOPC   C2B15544  11.613   3.510   7.224 -0.0465  0.0220  0.0785
 1088YOPC   D3B15545  11.635   3.607   7.657 -0.3798  0.1198 -0.1776
 1088YOPC   C4B15546  11.806   3.610   8.037  0.1595  0.1133 -0.5695
 1089YOPC   NC315547  10.008  14.664   5.909 -0.0812 -0.0002  0.3632
 1089YOPC   PO415548   9.739  15.036   5.760 -0.2359 -0.5135  0.3254
 1089YOPC   GL115549   9.706  14.972   6.105  0.1989 -0.0500 -0.3335
 1089YOPC   GL215550   9.706  15.262   6.282 -0.2404 -0.2379 -0.1909
 1089YOPC   C1A15551   9.558  14.815   6.437 -0.2832  0.1368 -0.0422
 1089YOPC   D2A15552   9.464  14.736   6.738 -0.1177  0.4539  0.0894
 1089YOPC   C3A15553   9.105  14.622   6.753  0.2624  0.1867 -0.1021
 1089YOPC   C4A15554   9.184  14.247   7.032  0.1037 -0.0183  0.0610
 1089YOPC   C1B15555   9.696  15.268   6.687 -0.1920  0.1414  0.0729
 1089YOPC   C2B15556   9.544  15.155   7.029 -0.2197 -0.0907 -0.0360
 1089YOPC   D3B15557   9.454  15.291   7.396 -0.1339  0.2754  0.0452
 1089YOPC   C4B15558   9.308  15.617   7.642  0.0411 -0.1240 -0.2643
 1090YOPC   NC315559   7.455   7.577   5.992  0.1515 -0.0844 -0.2743
 1090YOPC   PO415560   7.702   7.513   6.268 -0.1676 -0.2473  0.0524
 1090YOPC   GL115561   7.869   7.618   6.530 -0.4012 -0.3784  0.0506
 1090YOPC   GL215562   7.752   7.743   6.781  0.0105 -0.0391  0.1374
 1090YOPC   C1A15563   8.280   7.559   6.825  0.1793 -0.3157 -0.0861
 1090YOPC   D2A15564   8.394   7.410   7.220  0.3914 -0.2131 -0.1564
 1090YOPC   C3A15565   8.548   7.002   7.472 -0.2743 -0.0687 -0.0113
 1090YOPC   C4A15566   8.871   6.723   7.448  0.0256  0.0053 -0.3082
 1090YOPC   C1B15567   7.906   7.457   7.123 -0.0138  0.1806  0.0221
 1090YOPC   C2B15568   7.847   7.305   7.593 -0.1752 -0.0878  0.0663
 1090YOPC   D3B15569   7.940   7.556   7.943 -0.0331 -0.1425 -0.0397
 1090YOPC   C4B15570   7.942   7.896   8.332  0.0479 -0.0069  0.0892
 1091YOPC   NC315571   8.800  14.030   5.999 -0.0124  0.2084  0.2366
 1091YOPC   PO415572   8.896  13.608   6.092  0.0396 -0.0812 -0.1852
 1091YOPC   GL115573   8.798  13.506   6.524 -0.0559 -0.0881 -0.0446
 1091YOPC   GL215574   8.722  13.824   6.524 -0.0598  0.0928 -0.0246
 1091YOPC   C1A15575   8.972  13.301   6.981 -0.2698  0.1891 -0.3217
 1091YOPC   D2A15576   9.037  12.967   7.279 -0.2060  0.1684 -0.2299
 1091YOPC   C3A15577   8.671  12.745   7.498  0.0943 -0.0922 -0.2200
 1091YOPC   C4A15578   8.305  12.966   7.537  0.0299 -0.2169 -0.2188
 1091YOPC   C1B15579   8.806  13.949   6.933  0.0440 -0.0029  0.0619
 1091YOPC   C2B15580   8.835  13.747   7.286 -0.1844 -0.1562 -0.1606
 1091YOPC   D3B15581   9.078  13.840   7.629  0.0159 -0.4366  0.1814
 1091YOPC   C4B15582   9.308  13.798   7.944 -0.1218  0.0524 -0.1467
 1092YOPC   NC315583   9.208  18.141   5.494  0.3937  0.1510  0.3314
 1092YOPC   PO415584   9.481  18.037   5.739 -0.0251  0.1160 -0.0320
 1092YOPC   GL115585   9.631  17.917   6.157 -0.1111  0.1267 -0.1280
 1092YOPC   GL215586   9.384  17.888   6.385 -0.2315 -0.1173  0.3836
 1092YOPC   C1A15587   9.906  17.980   6.527 -0.2902 -0.1202  0.2167
 1092YOPC   D2A15588  10.003  17.967   6.939  0.0041  0.1065 -0.1027
 1092YOPC   C3A15589   9.884  18.178   7.238 -0.2042  0.3280  0.1789
 1092YOPC   C4A15590   9.496  18.569   7.385  0.0886  0.1419  0.3879
 1092YOPC   C1B15591   9.298  18.278   6.613  0.2033 -0.4103  0.1943
 1092YOPC   C2B15592   9.049  18.520   6.897 -0.0058 -0.0471  0.2125
 1092YOPC   D3B15593   9.015  18.666   7.253  0.0638  0.0936 -0.1762
 1092YOPC   C4B15594   8.666  18.698   7.611 -0.3316 -0.1763 -0.0471
 1093YOPC   NC315595  16.105  12.660   5.355 -0.0233 -0.0238  0.1299
 1093YOPC   PO415596  15.940  13.045   5.467 -0.1117  0.2173 -0.1714
 1093YOPC   GL115597  15.927  12.866   5.944  0.0342  0.3132  0.0347
 1093YOPC   GL215598  15.957  12.529   5.981  0.1792 -0.1589  0.1149
 1093YOPC   C1A15599  15.906  13.056   6.351  0.5783 -0.1610 -0.0487
 1093YOPC   D2A15600  16.179  13.354   6.608  0.0996 -0.4412  0.0487
 1093YOPC   C3A15601  16.372  13.318   6.991  0.0306  0.0853  0.1270
 1093YOPC   C4A15602  16.653  13.320   7.311 -0.2688  0.2614 -0.1980
 1093YOPC   C1B15603  15.764  12.500   6.395 -0.0084 -0.0744  0.0143
 1093YOPC   C2B15604  15.550  12.657   6.731  0.1883 -0.3071 -0.0546
 1093YOPC   D3B15605  15.747  12.552   7.132 -0.3070 -0.0416  0.1387
 1093YOPC   C4B15606  16.021  12.349   7.353 -0.1461 -0.1798  0.1372
 1094YOPC   NC315607   6.263   8.315   5.889 -0.0320 -0.2052 -0.0780
 1094YOPC   PO415608   6.655   8.624   6.077 -0.0648  0.0639 -0.0824
 1094YOPC   GL115609   6.314   8.809   6.279  0.0170  0.0442 -0.0036
 1094YOPC   GL215610   6.167   8.487   6.366 -0.2931  0.0758  0.3553
 1094YOPC   C1A15611   5.967   9.058   6.541 -0.0122  0.1692 -0.2315
 1094YOPC   D2A15612   5.737   9.255   6.816  0.0566 -0.0588  0.2373
 1094YOPC   C3A15613   5.660   9.531   7.176  0.3669  0.2312 -0.3684
 1094YOPC   C4A15614   5.394   9.759   7.476  0.0220 -0.0113 -0.0827
 1094YOPC   C1B15615   5.813   8.574   6.714  0.0361  0.1980  0.1212
 1094YOPC   C2B15616   5.706   8.715   7.108 -0.0194  0.1406 -0.0715
 1094YOPC   D3B15617   5.635   9.093   7.335 -0.1595  0.0959 -0.1873
 1094YOPC   C4B15618   5.446   9.291   7.692 -0.0028  0.2089  0.1148
 1095YOPC   NC315619   3.415  17.637   5.955 -0.2207 -0.2935  0.0532
 1095YOPC   PO415620   3.006  17.741   6.129 -0.1443  0.1930  0.1030
 1095YOPC   GL115621   2.871  17.460   6.438  0.0926  0.1690  0.1167
 1095YOPC   GL215622   2.566  17.495   6.456  0.0732  0.1303 -0.0980
 1095YOPC   C1A15623   2.855  17.080   6.660 -0.0963 -0.0222 -0.2058
 1095YOPC   D2A15624   2.833  16.762   6.995  0.2486  0.2025 -0.2603
 1095YOPC   C3A15625   2.897  16.895   7.386 -0.3154 -0.1943 -0.0103
 1095YOPC   C4A15626   3.228  16.803   7.656  0.0793 -0.1607 -0.0879
 1095YOPC   C1B15627   2.195  17.718   6.612  0.0525 -0.1066  0.1049
 1095YOPC   C2B15628   1.882  17.760   6.924 -0.0718  0.1647  0.1730
 1095YOPC   D3B15629   1.947  17.534   7.347 -0.3359  0.1229  0.0510
 1095YOPC   C4B15630   2.062  17.377   7.741  0.1757  0.0593 -0.1221
 1096YOPC   NC315631  13.886  11.172   6.042 -0.0425  0.3619 -0.1304
 1096YOPC   PO415632  14.307  11.233   6.129 -0.1133  0.0881 -0.0894
 1096YOPC   GL115633  14.373  11.381   6.538 -0.1036  0.4061  0.0011
 1096YOPC   GL215634  14.353  11.727   6.585  0.0138  0.0279 -0.0622
 1096YOPC   C1A15635  14.349  11.193   6.964  0.0806  0.3316 -0.0546
 1096YOPC   D2A15636  14.444  11.021   7.302 -0.1666 -0.0602  0.0376
 1096YOPC   C3A15637  14.245  10.931   7.645  0.0156 -0.1763 -0.2741
 1096YOPC   C4A15638  14.279  10.865   8.093 -0.1758  0.1132  0.0031
 1096YOPC   C1B15639  14.363  11.704   7.030  0.4036  0.1145 -0.0017
 1096YOPC   C2B15640  14.389  11.490   7.510  0.0666  0.1485  0.2005
 1096YOPC   D3B15641  14.229  11.783   7.790 -0.1042  0.4439  0.0619
 1096YOPC   C4B15642  13.794  11.774   7.987 -0.3199  0.4662  0.2028
 1097YOPC   NC315643   8.408  10.745   5.756  0.3167  0.1847  0.0384
 1097YOPC   PO415644   8.254  10.899   6.061 -0.1284 -0.0064 -0.2049
 1097YOPC   GL115645   8.240  10.913   6.535 -0.1658  0.0462 -0.2476
 1097YOPC   GL215646   8.023  11.035   6.709 -0.0146 -0.0259  0.2365
 1097YOPC   C1A15647   8.566  10.930   6.894 -0.3176  0.1235 -0.4554
 1097YOPC   D2A15648   8.793  11.157   7.221  0.2332  0.1311 -0.2757
 1097YOPC   C3A15649   8.750  11.182   7.550 -0.0735 -0.0665 -0.2325
 1097YOPC   C4A15650   8.817  10.840   7.844 -0.0285 -0.3529 -0.0990
 1097YOPC   C1B15651   8.140  10.770   7.073  0.1713  0.1885  0.2603
 1097YOPC   C2B15652   8.174  10.590   7.364 -0.1886  0.1082 -0.3618
 1097YOPC   D3B15653   7.885  10.559   7.662  0.1663  0.0966  0.2170
 1097YOPC   C4B15654   7.698  10.228   7.959 -0.4556  0.0289  0.4232
 1098YOPC   NC315655  15.970  11.197   6.152 -0.0165  0.2423 -0.0549
 1098YOPC   PO415656  16.353  11.280   6.162 -0.1057 -0.1849 -0.0088
 1098YOPC   GL115657  16.663  11.427   6.435  0.1423  0.0044  0.0240
 1098YOPC   GL215658  16.914  11.624   6.113  0.1500  0.0248  0.3078
 1098YOPC   C1A15659  16.982  11.388   6.672  0.4076 -0.2578 -0.0597
 1098YOPC   D2A15660  17.450  11.277   6.640 -0.0871  0.0247 -0.1787
 1098YOPC   C3A15661  17.770  11.015   6.658 -0.0267 -0.0697  0.0111
 1098YOPC   C4A15662  18.021  10.729   6.514 -0.5218 -0.2013  0.0880
 1098YOPC   C1B15663  17.267  11.744   6.345  0.1625  0.0525 -0.2469
 1098YOPC   C2B15664  17.615  11.746   6.562 -0.3004  0.1857  0.1268
 1098YOPC   D3B15665  17.699  11.720   7.049  0.0952 -0.2859 -0.0602
 1098YOPC   C4B15666  17.359  11.668   7.379  0.0117 -0.0780 -0.0850
 1099YOPC   NC315667  14.708   1.646   5.466  0.1653 -0.3924  0.1233
 1099YOPC   PO415668  14.629   1.463   5.901 -0.0934  0.2095  0.0209
 1099YOPC   GL115669  14.516   1.100   6.220  0.0560 -0.0023 -0.0857
 1099YOPC   GL215670  14.673   0.855   6.083  0.3697  0.0937 -0.1425
 1099YOPC   C1A15671  14.471   1.015   6.631 -0.4199 -0.2857  0.2011
 1099YOPC   D2A15672  14.352   0.739   6.856  0.0913 -0.0590 -0.0992
 1099YOPC   C3A15673  14.643   0.393   7.051 -0.1150  0.0977  0.0263
 1099YOPC   C4A15674  14.845   0.357   7.334  0.0285 -0.1984 -0.3619
 1099YOPC   C1B15675  15.090   0.696   6.231  0.3757 -0.2386 -0.0990
 1099YOPC   C2B15676  15.541   0.596   6.331  0.1101 -0.1438 -0.0983
 1099YOPC   D3B15677  15.556   0.608   6.699  0.1453 -0.1155 -0.2174
 1099YOPC   C4B15678  15.647   0.647   7.113  0.0424 -0.2408 -0.0774
 1100YOPC   NC315679   9.694   5.829   5.908  0.0213  0.1548  0.0402
 1100YOPC   PO415680  10.116   5.998   6.021  0.1966  0.0310  0.0283
 1100YOPC   GL115681  10.312   5.917   6.465 -0.1913 -0.2141 -0.2289
 1100YOPC   GL215682  10.310   6.133   6.755  0.1183 -0.1416 -0.2042
 1100YOPC   C1A15683  10.110   5.693   6.775  0.2157 -0.2921  0.2325
 1100YOPC   D2A15684  10.046   5.891   7.188 -0.0514  0.1293 -0.0808
 1100YOPC   C3A15685  10.208   6.042   7.709  0.1616 -0.0961  0.2258
 1100YOPC   C4A15686  10.194   6.318   8.097 -0.0546  0.2411  0.1600
 1100YOPC   C1B15687   9.868   6.144   6.721  0.0003  0.2989  0.1045
 1100YOPC   C2B15688   9.558   5.895   7.010  0.1242  0.0429  0.0199
 1100YOPC   D3B15689   9.140   5.977   7.242 -0.0587  0.1847  0.0590
 1100YOPC   C4B15690   8.872   6.237   7.503 -0.2234  0.3321  0.0577
 1101YOPC   NC315691  11.109   8.263   5.946 -0.1034  0.2082  0.1468
 1101YOPC   PO415692  11.570   8.383   5.929 -0.0270  0.1208 -0.1245
 1101YOPC   GL115693  11.438   8.404   6.339  0.1789 -0.1636  0.1940
 1101YOPC   GL215694  11.617   8.584   6.581  0.2948 -0.0737  0.1681
 1101YOPC   C1A15695  11.375   8.089   6.700 -0.1873 -0.0020 -0.2318
 1101YOPC   D2A15696  11.203   7.996   7.052 -0.1930  0.2029 -0.0139
 1101YOPC   C3A15697  11.229   7.707   7.420  0.0304  0.0266  0.0948
 1101YOPC   C4A15698  11.483   7.426   7.557 -0.0278 -0.0833 -0.2215
 1101YOPC   C1B15699  11.530   8.819   6.971 -0.1318  0.1062  0.0624
 1101YOPC   C2B15700  11.343   8.957   7.363  0.0132 -0.1156  0.2128
 1101YOPC   D3B15701  11.453   9.068   7.788 -0.1463  0.2095 -0.3213
 1101YOPC   C4B15702  11.802   9.043   8.135  0.1518 -0.1621 -0.0737
 1102YOPC   NC315703   8.639   4.660   5.831 -0.1021  0.1645 -0.1320
 1102YOPC   PO415704   8.347   4.392   6.115  0.0342  0.3264 -0.1427
 1102YOPC   GL115705   8.250   4.579   6.640  0.1250 -0.0401 -0.0707
 1102YOPC   GL215706   8.546   4.618   6.799  0.0310 -0.0904  0.1693
 1102YOPC   C1A15707   8.150   4.559   7.087  0.0275  0.5605  0.2761
 1102YOPC   D2A15708   8.158   4.662   7.509  0.1030 -0.0022  0.1974
 1102YOPC   C3A15709   7.983   5.059   7.495 -0.0445 -0.2687  0.1106
 1102YOPC   C4A15710   7.823   5.350   7.905  0.1244 -0.1217  0.1582
 1102YOPC   C1B15711   8.870   4.836   6.866  0.2074  0.3818  0.1054
 1102YOPC   C2B15712   9.309   5.084   6.962 -0.1174  0.0772  0.0358
 1102YOPC   D3B15713   9.498   5.000   7.302  0.3145  0.1804  0.3302
 1102YOPC   C4B15714   9.824   5.037   7.561 -0.1122  0.1979  0.0349
 1103YOPC   NC315715   0.161  15.581   5.888 -0.1689  0.2765  0.0364
 1103YOPC   PO415716   0.421  15.821   6.066  0.1208  0.3900  0.0511
 1103YOPC   GL115717   0.216  15.963   6.412 -0.0116  0.2202  0.0731
 1103YOPC   GL215718  -0.109  15.951   6.289  0.0507 -0.1056 -0.2784
 1103YOPC   C1A15719   0.212  16.208   6.777 -0.0161  0.0124 -0.0452
 1103YOPC   D2A15720   0.154  16.222   7.219 -0.1854 -0.4430 -0.6182
 1103YOPC   C3A15721   0.575  16.240   7.405  0.2729 -0.0933 -0.0061
 1103YOPC   C4A15722   0.966  16.450   7.607  0.0742 -0.1315  0.2236
 1103YOPC   C1B15723  -0.196  15.956   6.760  0.0783 -0.1384 -0.0823
 1103YOPC   C2B15724  -0.368  16.072   7.167  0.1925 -0.0102 -0.3255
 1103YOPC   D3B15725  -0.149  16.021   7.582 -0.0074 -0.1042 -0.1333
 1103YOPC   C4B15726   0.151  16.380   7.825  0.0438 -0.1888 -0.0905
 1104YOPC   NC315727   2.436   6.528   5.792 -0.0277  0.0547 -0.2217
 1104YOPC   PO415728   2.437   6.936   5.717  0.0439 -0.1188 -0.1532
 1104YOPC   GL115729   2.451   6.901   6.195  0.0315  0.0737 -0.1186
 1104YOPC   GL215730   2.215   7.042   6.282 -0.0514 -0.3224 -0.0807
 1104YOPC   C1A15731   2.700   6.714   6.491 -0.0050  0.1604 -0.3702
 1104YOPC   D2A15732   2.894   6.592   6.834  0.2655  0.0363  0.0316
 1104YOPC   C3A15733   2.690   6.315   6.961  0.1686  0.0084  0.1654
 1104YOPC   C4A15734   2.610   5.908   6.938 -0.3925  0.2607  0.2877
 1104YOPC   C1B15735   1.846   7.148   6.593  0.1718 -0.1085 -0.0053
 1104YOPC   C2B15736   1.656   7.171   6.981 -0.0824 -0.2710  0.1986
 1104YOPC   D3B15737   2.044   7.357   7.332  0.0662 -0.1146  0.3046
 1104YOPC   C4B15738   2.502   7.206   7.415  0.0647 -0.4694  0.0189
 1105YOPC   NC315739  13.593   8.113   5.914  0.1597  0.1077 -0.0522
 1105YOPC   PO415740  13.322   8.229   6.274 -0.1615  0.0729 -0.0588
 1105YOPC   GL115741  13.622   7.869   6.444  0.2428  0.1797  0.0777
 1105YOPC   GL215742  13.697   8.006   6.559 -0.2100  0.0269 -0.2535
 1105YOPC   C1A15743  13.686   7.492   6.551  0.3338 -0.2884 -0.0116
 1105YOPC   D2A15744  13.536   7.001   6.553 -0.0537  0.0589  0.1850
 1105YOPC   C3A15745  13.473   6.754   6.890  0.2201 -0.0104 -0.1620
 1105YOPC   C4A15746  13.629   6.505   7.115 -0.2836 -0.1020  0.0951
 1105YOPC   C1B15747  13.801   8.157   7.028 -0.0889 -0.1681  0.0745
 1105YOPC   C2B15748  14.195   8.304   7.141 -0.0815  0.2153  0.0887
 1105YOPC   D3B15749  14.219   8.266   7.543 -0.0800 -0.0879 -0.3127
 1105YOPC   C4B15750  14.541   8.304   7.875  0.2864 -0.1188 -0.0236
 1106YOPC   NC315751  16.815  11.053   6.014  0.2891 -0.3749 -0.2476
 1106YOPC   PO415752  17.147  10.840   5.966 -0.1323  0.3141 -0.0126
 1106YOPC   GL115753  17.146  10.898   6.424  0.0559 -0.1106  0.0829
 1106YOPC   GL215754  16.909  10.922   6.612  0.4496 -0.0419  0.0213
 1106YOPC   C1A15755  17.307  10.708   6.861 -0.2320 -0.0049 -0.1248
 1106YOPC   D2A15756  17.385  10.569   7.287 -0.0655  0.1101  0.1718
 1106YOPC   C3A15757  17.604  10.889   7.581 -0.0472 -0.1031 -0.0737
 1106YOPC   C4A15758  17.581  10.960   7.997  0.1631  0.0525 -0.0814
 1106YOPC   C1B15759  16.885  10.919   7.094 -0.2448  0.2585  0.3108
 1106YOPC   C2B15760  16.992  10.846   7.462 -0.0839  0.0606 -0.0074
 1106YOPC   D3B15761  16.801  11.015   7.721 -0.1649  0.2529  0.0273
 1106YOPC   C4B15762  16.586  10.917   8.009 -0.1088  0.0407  0.2496
 1107YOPC   NC315763  16.738  13.092   5.993 -0.1347  0.1773  0.1668
 1107YOPC   PO415764  16.777  13.367   5.675 -0.0023 -0.0155  0.0734
 1107YOPC   GL115765  16.587  13.569   6.056  0.2994 -0.1827  0.4160
 1107YOPC   GL215766  16.634  13.932   6.070  0.0091  0.1256  0.2430
 1107YOPC   C1A15767  16.637  13.596   6.506 -0.0898 -0.1698  0.2225
 1107YOPC   D2A15768  16.769  13.541   6.899 -0.1985 -0.2201  0.0324
 1107YOPC   C3A15769  16.826  13.837   7.094  0.2597 -0.0977 -0.1846
 1107YOPC   C4A15770  16.987  14.004   7.527  0.1969  0.2213 -0.0553
 1107YOPC   C1B15771  17.034  13.915   6.316 -0.0144 -0.0817 -0.2206
 1107YOPC   C2B15772  17.221  13.675   6.474 -0.0763 -0.0078  0.0542
 1107YOPC   D3B15773  17.314  13.703   6.830  0.1455 -0.0348  0.0012
 1107YOPC   C4B15774  17.305  13.949   7.138 -0.0251  0.0086  0.3284
 1108YOPC   NC315775   3.936  12.400   6.033  0.1308  0.1304 -0.1614
 1108YOPC   PO415776   3.894  12.003   5.881  0.0158  0.2994  0.0505
 1108YOPC   GL115777   3.565  11.990   6.184  0.4579  0.1152 -0.2460
 1108YOPC   GL215778   3.388  11.667   6.199 -0.0320 -0.3297 -0.0327
 1108YOPC   C1A15779   3.688  12.039   6.651 -0.0540  0.0772 -0.2171
 1108YOPC   D2A15780   3.796  12.164   6.934 -0.0686  0.0091  0.0895
 1108YOPC   C3A15781   3.932  11.936   7.256 -0.1888  0.0401 -0.0369
 1108YOPC   C4A15782   3.886  11.502   7.608  0.1040 -0.1211 -0.4179
 1108YOPC   C1B15783   3.486  11.566   6.535 -0.1363  0.1872 -0.1987
 1108YOPC   C2B15784   3.409  11.759   6.985  0.2331  0.0708  0.3186
 1108YOPC   D3B15785   3.442  11.538   7.298 -0.2052  0.2854  0.0949
 1108YOPC   C4B15786   3.420  11.499   7.709  0.0402 -0.0580 -0.2461
 1109YOPC   NC315787   8.443  11.324   6.326 -0.1219 -0.2971 -0.1021
 1109YOPC   PO415788   8.895  11.390   6.204  0.0962  0.0876 -0.1050
 1109YOPC   GL115789   8.822  11.491   6.684  0.1694  0.1236 -0.1754
 1109YOPC   GL215790   9.064  11.420   6.686 -0.1104 -0.0925 -0.0942
 1109YOPC   C1A15791   8.661  11.594   7.016  0.0596 -0.0423 -0.0581
 1109YOPC   D2A15792   8.798  11.668   7.428 -0.0717  0.0059  0.2901
 1109YOPC   C3A15793   8.641  11.576   7.802 -0.1265  0.1095 -0.1597
 1109YOPC   C4A15794   8.749  11.661   8.216 -0.2887  0.0478  0.0611
 1109YOPC   C1B15795   9.143  11.455   7.116  0.0893 -0.0222  0.0051
 1109YOPC   C2B15796   9.247  11.025   7.404  0.1141 -0.0417  0.1975
 1109YOPC   D3B15797   9.153  10.659   7.545  0.0519 -0.6008 -0.0470
 1109YOPC   C4B15798   9.331  10.241   7.767 -0.1583  0.1187  0.0475
 1110YOPC   NC315799   8.593   5.816   6.080 -0.0723  0.0198  0.2119
 1110YOPC   PO415800   8.178   5.897   5.988  0.0951  0.1016 -0.1780
 1110YOPC   GL115801   8.124   5.888   6.446  0.0088 -0.0541  0.2669
 1110YOPC   GL215802   8.249   5.608   6.719  0.1962 -0.0707 -0.2031
 1110YOPC   C1A15803   7.922   5.957   6.937  0.0280  0.2161 -0.0704
 1110YOPC   D2A15804   7.965   5.835   7.343  0.0077 -0.0908 -0.0486
 1110YOPC   C3A15805   8.211   5.545   7.653 -0.1672 -0.0802 -0.0133
 1110YOPC   C4A15806   8.569   5.398   7.959 -0.1068  0.1178  0.1553
 1110YOPC   C1B15807   8.348   5.478   7.192  0.0338  0.1165 -0.1476
 1110YOPC   C2B15808   8.711   5.686   7.411  0.2578 -0.0810  0.0326
 1110YOPC   D3B15809   8.965   5.401   7.677  0.4462 -0.0244 -0.1910
 1110YOPC   C4B15810   9.095   5.236   8.125  0.2081  0.1939  0.2544
 1111YOPC   NC315811  11.765  10.133   6.009  0.3360 -0.3117  0.1827
 1111YOPC   PO415812  11.653  10.504   6.159 -0.0307 -0.2854  0.2741
 1111YOPC   GL115813  11.550  10.352   6.559  0.0722 -0.1813 -0.1036
 1111YOPC   GL215814  11.380  10.715   6.581  0.3439  0.2566  0.0388
 1111YOPC   C1A15815  11.692  10.121   6.945 -0.2270 -0.1856 -0.0168
 1111YOPC   D2A15816  11.867  10.008   7.329  0.1949 -0.1492  0.1848
 1111YOPC   C3A15817  11.963  10.064   7.690  0.0112 -0.0137 -0.1741
 1111YOPC   C4A15818  12.090  10.077   8.102  0.0582 -0.3411  0.4500
 1111YOPC   C1B15819  11.452  10.573   6.984 -0.0239  0.0277 -0.0239
 1111YOPC   C2B15820  11.750  10.479   7.334 -0.1429 -0.1114  0.1027
 1111YOPC   D3B15821  11.640  10.519   7.702 -0.0703  0.0982 -0.0292
 1111YOPC   C4B15822  11.530  10.706   8.153 -0.1917  0.0480 -0.2171
 1112YOPC   NC315823   1.728  10.272   5.803  0.3448 -0.3047  0.0270
 1112YOPC   PO415824   1.481   9.993   6.078 -0.1207  0.0962  0.3475
 1112YOPC   GL115825   1.329   9.779   6.397  0.0820  0.0104  0.0400
 1112YOPC   GL215826   1.089   9.754   6.323 -0.2256 -0.1179  0.1881
 1112YOPC   C1A15827   1.345   9.646   6.846  0.0472 -0.0877 -0.0713
 1112YOPC   D2A15828   1.001   9.307   7.067  0.0747  0.0085 -0.0356
 1112YOPC   C3A15829   0.646   9.517   7.245 -0.2246 -0.0098  0.3377
 1112YOPC   C4A15830   0.376   9.425   7.603 -0.1169 -0.1316 -0.2406
 1112YOPC   C1B15831   1.092  10.051   6.758  0.2870  0.0872  0.0589
 1112YOPC   C2B15832   1.098   9.809   7.206  0.0157  0.0055  0.0761
 1112YOPC   D3B15833   1.281   9.959   7.546 -0.0873 -0.0218  0.1647
 1112YOPC   C4B15834   1.515  10.078   7.822 -0.0108  0.1384 -0.0710
 1113YOPC   NC315835   1.777  12.903   5.466 -0.1677  0.1498 -0.3172
 1113YOPC   PO415836   1.623  13.002   5.875  0.2017  0.0276 -0.0404
 1113YOPC   GL115837   1.886  13.033   6.304 -0.2875  0.0422 -0.1613
 1113YOPC   GL215838   2.153  12.759   6.260  0.1372 -0.1733 -0.2108
 1113YOPC   C1A15839   1.873  13.064   6.775  0.1312  0.0646 -0.0743
 1113YOPC   D2A15840   2.255  13.201   7.018  0.0384  0.1941 -0.1394
 1113YOPC   C3A15841   2.250  13.340   7.357 -0.3663 -0.1686  0.1200
 1113YOPC   C4A15842   2.543  13.486   7.652  0.0660  0.2427  0.1014
 1113YOPC   C1B15843   1.842  12.556   6.621 -0.0537 -0.0974  0.0941
 1113YOPC   C2B15844   1.455  12.429   6.635  0.1068  0.2457  0.5596
 1113YOPC   D3B15845   1.054  12.325   6.843  0.0584 -0.0368 -0.0414
 1113YOPC   C4B15846   0.744  12.467   6.960  0.0318 -0.2693 -0.0105
 1114YOPC   NC315847   5.160   1.889   5.443 -0.1379  0.4800  0.0737
 1114YOPC   PO415848   4.769   1.819   5.653 -0.1551  0.1063  0.1592
 1114YOPC   GL115849   4.873   1.729   6.117  0.0357 -0.1845 -0.4623
 1114YOPC   GL215850   4.692   1.489   6.235 -0.1656  0.1823  0.2160
 1114YOPC   C1A15851   4.653   1.924   6.498  0.0528  0.1252  0.0427
 1114YOPC   D2A15852   4.591   2.231   6.900 -0.2949  0.0059 -0.2084
 1114YOPC   C3A15853   4.842   2.554   7.006  0.0881  0.2118  0.0676
 1114YOPC   C4A15854   5.245   2.426   7.085  0.0142 -0.1294  0.0039
 1114YOPC   C1B15855   4.527   1.365   6.614  0.0746  0.1627  0.0246
 1114YOPC   C2B15856   4.048   1.422   6.651  0.1810  0.1283 -0.2336
 1114YOPC   D3B15857   3.827   1.679   6.875  0.1577  0.0737  0.1311
 1114YOPC   C4B15858   3.528   1.510   7.039 -0.1340  0.3684  0.0145
 1115ERGO   ROH15859  12.089  14.601   6.581 -0.3058 -0.2326  0.0462
 1115ERGO    R115860  12.097  14.690   6.850 -0.2952 -0.1310  0.0127
 1115ERGO    R215861  11.868  14.736   6.998 -0.2895 -0.2976  0.0760
 1115ERGO    R315862  11.986  14.565   7.173 -0.0627 -0.1266  0.0964
 1115ERGO    R415863  11.838  14.754   7.342 -0.5071 -0.4293  0.0655
 1115ERGO    R515864  12.050  14.703   7.358 -0.4138 -0.0451  0.1644
 1115ERGO    C115865  11.931  14.603   7.706 -0.4209 -0.3454  0.0785
 1115ERGO    C215866  11.953  14.607   8.093  0.2275 -0.0839  0.1752
 1116ERGO   ROH15867  12.132  12.794   6.490 -0.1107 -0.2985  0.1455
 1116ERGO    R115868  12.039  13.012   6.644 -0.0440 -0.1434 -0.0312
 1116ERGO    R215869  11.806  13.147   6.584 -0.0928 -0.2329 -0.0395
 1116ERGO    R315870  11.744  13.089   6.843  0.0633  0.0359  0.0615
 1116ERGO    R415871  11.523  13.259   6.748 -0.1506 -0.3106 -0.0853
 1116ERGO    R515872  11.646  13.292   6.926 -0.1154  0.0486 -0.1672
 1116ERGO    C115873  11.300  13.271   7.087 -0.0378 -0.1034 -0.0170
 1116ERGO    C215874  11.142  13.490   7.301 -0.1131 -0.0282 -0.0987
 1117ERGO   ROH15875   2.540   7.831   9.919 -0.1677  0.0493 -0.0967
 1117ERGO    R115876   2.465   7.955   9.676  0.0048  0.1086 -0.1225
 1117ERGO    R215877   2.649   8.047   9.492  0.1382 -0.0446 -0.0727
 1117ERGO    R315878   2.510   7.888   9.321  0.0570  0.0639 -0.1069
 1117ERGO    R415879   2.650   8.078   9.147  0.1603  0.0195 -0.0663
 1117ERGO    R515880   2.436   8.037   9.148  0.1401  0.1343 -0.0796
 1117ERGO    C115881   2.520   7.948   8.787  0.0970  0.1587 -0.0946
 1117ERGO    C215882   2.502   7.907   8.465  0.0378  0.0876  0.2506
 1118ERGO   ROH15883  14.610   9.621   6.463  0.0366 -0.0578 -0.0567
 1118ERGO    R115884  14.656   9.600   6.741  0.1655 -0.0312 -0.0755
 1118ERGO    R215885  14.860   9.736   6.869  0.0938  0.1475 -0.1498
 1118ERGO    R315886  14.657   9.826   7.026  0.0729 -0.0438 -0.0646
 1118ERGO    R415887  14.902   9.904   7.168  0.0607  0.1442 -0.1431
 1118ERGO    R515888  14.735   9.790   7.250  0.1851 -0.0083 -0.0968
 1118ERGO    C115889  14.736  10.086   7.490  0.0217 -0.0373 -0.0591
 1118ERGO    C215890  14.749  10.232   7.775  0.1256  0.2280  0.2722
 1119ERGO   ROH15891  13.110  12.807   6.576 -0.1158  0.2060  0.1742
 1119ERGO    R115892  13.194  12.829   6.845 -0.2220  0.1015  0.2151
 1119ERGO    R215893  13.024  12.785   7.058 -0.2438 -0.1920  0.1317
 1119ERGO    R315894  13.217  12.610   7.134 -0.1148 -0.0660  0.0809
 1119ERGO    R415895  13.102  12.706   7.386 -0.1626 -0.2049  0.1113
 1119ERGO    R515896  13.312  12.707   7.331 -0.1710 -0.0407  0.0950
 1119ERGO    C115897  13.328  12.495   7.648  0.0059 -0.0941  0.0517
 1119ERGO    C215898  13.110  12.424   7.872 -0.2700 -0.2940 -0.3774
 1120ERGO   ROH15899  10.628   2.781   6.809  0.1070  0.1270 -0.0705
 1120ERGO    R115900  10.618   2.789   7.092  0.1971  0.0513 -0.0648
 1120ERGO    R215901  10.835   2.860   7.246  0.1585  0.3121 -0.1277
 1120ERGO    R315902  10.660   3.040   7.351 -0.0501  0.0558 -0.0256
 1120ERGO    R415903  10.855   2.992   7.565  0.2433  0.4473 -0.1882
 1120ERGO    R515904  10.638   2.975   7.580  0.2773  0.0867  0.0209
 1120ERGO    C115905  10.702   3.238   7.849  0.0968  0.2854 -0.1276
 1120ERGO    C215906  10.492   3.376   8.014  0.0873 -0.0361 -0.1986
 1121ERGO   ROH15907   4.919   7.909   6.198 -0.1378  0.0686 -0.0555
 1121ERGO    R115908   4.896   7.796   6.457 -0.0579  0.3567  0.0798
 1121ERGO    R215909   4.688   7.858   6.628 -0.3780  0.0490 -0.1973
 1121ERGO    R315910   4.655   7.589   6.634  0.3302 -0.0551  0.1486
 1121ERGO    R415911   4.540   7.683   6.886 -0.5473  0.1050 -0.2530
 1121ERGO    R515912   4.693   7.529   6.862 -0.0490  0.4390  0.3672
 1121ERGO    C115913   4.424   7.327   7.042  0.0188  0.0399  0.0392
 1121ERGO    C215914   4.350   7.111   7.388  0.2006  0.2702 -0.0011
 1122ERGO   ROH15915  17.919   7.114   9.870 -0.0359 -0.3178 -0.1111
 1122ERGO    R115916  18.030   7.076   9.612  0.0203  0.1345 -0.1594
 1122ERGO    R215917  17.949   6.873   9.443  0.4355  0.0975 -0.3160
 1122ERGO    R315918  17.907   7.077   9.269 -0.0211  0.1618 -0.1464
 1122ERGO    R415919  17.901   6.837   9.103  0.5807  0.2608 -0.3559
 1122ERGO    R515920  18.025   7.013   9.071  0.1801  0.5994 -0.1873
 1122ERGO    C115921  17.834   7.008   8.741  0.2366  0.4162 -0.2197
 1122ERGO    C215922  17.697   7.088   8.413 -0.2363 -0.0502  0.0182
 1123ERGO   ROH15923  17.975  16.951   9.695  0.0663 -0.1358 -0.1029
 1123ERGO    R115924  17.989  16.945   9.412  0.0474 -0.0617 -0.1063
 1123ERGO    R215925  17.769  16.988   9.251  0.0088 -0.1384 -0.0803
 1123ERGO    R315926  17.928  17.177   9.139 -0.0973 -0.0272 -0.0445
 1123ERGO    R415927  17.764  17.079   8.918 -0.2324  0.1290 -0.0074
 1123ERGO    R515928  17.981  17.090   8.922 -0.2337  0.1554 -0.1510
 1123ERGO    C115929  17.910  17.309   8.619 -0.4726  0.3890  0.0687
 1123ERGO    C215930  17.883  17.294   8.243 -0.1911 -0.3507  0.3017
 1124ERGO   ROH15931   5.703  13.303  10.210  0.0989 -0.1745  0.0853
 1124ERGO    R115932   5.711  13.110  10.003  0.1989 -0.1010  0.0188
 1124ERGO    R215933   5.499  13.068   9.831  0.0743 -0.3974  0.2304
 1124ERGO    R315934   5.687  13.111   9.640 -0.1906 -0.0195  0.0406
 1124ERGO    R415935   5.513  12.903   9.527  0.1059 -0.3616  0.2125
 1124ERGO    R515936   5.730  12.893   9.549  0.1523  0.0641 -0.0031
 1124ERGO    C115937   5.699  12.848   9.171 -0.1245  0.0141  0.0240
 1124ERGO    C215938   5.614  12.783   8.781 -0.0070 -0.1016 -0.1926
 1125ERGO   ROH15939   3.839  16.054   9.997 -0.0116 -0.1582  0.0640
 1125ERGO    R115940   3.879  16.219   9.771  0.0403 -0.1598  0.0706
 1125ERGO    R215941   4.131  16.282   9.675  0.0668 -0.1624  0.1226
 1125ERGO    R315942   4.031  16.184   9.442  0.1125 -0.1678  0.1066
 1125ERGO    R415943   4.209  16.403   9.361 -0.1282  0.0340  0.1482
 1125ERGO    R515944   4.000  16.377   9.305 -0.1114 -0.1502  0.1872
 1125ERGO    C115945   4.161  16.381   8.959 -0.1988  0.1431  0.1479
 1125ERGO    C215946   4.324  16.452   8.676  0.1441 -0.1086 -0.0069
 1126ERGO   ROH15947  12.538  13.632   6.533 -0.4323 -0.2013  0.0339
 1126ERGO    R115948  12.666  13.620   6.785 -0.2928 -0.0350 -0.0270
 1126ERGO    R215949  12.620  13.806   6.984 -0.3672 -0.0409 -0.0427
 1126ERGO    R315950  12.562  13.586   7.132 -0.0858 -0.0685  0.0341
 1126ERGO    R415951  12.618  13.795   7.330 -0.2063  0.0391 -0.0376
 1126ERGO    R515952  12.711  13.598   7.319 -0.0134  0.1247 -0.0314
 1126ERGO    C115953  12.562  13.581   7.670  0.1517  0.0600  0.0374
 1126ERGO    C215954  12.684  13.626   7.957  0.2413 -0.2597  0.2976
 1127ERGO   ROH15955   6.263  16.265   6.227 -0.0978  0.0643 -0.2516
 1127ERGO    R115956   6.246  16.465   6.426  0.0683 -0.0634 -0.1048
 1127ERGO    R215957   6.073  16.679   6.408  0.2239  0.0847  0.0621
 1127ERGO    R315958   5.991  16.592   6.653  0.1802 -0.0347  0.0047
 1127ERGO    R415959   6.006  16.885   6.678  0.1439 -0.0479  0.1441
 1127ERGO    R515960   6.103  16.738   6.807  0.1294 -0.0953  0.0963
 1127ERGO    C115961   5.891  16.924   7.064  0.0562 -0.2375  0.1381
 1127ERGO    C215962   5.858  17.163   7.242 -0.2128  0.0898  0.0221
 1128ERGO   ROH15963  15.081  16.308   6.233 -0.0710 -0.2086 -0.1539
 1128ERGO    R115964  14.941  16.451   6.434  0.0597 -0.1557 -0.0995
 1128ERGO    R215965  14.684  16.387   6.510  0.0351 -0.0090 -0.0568
 1128ERGO    R315966  14.794  16.376   6.758  0.0814 -0.1204 -0.0815
 1128ERGO    R415967  14.536  16.509   6.797  0.2260  0.1504 -0.0241
 1128ERGO    R515968  14.731  16.583   6.860  0.3196 -0.0509 -0.0690
 1128ERGO    C115969  14.553  16.570   7.198  0.3806  0.1389 -0.0282
 1128ERGO    C215970  14.257  16.731   7.419  0.0627 -0.0607 -0.0194
 1129ERGO   ROH15971   9.269  13.328  10.289 -0.1959  0.2263  0.0908
 1129ERGO    R115972   9.365  13.254  10.033 -0.1100  0.1831  0.1346
 1129ERGO    R215973   9.200  13.154   9.835 -0.0241  0.0276  0.1358
 1129ERGO    R315974   9.308  13.357   9.689 -0.0992  0.0318  0.0875
 1129ERGO    R415975   9.180  13.181   9.491  0.0895 -0.1377  0.1159
 1129ERGO    R515976   9.387  13.250   9.490  0.0453 -0.0052  0.1652
 1129ERGO    C115977   9.270  13.387   9.154  0.0853 -0.2299  0.0590
 1129ERGO    C215978   9.309  13.379   8.782 -0.0116  0.2268  0.0547
 1130ERGO   ROH15979   4.266   7.361   6.602 -0.1602  0.1304  0.0927
 1130ERGO    R115980   4.033   7.339   6.761 -0.1220  0.0998  0.1448
 1130ERGO    R215981   3.937   7.096   6.852 -0.0728  0.0870  0.1619
 1130ERGO    R315982   3.951   7.217   7.094 -0.0334  0.0838  0.1612
 1130ERGO    R415983   3.766   6.994   7.135 -0.0302  0.0831  0.1862
 1130ERGO    R515984   3.729   7.204   7.181 -0.0210  0.0840  0.1951
 1130ERGO    C115985   3.680   7.050   7.527  0.0316  0.0778  0.1997
 1130ERGO    C215986   3.699   7.058   7.805 -0.0772 -0.2276 -0.0117
 1131ERGO   ROH15987  13.137   4.934   6.456 -0.0991 -0.0872  0.2542
 1131ERGO    R115988  13.197   4.994   6.726 -0.1004  0.0057  0.2332
 1131ERGO    R215989  13.436   5.109   6.803 -0.0825 -0.0153  0.1980
 1131ERGO    R315990  13.273   5.292   6.921 -0.0486  0.0662  0.1223
 1131ERGO    R415991  13.525   5.308   7.071 -0.1430 -0.1330  0.3084
 1131ERGO    R515992  13.326   5.276   7.154 -0.2260 -0.0220  0.1591
 1131ERGO    C115993  13.424   5.596   7.337 -0.1463 -0.1250  0.3017
 1131ERGO    C215994  13.689   5.743   7.460  0.0500 -0.1308  0.1613
 1132ERGO   ROH15995  13.054  18.067   6.198 -0.0306 -0.1013 -0.0658
 1132ERGO    R115996  13.198  18.019   6.437 -0.0760 -0.2720 -0.0719
 1132ERGO    R215997  13.228  18.210   6.634  0.3759 -0.2148 -0.1889
 1132ERGO    R315998  13.125  18.016   6.794 -0.0074  0.0884 -0.0520
 1132ERGO    R415999  13.295  18.179   6.971  0.5735 -0.2894 -0.2331
 1132ERGO    R516000  13.305  17.962   6.944 -0.0138 -0.3390 -0.1858
 1132ERGO    C116001  13.237  17.978   7.319  0.3288 -0.0482 -0.1304
 1132ERGO    C216002  13.262  17.871   7.634  0.2867 -0.2661  0.1142
 1133ERGO   ROH16003   0.648  12.450   9.834  0.1773  0.2184 -0.0170
 1133ERGO    R116004   0.824  12.454   9.612  0.2651 -0.4630  0.0207
 1133ERGO    R216005   0.863  12.233   9.450 -0.7554 -0.5887 -0.1280
 1133ERGO    R316006   0.797  12.407   9.252  0.0868 -0.0864 -0.0182
 1133ERGO    R416007   0.908  12.175   9.112 -0.6522 -0.3808 -0.1513
 1133ERGO    R516008   0.971  12.383   9.090  0.1692 -0.5655  0.1309
 1133ERGO    C116009   0.871  12.305   8.730  0.1985  0.2116 -0.0616
 1133ERGO    C216010   0.805  12.367   8.415  0.0663  0.0578  0.0157
 1134ERGO   ROH16011   1.959  11.191   9.945 -0.1079  0.0541  0.0017
 1134ERGO    R116012   1.805  11.164   9.709 -0.0062 -0.0535 -0.0529
 1134ERGO    R216013   1.877  11.281   9.470  0.0031 -0.0135 -0.0295
 1134ERGO    R316014   1.854  11.027   9.376  0.2019 -0.0319 -0.0325
 1134ERGO    R416015   1.880  11.194   9.136 -0.0066  0.0031 -0.0341
 1134ERGO    R516016   1.722  11.049   9.177  0.1294 -0.1391  0.0021
 1134ERGO    C116017   1.860  10.905   8.852  0.1743 -0.0046 -0.0395
 1134ERGO    C216018   1.966  10.908   8.624 -0.0647 -0.0620 -0.0773
 1135ERGO   ROH16019  16.173  11.561   6.546 -0.1400  0.2867 -0.0381
 1135ERGO    R116020  16.159  11.723   6.778 -0.2342  0.1746  0.0361
 1135ERGO    R216021  16.118  11.619   7.031 -0.0476  0.0217  0.0058
 1135ERGO    R316022  16.345  11.756   7.089 -0.1679  0.2314 -0.0091
 1135ERGO    R416023  16.181  11.778   7.331 -0.1199 -0.0372  0.0523
 1135ERGO    R516024  16.270  11.942   7.219 -0.3211  0.1030  0.0910
 1135ERGO    C116025  16.430  11.999   7.561 -0.2748  0.1254  0.0653
 1135ERGO    C216026  16.610  12.035   7.864 -0.0870  0.1919  0.1310
 1136ERGO   ROH16027   7.865   9.327   6.540  0.0733  0.1670  0.0180
 1136ERGO    R116028   7.767   9.169   6.754  0.0989  0.1345  0.0042
 1136ERGO    R216029   7.866   9.189   7.011 -0.0228  0.2524  0.0356
 1136ERGO    R316030   7.605   9.229   7.074 -0.0797  0.0705 -0.0709
 1136ERGO    R416031   7.723   9.117   7.317 -0.0440  0.3137  0.0415
 1136ERGO    R516032   7.547   9.042   7.212  0.0436  0.0968  0.0272
 1136ERGO    C116033   7.395   9.112   7.555 -0.1097  0.1785 -0.0551
 1136ERGO    C216034   7.402   9.364   7.856 -0.0080  0.1546  0.1708
 1137ERGO   ROH16035  14.080  15.158   6.320  0.0829 -0.1149 -0.0801
 1137ERGO    R116036  14.035  15.231   6.590  0.3096 -0.0431 -0.0593
 1137ERGO    R216037  13.848  15.104   6.749  0.0340  0.3666 -0.0407
 1137ERGO    R316038  14.060  15.070   6.915  0.0011 -0.1594 -0.0898
 1137ERGO    R416039  13.825  15.003   7.078 -0.1458  0.4677 -0.0207
 1137ERGO    R516040  13.981  15.147   7.128  0.2497  0.0810 -0.0794
 1137ERGO    C116041  14.010  14.912   7.427 -0.2814  0.0328 -0.0550
 1137ERGO    C216042  14.216  14.849   7.638  0.2733 -0.0868  0.1533
 1138ERGO   ROH16043  15.124  14.141   6.453 -0.3448  0.1280 -0.1849
 1138ERGO    R116044  15.004  14.109   6.707 -0.2741  0.1986 -0.1409
 1138ERGO    R216045  15.105  13.938   6.900 -0.3778  0.0350 -0.2226
 1138ERGO    R316046  15.100  14.162   7.054 -0.0644  0.0080 -0.1689
 1138ERGO    R416047  15.130  13.942   7.244 -0.0494 -0.0467 -0.2432
 1138ERGO    R516048  14.978  14.097   7.249  0.0726  0.0651 -0.0664
 1138ERGO    C116049  15.140  14.154   7.589  0.4361 -0.1195 -0.2048
 1138ERGO    C216050  15.236  14.214   7.933 -0.0637  0.1259 -0.3736
 1139ERGO   ROH16051  10.491   2.675  10.043  0.0580 -0.1891  0.0256
 1139ERGO    R116052  10.582   2.512   9.829  0.1354 -0.0703 -0.0326
 1139ERGO    R216053  10.416   2.427   9.626  0.1669 -0.1083 -0.0414
 1139ERGO    R316054  10.605   2.540   9.467  0.0843  0.0533 -0.0270
 1139ERGO    R416055  10.432   2.394   9.282  0.3890 -0.3454 -0.0116
 1139ERGO    R516056  10.648   2.376   9.299  0.4128 -0.0160  0.1160
 1139ERGO    C116057  10.620   2.482   8.933  0.4407 -0.3317  0.0191
 1139ERGO    C216058  10.546   2.478   8.555 -0.1975 -0.2132  0.1327
 1140ERGO   ROH16059  17.284  13.089   6.146  0.0618 -0.0172  0.1561
 1140ERGO    R116060  17.174  13.120   6.405 -0.0298 -0.0830  0.1260
 1140ERGO    R216061  16.910  13.191   6.447 -0.0347 -0.0508  0.0507
 1140ERGO    R316062  16.908  12.966   6.600 -0.1301 -0.1015 -0.0244
 1140ERGO    R416063  16.664  13.110   6.676  0.0524  0.0957  0.1982
 1140ERGO    R516064  16.820  13.038   6.811  0.0843 -0.0914  0.0637
 1140ERGO    C116065  16.519  12.851   6.953  0.0135  0.1335  0.2136
 1140ERGO    C216066  16.232  12.772   7.192  0.3448 -0.2283  0.0618
 1141ERGO   ROH16067   8.238  11.533   6.780 -0.0541 -0.1110  0.0220
 1141ERGO    R116068   8.165  11.446   7.039 -0.0297 -0.1289  0.0246
 1141ERGO    R216069   8.265  11.214   7.152 -0.0370 -0.1557 -0.0069
 1141ERGO    R316070   8.336  11.382   7.354  0.0082 -0.1765 -0.0077
 1141ERGO    R416071   8.254  11.134   7.488 -0.0489 -0.1453 -0.0062
 1141ERGO    R516072   8.178  11.335   7.528  0.0055 -0.1323 -0.0050
 1141ERGO    C116073   8.313  11.244   7.873 -0.0135 -0.1588 -0.0066
 1141ERGO    C216074   8.430  11.135   8.210  0.0388  0.0377 -0.1599
 1142ERGO   ROH16075   9.813   1.297   6.583  0.0389 -0.2134 -0.2916
 1142ERGO    R116076   9.672   1.077   6.693  0.0657 -0.1814 -0.1924
 1142ERGO    R216077   9.730   0.974   6.943  0.0259 -0.0113 -0.1114
 1142ERGO    R316078   9.465   1.016   6.985  0.0031 -0.0516 -0.2091
 1142ERGO    R416079   9.561   0.894   7.234 -0.0431  0.0862 -0.1240
 1142ERGO    R516080   9.394   0.826   7.113  0.0084 -0.0084 -0.1418
 1142ERGO    C116081   9.215   0.888   7.444 -0.1048  0.1052 -0.2229
 1142ERGO    C216082   9.037   0.835   7.651 -0.0553  0.0893 -0.0735
 1143ERGO   ROH16083   2.663   8.610   6.210  0.1055  0.0760  0.0737
 1143ERGO    R116084   2.710   8.616   6.490 -0.0279  0.0374  0.0986
 1143ERGO    R216085   2.880   8.800   6.607 -0.0041 -0.0436  0.1943
 1143ERGO    R316086   2.662   8.855   6.760 -0.0558  0.0418  0.0899
 1143ERGO    R416087   2.891   8.934   6.926 -0.0984 -0.0515  0.2003
 1143ERGO    R516088   2.730   8.798   6.983 -0.1819  0.0113  0.1223
 1143ERGO    C116089   2.693   9.063   7.255 -0.2018  0.0239  0.1057
 1143ERGO    C216090   2.851   9.379   7.305  0.0591 -0.3129  0.0672
 1144ERGO   ROH16091  10.215   3.530  10.487 -0.0045 -0.2329 -0.0542
 1144ERGO    R116092  10.274   3.556  10.212  0.0086 -0.1047 -0.0401
 1144ERGO    R216093  10.513   3.470  10.102 -0.0171 -0.1181 -0.0791
 1144ERGO    R316094  10.350   3.331   9.936 -0.0531  0.0192 -0.1606
 1144ERGO    R416095  10.544   3.462   9.758 -0.0136  0.0840 -0.0844
 1144ERGO    R516096  10.327   3.473   9.744 -0.0166  0.1457 -0.0772
 1144ERGO    C116097  10.410   3.327   9.401 -0.0453  0.3306 -0.1641
 1144ERGO    C216098  10.474   3.416   9.028 -0.1136  0.0444  0.1660
 1145ERGO   ROH16099   3.774   1.594   9.932 -0.2955 -0.0052  0.0354
 1145ERGO    R116100   3.662   1.734   9.712 -0.1983  0.0003 -0.0107
 1145ERGO    R216101   3.812   1.899   9.548 -0.1025 -0.0872 -0.0097
 1145ERGO    R316102   3.710   1.742   9.352 -0.1255 -0.0805 -0.0035
 1145ERGO    R416103   3.871   1.942   9.210 -0.0902 -0.1110 -0.0109
 1145ERGO    R516104   3.662   1.894   9.173 -0.0989 -0.0795 -0.0113
 1145ERGO    C116105   3.809   1.820   8.829 -0.1047 -0.1185 -0.0058
 1145ERGO    C216106   3.893   1.807   8.486 -0.0753  0.2651 -0.0909
 1146ERGO   ROH16107   9.519  16.167   6.510 -0.0036  0.0073 -0.1531
 1146ERGO    R116108   9.427  16.072   6.760 -0.0082  0.1191 -0.1121
 1146ERGO    R216109   9.278  16.229   6.933 -0.1537  0.1438 -0.2572
 1146ERGO    R316110   9.105  16.020   6.921 -0.0177  0.0234 -0.1616
 1146ERGO    R416111   8.994  16.197   7.127 -0.2602  0.1653 -0.4080
 1146ERGO    R516112   9.038  15.985   7.148 -0.1420  0.2114 -0.1665
 1146ERGO    C116113   8.665  15.982   7.228 -0.1944  0.0647 -0.4061
 1146ERGO    C216114   8.422  15.962   7.512  0.2811  0.5183  0.0690
 1147ERGO   ROH16115   5.570  12.242   6.456  0.1577 -0.0679 -0.0243
 1147ERGO    R116116   5.534  12.295   6.731  0.0193 -0.1917 -0.0160
 1147ERGO    R216117   5.650  12.141   6.929  0.0849 -0.1668 -0.0222
 1147ERGO    R316118   5.745  12.381   7.015 -0.1435 -0.1121  0.0797
 1147ERGO    R416119   5.775  12.202   7.245  0.1494 -0.2028 -0.0420
 1147ERGO    R516120   5.673  12.395   7.243 -0.0607 -0.3181  0.1133
 1147ERGO    C116121   5.937  12.462   7.510 -0.0275 -0.1726  0.0420
 1147ERGO    C216122   5.927  12.513   7.901 -0.1082  0.1749  0.1333
 1148ERGO   ROH16123   0.061   4.543   6.360 -0.0255  0.2081  0.1642
 1148ERGO    R116124  -0.092   4.395   6.547 -0.1228  0.1536  0.0426
 1148ERGO    R216125  -0.351   4.313   6.496 -0.0108 -0.0494 -0.2156
 1148ERGO    R316126  -0.252   4.069   6.559  0.1000  0.0397 -0.0352
 1148ERGO    R416127  -0.519   4.074   6.680  0.1213  0.0319  0.0145
 1148ERGO    R516128  -0.331   4.028   6.781  0.1615  0.1888  0.0160
 1148ERGO    C116129  -0.523   3.705   6.847  0.3024  0.1628  0.3178
 1148ERGO    C216130  -0.845   3.441   6.814  0.3371  0.0615 -0.3268
 1149ERGO   ROH16131   6.888  10.369   6.589 -0.1279  0.0028 -0.0527
 1149ERGO    R116132   6.815  10.230   6.825 -0.0511 -0.1412 -0.1131
 1149ERGO    R216133   6.893   9.970   6.874  0.3138 -0.0351 -0.1114
 1149ERGO    R316134   6.989  10.076   7.105  0.0294  0.0773 -0.0398
 1149ERGO    R416135   6.897   9.808   7.179  0.2411 -0.0185 -0.1009
 1149ERGO    R516136   6.840   9.996   7.274 -0.0244 -0.0670 -0.1513
 1149ERGO    C116137   6.990   9.813   7.574 -0.0681  0.0966 -0.0277
 1149ERGO    C216138   7.081   9.759   7.863 -0.0188 -0.1260  0.1635
 1150ERGO   ROH16139   2.483   4.690   9.974 -0.3258  0.0242  0.0176
 1150ERGO    R116140   2.514   4.831   9.731 -0.1862 -0.0206  0.0089
 1150ERGO    R216141   2.721   4.781   9.555 -0.2043 -0.1954  0.0413
 1150ERGO    R316142   2.518   4.749   9.376 -0.2047 -0.0532  0.0149
 1150ERGO    R416143   2.755   4.804   9.212 -0.1722 -0.0292  0.0547
 1150ERGO    R516144   2.564   4.910   9.205 -0.1489  0.0261  0.0986
 1150ERGO    C116145   2.584   4.787   8.844 -0.1538  0.2010  0.0378
 1150ERGO    C216146   2.607   4.715   8.495 -0.1458  0.1778  0.3222
 1151ERGO   ROH16147   6.735   8.540   6.545  0.1908  0.2978 -0.1225
 1151ERGO    R116148   6.656   8.720   6.748  0.2376  0.0408  0.1298
 1151ERGO    R216149   6.397   8.812   6.773  0.3042  0.2188  0.1333
 1151ERGO    R316150   6.422   8.719   7.027  0.0875 -0.2125  0.0085
 1151ERGO    R416151   6.179   8.883   7.032  0.3717  0.2416  0.1851
 1151ERGO    R516152   6.351   8.902   7.165  0.3926 -0.2690  0.2618
 1151ERGO    C116153   6.076   8.837   7.421  0.2076 -0.1500  0.0980
 1151ERGO    C216154   5.870   8.968   7.772  0.0271  0.0161  0.0671
 1152ERGO   ROH16155   5.205   0.849   5.737  0.1540 -0.0893  0.1343
 1152ERGO    R116156   5.113   0.677   5.942  0.0563 -0.1224  0.0633
 1152ERGO    R216157   5.275   0.487   6.060  0.0462 -0.0339  0.2202
 1152ERGO    R316158   5.197   0.610   6.289 -0.2216 -0.0587  0.1457
 1152ERGO    R416159   5.243   0.331   6.367  0.0159 -0.0011  0.2334
 1152ERGO    R516160   5.062   0.448   6.401 -0.1276 -0.1745  0.0963
 1152ERGO    C116161   5.151   0.357   6.761 -0.2532 -0.0053  0.1711
 1152ERGO    C216162   5.052   0.480   7.101 -0.1086 -0.0533  0.1208
 1153ERGO   ROH16163   6.752  12.994  10.337 -0.2325 -0.0852  0.1439
 1153ERGO    R116164   6.674  12.961  10.067 -0.1622  0.0005  0.1133
 1153ERGO    R216165   6.665  13.171   9.888  0.2033 -0.0011  0.0948
 1153ERGO    R316166   6.826  13.009   9.740  0.0465 -0.2336  0.1706
 1153ERGO    R416167   6.632  13.117   9.548  0.3287  0.1295  0.0601
 1153ERGO    R516168   6.677  12.906   9.582 -0.0294  0.0360  0.0525
 1153ERGO    C116169   6.763  12.934   9.211  0.2544 -0.0128  0.1110
 1153ERGO    C216170   6.673  12.967   8.877 -0.1599 -0.5370  0.1737
 1154ERGO   ROH16171   0.812  16.706   6.238  0.0129  0.0064  0.0314
 1154ERGO    R116172   0.857  16.526   6.452  0.0172 -0.0475 -0.0153
 1154ERGO    R216173   0.717  16.541   6.690  0.0880 -0.0489  0.0255
 1154ERGO    R316174   0.661  16.281   6.636 -0.0072 -0.0224 -0.0078
 1154ERGO    R416175   0.643  16.302   6.928 -0.0861 -0.0361 -0.0139
 1154ERGO    R516176   0.763  16.160   6.815 -0.1132 -0.0795  0.0141
 1154ERGO    C116177   0.546  15.919   7.016 -0.2769 -0.0038 -0.0680
 1154ERGO    C216178   0.585  15.574   7.171 -0.3469 -0.3833 -0.2436
 1155ERGO   ROH16179   1.963   1.165   9.785 -0.0973 -0.0775 -0.0751
 1155ERGO    R116180   1.896   1.077   9.525 -0.1656  0.0796 -0.1111
 1155ERGO    R216181   1.841   1.252   9.318  0.1438  0.2086 -0.0826
 1155ERGO    R316182   2.035   1.111   9.190 -0.0332 -0.0518 -0.0725
 1155ERGO    R416183   1.898   1.260   8.977  0.0986  0.0617 -0.0950
 1155ERGO    R516184   1.933   1.045   8.983 -0.1480  0.0126 -0.0432
 1155ERGO    C116185   2.113   1.133   8.659 -0.0939 -0.2684 -0.0928
 1155ERGO    C216186   2.138   1.191   8.330 -0.3557 -0.0458 -0.1457
 1156ERGO   ROH16187   2.604  14.711   9.746  0.0658 -0.0317 -0.0185
 1156ERGO    R116188   2.634  14.624   9.478  0.0615 -0.0759 -0.0050
 1156ERGO    R216189   2.439  14.662   9.286  0.0069 -0.2148  0.0191
 1156ERGO    R316190   2.643  14.780   9.149 -0.0742 -0.1431 -0.0400
 1156ERGO    R416191   2.439  14.721   8.945 -0.1462 -0.1275  0.0335
 1156ERGO    R516192   2.649  14.662   8.940 -0.1398 -0.0866 -0.0721
 1156ERGO    C116193   2.630  14.866   8.618 -0.3116 -0.0093 -0.0136
 1156ERGO    C216194   2.621  14.927   8.256  0.0326 -0.2743  0.1413
 1157ERGO   ROH16195  10.256   7.591   6.902 -0.4043 -0.0331 -0.2111
 1157ERGO    R116196  10.114   7.617   7.145 -0.2336 -0.0316 -0.1091
 1157ERGO    R216197   9.961   7.413   7.251 -0.3210  0.0330 -0.1006
 1157ERGO    R316198  10.116   7.455   7.471 -0.1470 -0.1745 -0.1806
 1157ERGO    R416199   9.891   7.292   7.567 -0.3284  0.1453 -0.0596
 1157ERGO    R516200   9.958   7.482   7.650 -0.0168  0.0556 -0.1000
 1157ERGO    C116201   9.995   7.260   7.958 -0.1693  0.0160 -0.1106
 1157ERGO    C216202   9.920   7.074   8.341  0.3305  0.1219 -0.0175
 1158ERGO   ROH16203   8.030  16.102  10.153  0.1581 -0.0693  0.0723
 1158ERGO    R116204   7.916  15.951   9.942  0.0370  0.0493  0.0507
 1158ERGO    R216205   7.805  16.068   9.718  0.1355  0.1699  0.0613
 1158ERGO    R316206   7.978  15.905   9.587  0.0068  0.0442  0.0467
 1158ERGO    R416207   7.809  16.019   9.376 -0.0155  0.0548  0.0752
 1158ERGO    R516208   7.846  15.807   9.412 -0.1044  0.0502  0.1282
 1158ERGO    C116209   7.974  15.837   9.054 -0.2243 -0.1302  0.0698
 1158ERGO    C216210   8.004  15.908   8.763 -0.1228 -0.0340  0.1185
 1159ERGO   ROH16211   9.736   4.454   6.746  0.0484 -0.2911 -0.0256
 1159ERGO    R116212   9.810   4.362   7.003 -0.0247 -0.3124 -0.0124
 1159ERGO    R216213   9.816   4.528   7.225  0.1181 -0.2811 -0.0396
 1159ERGO    R316214   9.652   4.339   7.331 -0.0406 -0.1281 -0.0055
 1159ERGO    R416215   9.689   4.534   7.546  0.1294 -0.1225 -0.0372
 1159ERGO    R516216   9.724   4.319   7.558 -0.0511 -0.1518 -0.0037
 1159ERGO    C116217   9.462   4.360   7.833 -0.0132  0.1136 -0.0039
 1159ERGO    C216218   9.191   4.233   7.883 -0.1834  0.0344  0.1366
 1160ERGO   ROH16219   3.345  11.132   6.332  0.0859 -0.0391 -0.0853
 1160ERGO    R116220   3.236  11.046   6.578  0.0131 -0.1055 -0.1403
 1160ERGO    R216221   3.248  11.198   6.808  0.0067 -0.1962 -0.0781
 1160ERGO    R316222   2.979  11.161   6.808 -0.0034 -0.1260 -0.1489
 1160ERGO    R416223   3.043  11.234   7.084 -0.0286 -0.3549 -0.0830
 1160ERGO    R516224   2.933  11.058   7.019 -0.0645 -0.2760 -0.2351
 1160ERGO    C116225   2.671  11.219   7.245 -0.0586 -0.3814 -0.1524
 1160ERGO    C216226   2.542  11.367   7.415 -0.0036  0.2091 -0.1556
 1161ERGO   ROH16227  11.852   1.833   6.635 -0.1032  0.0547 -0.1779
 1161ERGO    R116228  11.971   1.921   6.876 -0.0862 -0.1842 -0.0965
 1161ERGO    R216229  11.953   2.183   6.965  0.2493 -0.1766 -0.0328
 1161ERGO    R316230  11.856   2.065   7.190 -0.0283 -0.1063 -0.1113
 1161ERGO    R416231  12.028   2.281   7.287  0.0725 -0.2547  0.0339
 1161ERGO    R516232  12.039   2.072   7.344 -0.1462 -0.2655  0.0370
 1161ERGO    C116233  11.981   2.229   7.686 -0.2912 -0.2343 -0.0011
 1161ERGO    C216234  11.996   2.216   8.019 -0.1674 -0.2052  0.0203
 1162ERGO   ROH16235   3.410   2.459   6.135  0.0888  0.0173 -0.1247
 1162ERGO    R116236   3.516   2.451   6.398  0.0735  0.0952 -0.1163
 1162ERGO    R216237   3.540   2.217   6.542  0.0208  0.1456 -0.0283
 1162ERGO    R316238   3.800   2.294   6.563  0.0351  0.1034 -0.0415
 1162ERGO    R416239   3.726   2.204   6.833  0.0930 -0.0762 -0.0811
 1162ERGO    R516240   3.813   2.397   6.779  0.0997 -0.0460  0.0288
 1162ERGO    C116241   4.077   2.270   7.023  0.1484 -0.2450 -0.1242
 1162ERGO    C216242   4.384   2.074   7.272  0.0120  0.1992  0.1502
 1163ERGO   ROH16243  11.007   3.766   6.715 -0.1248  0.0253 -0.0387
 1163ERGO    R116244  10.965   3.811   6.992 -0.0079  0.0249 -0.0216
 1163ERGO    R216245  11.150   3.739   7.184  0.1215  0.1328 -0.1142
 1163ERGO    R316246  11.127   4.000   7.257  0.0292  0.1264 -0.1130
 1163ERGO    R416247  11.154   3.855   7.510 -0.0099  0.1117 -0.1031
 1163ERGO    R516248  10.996   3.995   7.457 -0.0369  0.0764 -0.1500
 1163ERGO    C116249  11.136   4.167   7.767 -0.1730  0.0934 -0.0955
 1163ERGO    C216250  10.942   4.164   8.065  0.2877  0.1908 -0.0849
 1164ERGO   ROH16251   5.718   2.874   6.408 -0.0818  0.2033 -0.0977
 1164ERGO    R116252   5.815   2.807   6.665 -0.0580  0.2608 -0.0908
 1164ERGO    R216253   5.708   2.912   6.897 -0.1770  0.1541 -0.0909
 1164ERGO    R316254   5.682   2.651   6.966  0.0296  0.1240 -0.1241
 1164ERGO    R416255   5.655   2.796   7.219 -0.0934  0.0609 -0.1106
 1164ERGO    R516256   5.793   2.633   7.177  0.0350  0.1794 -0.1268
 1164ERGO    C116257   5.600   2.483   7.470  0.1493 -0.0216 -0.1532
 1164ERGO    C216258   5.625   2.563   7.788  0.1480 -0.1155  0.0993
 1165ERGO   ROH16259  12.968   9.655   6.691 -0.0284  0.1641 -0.0628
 1165ERGO    R116260  13.019   9.485   6.912 -0.0111  0.0844 -0.1279
 1165ERGO    R216261  13.260   9.485   7.047 -0.0526  0.1403 -0.0562
 1165ERGO    R316262  13.101   9.527   7.264 -0.1383 -0.0422 -0.0820
 1165ERGO    R416263  13.314   9.350   7.361  0.0974  0.2598 -0.0294
 1165ERGO    R516264  13.099   9.316   7.378  0.1369 -0.0317 -0.0507
 1165ERGO    C116265  13.197   9.311   7.747  0.1042  0.1580 -0.0381
 1165ERGO    C216266  13.236   9.255   8.058  0.1543 -0.1656  0.0718
 1166ERGO   ROH16267   2.553  16.301   9.697  0.2292  0.1511 -0.0545
 1166ERGO    R116268   2.646  16.178   9.459 -0.0387  0.0198 -0.0966
 1166ERGO    R216269   2.475  16.073   9.268 -0.2661  0.1696  0.0153
 1166ERGO    R316270   2.613  16.237   9.101 -0.1930  0.0072 -0.0841
 1166ERGO    R416271   2.515  16.022   8.929 -0.2350 -0.0813  0.0560
 1166ERGO    R516272   2.721  16.088   8.948 -0.2192 -0.1331  0.0347
 1166ERGO    C116273   2.668  16.145   8.575 -0.1483 -0.3798 -0.0137
 1166ERGO    C216274   2.774  16.213   8.258  0.2239 -0.0628 -0.1167
 1167ERGO   ROH16275   9.194  13.739   6.711  0.2186 -0.2128  0.0850
 1167ERGO    R116276   9.279  13.706   6.979  0.0865 -0.0825  0.1451
 1167ERGO    R216277   9.546  13.701   7.051  0.0546 -0.0925  0.2751
 1167ERGO    R316278   9.471  13.899   7.221  0.0072  0.0158  0.1295
 1167ERGO    R416279   9.709  13.782   7.344 -0.0324  0.0914  0.2737
 1167ERGO    R516280   9.515  13.810   7.439 -0.0581  0.1536  0.1986
 1167ERGO    C116281   9.734  14.015   7.675 -0.1274  0.2998  0.1362
 1167ERGO    C216282   9.796  14.056   7.959 -0.4397  0.3080 -0.2881
 1168ERGO   ROH16283   7.045   5.946   6.884  0.2005 -0.0071  0.0067
 1168ERGO    R116284   6.932   5.995   7.139  0.0472  0.0569 -0.0717
 1168ERGO    R216285   7.077   5.972   7.372 -0.2025 -0.3259  0.0589
 1168ERGO    R316286   6.990   6.226   7.414  0.2078 -0.1857  0.1004
 1168ERGO    R416287   7.010   6.108   7.683 -0.1086 -0.3001  0.0681
 1168ERGO    R516288   6.835   6.206   7.596  0.0934  0.0242  0.0239
 1168ERGO    C116289   6.890   6.427   7.903  0.3312 -0.1536  0.1124
 1168ERGO    C216290   6.930   6.588   8.227  0.1337 -0.5266 -0.1393
 1169ERGO   ROH16291   3.268  15.466   9.701 -0.0671  0.1531  0.0742
 1169ERGO    R116292   3.340  15.367   9.446 -0.1734  0.0819  0.0713
 1169ERGO    R216293   3.290  15.506   9.212 -0.0757  0.1172  0.0731
 1169ERGO    R316294   3.557  15.473   9.173 -0.1054 -0.1123  0.0478
 1169ERGO    R416295   3.447  15.513   8.905 -0.0856  0.1039  0.0673
 1169ERGO    R516296   3.572  15.347   8.970 -0.2328 -0.0423 -0.0079
 1169ERGO    C116297   3.789  15.486   8.689 -0.1192 -0.1192  0.0402
 1169ERGO    C216298   3.956  15.502   8.414 -0.0513 -0.1223  0.0425
 1170ERGO   ROH16299   9.438  16.639   6.418  0.2005 -0.0049  0.0369
 1170ERGO    R116300   9.453  16.558   6.689 -0.0148  0.1589  0.1006
 1170ERGO    R216301   9.682  16.453   6.801 -0.2109 -0.1317  0.2464
 1170ERGO    R316302   9.646  16.652   6.982  0.0435  0.0598  0.0937
 1170ERGO    R416303   9.740  16.423   7.140 -0.3349  0.0278  0.2826
 1170ERGO    R516304   9.560  16.540   7.176 -0.1709  0.3278  0.1581
 1170ERGO    C116305   9.740  16.592   7.508 -0.1682  0.3004  0.1603
 1170ERGO    C216306   9.578  16.388   7.886  0.0234 -0.0545  0.2081
 1171ERGO   ROH16307  10.433   8.765   6.843  0.0667  0.0226 -0.0574
 1171ERGO    R116308  10.264   8.790   7.069  0.1067 -0.1628 -0.0061
 1171ERGO    R216309  10.361   8.830   7.324  0.1394  0.1523 -0.0657
 1171ERGO    R316310  10.193   9.043   7.320 -0.2560 -0.1471 -0.1181
 1171ERGO    R416311  10.233   8.987   7.604  0.2564  0.2889 -0.0866
 1171ERGO    R516312  10.042   9.004   7.501  0.0660 -0.1896  0.1517
 1171ERGO    C116313  10.000   9.279   7.763 -0.0466  0.0872 -0.1480
 1171ERGO    C216314   9.860   9.619   7.772 -0.0196  0.2419  0.1424
 1172ERGO   ROH16315   7.872  12.637  10.369  0.0710  0.1170  0.1380
 1172ERGO    R116316   7.939  12.768  10.127 -0.0301 -0.0257  0.0320
 1172ERGO    R216317   8.110  12.658   9.940 -0.1150 -0.1366  0.0255
 1172ERGO    R316318   7.902  12.701   9.771 -0.1831 -0.2308  0.0830
 1172ERGO    R416319   8.125  12.628   9.596 -0.1540 -0.0175  0.0126
 1172ERGO    R516320   8.001  12.807   9.580 -0.2893 -0.0955  0.0955
 1172ERGO    C116321   7.939  12.652   9.237 -0.2407 -0.0365  0.0590
 1172ERGO    C216322   8.052  12.638   8.897  0.2852 -0.2303  0.0093
 1173ERGO   ROH16323   1.291   4.321   6.614 -0.1084  0.0213 -0.0339
 1173ERGO    R116324   1.441   4.344   6.852 -0.2313  0.0459  0.0415
 1173ERGO    R216325   1.654   4.519   6.878 -0.1231 -0.0906  0.0667
 1173ERGO    R316326   1.514   4.606   7.094 -0.1884  0.1287 -0.0597
 1173ERGO    R416327   1.790   4.692   7.144 -0.1465 -0.0662  0.0634
 1173ERGO    R516328   1.664   4.575   7.278 -0.3233  0.0988  0.0481
 1173ERGO    C116329   1.738   4.874   7.502 -0.2215  0.1540 -0.0570
 1173ERGO    C216330   1.993   5.147   7.568  0.3397 -0.1462 -0.1389
 1174ERGO   ROH16331  17.024   5.405   9.910 -0.3400  0.1885  0.0104
 1174ERGO    R116332  16.905   5.557   9.704 -0.1649  0.1682 -0.1075
 1174ERGO    R216333  16.993   5.811   9.636 -0.1130  0.1648 -0.0509
 1174ERGO    R316334  17.011   5.703   9.388  0.1080  0.1457 -0.0289
 1174ERGO    R416335  16.946   5.985   9.342  0.1781  0.1482 -0.1099
 1174ERGO    R516336  16.839   5.813   9.262  0.2339  0.1538 -0.1982
 1174ERGO    C116337  16.936   5.986   8.937  0.5549  0.1206 -0.1235
 1174ERGO    C216338  16.942   6.153   8.711  0.0977 -0.0730 -0.0302
 1175ERGO   ROH16339  17.585  12.947   9.680  0.0197 -0.1793  0.0232
 1175ERGO    R116340  17.449  12.863   9.445 -0.0247 -0.1115  0.0245
 1175ERGO    R216341  17.380  13.038   9.243 -0.0400 -0.0560  0.0750
 1175ERGO    R316342  17.517  12.861   9.088 -0.0792 -0.0335  0.0144
 1175ERGO    R416343  17.402  13.052   8.898  0.0129  0.0825  0.0832
 1175ERGO    R516344  17.381  12.836   8.892 -0.0586  0.0947 -0.0148
 1175ERGO    C116345  17.543  12.895   8.552  0.0068  0.1841  0.0309
 1175ERGO    C216346  17.476  13.070   8.257 -0.2133 -0.0207 -0.1889
 1176ERGO   ROH16347   0.985   4.344   9.914  0.1514 -0.4202  0.0273
 1176ERGO    R116348   1.037   4.395   9.640  0.1136 -0.2314  0.0550
 1176ERGO    R216349   1.267   4.309   9.513  0.1123 -0.1127 -0.0268
 1176ERGO    R316350   1.090   4.198   9.339  0.1110 -0.0252 -0.0834
 1176ERGO    R416351   1.346   4.195   9.196  0.1126  0.0287 -0.0788
 1176ERGO    R516352   1.158   4.279   9.125  0.1185  0.0704 -0.0450
 1176ERGO    C116353   1.225   4.025   8.849  0.1117  0.1931 -0.1622
 1176ERGO    C216354   1.293   3.791   8.587 -0.0741 -0.1329 -0.2960
 1177ERGO   ROH16355  16.614   7.565   6.643 -0.0905 -0.0074  0.1292
 1177ERGO    R116356  16.815   7.561   6.842 -0.0804 -0.0267  0.1212
 1177ERGO    R216357  16.916   7.792   6.956  0.0737 -0.0197 -0.0021
 1177ERGO    R316358  16.847   7.670   7.188 -0.0024  0.1412  0.0592
 1177ERGO    R416359  17.099   7.808   7.248  0.3475 -0.4157 -0.1447
 1177ERGO    R516360  17.055   7.596   7.281 -0.0892 -0.3163 -0.1050
 1177ERGO    C116361  17.140   7.702   7.637  0.4357 -0.4951 -0.1703
 1177ERGO    C216362  17.139   7.704   7.884 -0.0523  0.1049  0.1631
 1178ERGO   ROH16363  12.124  10.319   6.320 -0.0893 -0.0557 -0.1305
 1178ERGO    R116364  12.159  10.539   6.494  0.0483 -0.0810 -0.1248
 1178ERGO    R216365  11.949  10.698   6.577  0.1584  0.1049 -0.1926
 1178ERGO    R316366  12.042  10.636   6.825  0.0290  0.0273 -0.1634
 1178ERGO    R416367  11.987  10.924   6.836  0.3226  0.0855 -0.1987
 1178ERGO    R516368  12.174  10.825   6.888  0.2079 -0.1040 -0.1418
 1178ERGO    C116369  12.095  10.996   7.220  0.2968  0.0014 -0.1748
 1178ERGO    C216370  11.905  10.976   7.463 -0.2271  0.2852 -0.0820
 1179ERGO   ROH16371  15.781  16.056   6.258 -0.1017 -0.3851 -0.0208
 1179ERGO    R116372  15.924  16.110   6.496  0.1847 -0.2397 -0.2203
 1179ERGO    R216373  15.810  16.089   6.748  0.3087  0.4662 -0.0832
 1179ERGO    R316374  16.021  15.925   6.794  0.0012  0.0964  0.0562
 1179ERGO    R416375  15.923  15.994   7.060  0.1396  0.5420  0.0015
 1179ERGO    R516376  16.127  16.016   6.988  0.1862  0.0825 -0.0351
 1179ERGO    C116377  16.187  15.784   7.285 -0.2474  0.2388  0.1818
 1179ERGO    C216378  16.297  15.603   7.606 -0.2325 -0.0306 -0.0269
 1180ERGO   ROH16379  12.022  13.749   6.593  0.2008 -0.1432  0.0263
 1180ERGO    R116380  12.028  13.499   6.727 -0.0099 -0.1456  0.0358
 1180ERGO    R216381  12.245  13.417   6.878 -0.0641 -0.3374  0.0132
 1180ERGO    R316382  12.056  13.385   7.071 -0.0716 -0.1567  0.0371
 1180ERGO    R416383  12.280  13.216   7.157 -0.2104 -0.3550  0.0193
 1180ERGO    R516384  12.072  13.154   7.133 -0.2714 -0.1700  0.0474
 1180ERGO    C116385  12.123  13.069   7.501 -0.3027 -0.1956  0.0453
 1180ERGO    C216386  12.303  13.050   7.696 -0.4447  0.2722 -0.0594
 1181ERGO   ROH16387   4.892  14.762  10.016  0.0682 -0.2455  0.0660
 1181ERGO    R116388   4.763  14.778   9.764  0.1872 -0.3536 -0.0035
 1181ERGO    R216389   4.865  14.926   9.554  0.1093 -0.1551  0.0929
 1181ERGO    R316390   4.843  14.690   9.420  0.5063 -0.1547  0.0159
 1181ERGO    R416391   4.976  14.870   9.231 -0.1546  0.2658 -0.0777
 1181ERGO    R516392   4.796  14.754   9.195  0.0672 -0.1534  0.1013
 1181ERGO    C116393   5.019  14.617   8.918  0.0643  0.5112 -0.2495
 1181ERGO    C216394   5.014  14.627   8.556  0.2720 -0.1338  0.4433
 1182ERGO   ROH16395   9.838  16.794   6.450 -0.0974 -0.1884  0.0526
 1182ERGO    R116396   9.950  16.801   6.710  0.1201 -0.0809 -0.0410
 1182ERGO    R216397  10.075  17.025   6.812 -0.1820  0.1112 -0.0803
 1182ERGO    R316398   9.897  16.992   7.015  0.0460 -0.2721  0.0677
 1182ERGO    R416399  10.136  17.103   7.143 -0.0071  0.0463 -0.0965
 1182ERGO    R516400  10.031  16.921   7.200  0.3300 -0.1540 -0.0851
 1182ERGO    C116401  10.004  17.117   7.526  0.3088 -0.3510  0.0331
 1182ERGO    C216402  10.072  17.295   7.814  0.0929  0.1947 -0.0467
 1183ERGO   ROH16403   5.411  12.103  10.009 -0.0772  0.2309  0.0102
 1183ERGO    R116404   5.261  11.967   9.811  0.0813  0.0878 -0.0129
 1183ERGO    R216405   5.120  12.099   9.613 -0.0721 -0.0416  0.0136
 1183ERGO    R316406   5.265  11.938   9.449  0.1139  0.1527 -0.0193
 1183ERGO    R416407   5.083  12.082   9.270 -0.1892 -0.1394  0.0297
 1183ERGO    R516408   5.108  11.866   9.283  0.1473 -0.1098  0.0525
 1183ERGO    C116409   5.198  11.921   8.916 -0.0828 -0.0141  0.0082
 1183ERGO    C216410   5.239  11.902   8.613 -0.0740 -0.0213  0.2022
 1184ERGO   ROH16411  14.088  10.912   6.616  0.0148  0.3047  0.0253
 1184ERGO    R116412  13.977  10.809   6.855  0.1039  0.0205 -0.0508
 1184ERGO    R216413  14.046  10.562   6.957  0.4287  0.0581 -0.1693
 1184ERGO    R316414  14.102  10.706   7.181  0.1802  0.0195 -0.0794
 1184ERGO    R416415  14.028  10.439   7.280  0.1789 -0.0376 -0.2178
 1184ERGO    R516416  13.941  10.630   7.342  0.0575 -0.0802 -0.2431
 1184ERGO    C116417  14.069  10.503   7.678 -0.1997 -0.1293 -0.1616
 1184ERGO    C216418  14.290  10.400   7.845 -0.3511 -0.1005  0.2502
 1185ERGO   ROH16419   2.177   3.849   6.277 -0.0223  0.1367  0.0983
 1185ERGO    R116420   2.078   3.782   6.534 -0.0001  0.1210  0.1024
 1185ERGO    R216421   2.180   3.572   6.682  0.0394  0.1399  0.0969
 1185ERGO    R316422   2.212   3.763   6.872  0.0156  0.1423  0.0987
 1185ERGO    R416423   2.153   3.518   7.022  0.3111  0.0628  0.1079
 1185ERGO    R516424   2.049   3.709   7.039  0.1662 -0.0167  0.2025
 1185ERGO    C116425   2.169   3.666   7.399  0.4471  0.0202  0.1159
 1185ERGO    C216426   2.159   3.341   7.629  0.0332  0.1633 -0.1002
 1186ERGO   ROH16427   7.353   2.700   6.381 -0.2236  0.1260  0.2723
 1186ERGO    R116428   7.301   2.591   6.637 -0.2428 -0.0862  0.1796
 1186ERGO    R216429   7.106   2.400   6.681 -0.0663 -0.3175 -0.0376
 1186ERGO    R316430   7.312   2.261   6.792  0.0203 -0.1735 -0.0148
 1186ERGO    R416431   7.072   2.152   6.919  0.0664 -0.3578 -0.0597
 1186ERGO    R516432   7.248   2.232   7.020 -0.0020 -0.2321 -0.0240
 1186ERGO    C116433   7.246   1.877   7.161  0.2250 -0.2461 -0.0512
 1186ERGO    C216434   7.176   1.480   7.169 -0.3263 -0.0206  0.1304
 1187ERGO   ROH16435   4.376  13.077   6.580 -0.1405  0.3229  0.0310
 1187ERGO    R116436   4.381  13.056   6.862 -0.1477  0.0605  0.0143
 1187ERGO    R216437   4.349  12.815   6.994 -0.0475 -0.0812 -0.2111
 1187ERGO    R316438   4.585  12.884   7.110 -0.0848 -0.0828 -0.1348
 1187ERGO    R416439   4.438  12.741   7.320 -0.0898 -0.2243 -0.2319
 1187ERGO    R516440   4.527  12.940   7.336 -0.1395 -0.2103 -0.1165
 1187ERGO    C116441   4.712  12.763   7.618 -0.1496 -0.3091 -0.1724
 1187ERGO    C216442   4.636  12.756   7.979  0.1499  0.1972  0.3431
 1188ERGO   ROH16443   2.896  16.340   6.090 -0.1256  0.0883 -0.1908
 1188ERGO    R116444   2.920  16.196   6.332  0.0286  0.2159 -0.1286
 1188ERGO    R216445   2.981  16.318   6.573 -0.1135  0.3877 -0.1760
 1188ERGO    R316446   2.755  16.193   6.656  0.0195  0.1688 -0.1341
 1188ERGO    R416447   2.865  16.315   6.898 -0.1115  0.3660 -0.1755
 1188ERGO    R516448   2.810  16.107   6.872  0.1136  0.2975 -0.1066
 1188ERGO    C116449   2.584  16.197   7.165  0.0145  0.1477 -0.1358
 1188ERGO    C216450   2.412  16.189   7.436  0.0284  0.1037 -0.0914
 1189ERGO   ROH16451  11.252   0.370   6.577  0.1712 -0.2433 -0.0822
 1189ERGO    R116452  11.245   0.348   6.860  0.0397 -0.0722 -0.0701
 1189ERGO    R216453  11.194   0.110   6.990 -0.1644  0.0317  0.0543
 1189ERGO    R316454  11.428   0.165   7.115 -0.1791 -0.0380  0.1121
 1189ERGO    R416455  11.309  -0.050   7.273 -0.2139 -0.0761  0.0139
 1189ERGO    R516456  11.379   0.142   7.348 -0.2085 -0.1164  0.0932
 1189ERGO    C116457  11.597  -0.092   7.556 -0.2565 -0.2040  0.0448
 1189ERGO    C216458  11.812  -0.315   7.664  0.1722  0.1452 -0.1920
 1190ERGO   ROH16459   2.366   5.149   6.355  0.1283 -0.0001  0.1005
 1190ERGO    R116460   2.226   5.353   6.491  0.0287 -0.1371  0.2033
 1190ERGO    R216461   2.127   5.319   6.748  0.3436 -0.2025  0.3155
 1190ERGO    R316462   2.270   5.545   6.797  0.1273 -0.0124  0.1139
 1190ERGO    R416463   2.061   5.544   7.002  0.3903 -0.2919  0.4085
 1190ERGO    R516464   2.107   5.706   6.864 -0.0046 -0.2227  0.3345
 1190ERGO    C116465   2.158   5.887   7.196  0.2144 -0.1656  0.2735
 1190ERGO    C216466   2.226   6.285   7.233 -0.1818  0.2302 -0.0225
 1191ERGO   ROH16467  16.354  10.411   6.644  0.1167  0.0701 -0.1184
 1191ERGO    R116468  16.505  10.533   6.851  0.0441 -0.0274 -0.0065
 1191ERGO    R216469  16.412  10.749   6.996  0.0267 -0.0446  0.0068
 1191ERGO    R316470  16.467  10.588   7.208 -0.1232 -0.1185 -0.0087
 1191ERGO    R416471  16.301  10.804   7.318  0.4446  0.2884  0.1028
 1191ERGO    R516472  16.497  10.740   7.391  0.3859 -0.1267 -0.0685
 1191ERGO    C116473  16.289  10.685   7.706  0.5473  0.4128  0.1443
 1191ERGO    C216474  16.076  10.506   7.888 -0.0086 -0.2073  0.1065
 1192ERGO   ROH16475  16.133  14.052   9.799  0.2477  0.0050  0.0485
 1192ERGO    R116476  16.173  13.883   9.575 -0.0469  0.0451 -0.0379
 1192ERGO    R216477  16.041  13.921   9.335 -0.0137  0.3762 -0.0087
 1192ERGO    R316478  16.293  13.922   9.234 -0.0173  0.0175 -0.0303
 1192ERGO    R416479  16.120  13.878   9.002 -0.1086  0.3547 -0.0287
 1192ERGO    R516480  16.289  13.754   9.063 -0.2907  0.0732 -0.0810
 1192ERGO    C116481  16.403  13.852   8.712 -0.1672  0.0056 -0.0605
 1192ERGO    C216482  16.591  14.032   8.307  0.3206  0.1368  0.3934
 1193ERGO   ROH16483  11.457  16.980   6.691  0.3103  0.0312 -0.0152
 1193ERGO    R116484  11.346  16.958   6.950  0.2465 -0.0737 -0.0508
 1193ERGO    R216485  11.502  16.918   7.175  0.2066  0.0059 -0.0075
 1193ERGO    R316486  11.371  17.138   7.265  0.0290 -0.0919 -0.0217
 1193ERGO    R416487  11.443  16.990   7.508  0.0683 -0.0626 -0.0164
 1193ERGO    R516488  11.244  17.060   7.452  0.0340 -0.1962 -0.0619
 1193ERGO    C116489  11.287  17.240   7.786 -0.1789 -0.1941 -0.0349
 1193ERGO    C216490  11.457  17.434   7.999 -0.0014 -0.1093 -0.1827
 1194ERGO   ROH16491   2.127  12.950   9.610 -0.1740  0.1305 -0.1229
 1194ERGO    R116492   2.120  12.823   9.358 -0.1393  0.1044 -0.1099
 1194ERGO    R216493   2.049  12.955   9.126  0.0011  0.1084 -0.1484
 1194ERGO    R316494   2.288  12.862   9.037 -0.0077 -0.0072 -0.0564
 1194ERGO    R416495   2.142  12.938   8.794  0.0935  0.0043 -0.1186
 1194ERGO    R516496   2.235  12.745   8.835  0.0040 -0.0274 -0.0501
 1194ERGO    C116497   2.422  12.841   8.517  0.1390 -0.1646 -0.0146
 1194ERGO    C216498   2.494  12.879   8.205 -0.0417 -0.2384  0.0737
 1195ERGO   ROH16499   0.008   9.850   6.093  0.1546  0.2472  0.1079
 1195ERGO    R116500  -0.042   9.821   6.370  0.0057  0.1621  0.0738
 1195ERGO    R216501  -0.279   9.899   6.487 -0.1390 -0.0563 -0.0591
 1195ERGO    R316502  -0.281   9.643   6.578  0.0237 -0.0745 -0.1060
 1195ERGO    R416503  -0.406   9.798   6.793  0.0659 -0.1785 -0.0128
 1195ERGO    R516504  -0.237   9.662   6.813  0.1356 -0.1042 -0.1267
 1195ERGO    C116505  -0.482   9.499   7.056  0.3379 -0.2667 -0.0298
 1195ERGO    C216506  -0.705   9.377   7.439 -0.1451  0.0327  0.2615
 1196ERGO   ROH16507   2.857  13.636   9.684  0.0393 -0.0715 -0.1044
 1196ERGO    R116508   2.967  13.535   9.443  0.0196 -0.1882 -0.0654
 1196ERGO    R216509   2.811  13.429   9.242 -0.0232 -0.0420 -0.1100
 1196ERGO    R316510   2.941  13.612   9.089  0.2088 -0.1716 -0.0777
 1196ERGO    R416511   2.787  13.451   8.898 -0.1654  0.1793 -0.0878
 1196ERGO    R516512   3.001  13.492   8.890 -0.0923 -0.1737 -0.1742
 1196ERGO    C116513   2.895  13.636   8.554 -0.0304  0.1865 -0.0445
 1196ERGO    C216514   2.908  13.858   8.334  0.0621  0.1085  0.0584
 1197ERGO   ROH16515  10.774  14.136   7.794  0.2433  0.0687  0.0693
 1197ERGO    R116516  10.653  13.975   7.993  0.2398 -0.0188 -0.0034
 1197ERGO    R216517  10.447  13.799   7.937  0.1550  0.1010 -0.0614
 1197ERGO    R316518  10.612  13.619   8.056  0.1178 -0.0478 -0.2309
 1197ERGO    R416519  10.342  13.520   8.112  0.0729  0.2379  0.1111
 1197ERGO    R516520  10.499  13.558   8.258  0.2938  0.1052 -0.0810
 1197ERGO    C116521  10.436  13.188   8.325 -0.0100  0.1781  0.0524
 1197ERGO    C216522  10.211  13.031   8.526 -0.0007 -0.0152 -0.1607
 1198ERGO   ROH16523  13.017   9.272   6.474 -0.1094 -0.0632  0.0584
 1198ERGO    R116524  12.890   9.152   6.696 -0.0826 -0.1634  0.0202
 1198ERGO    R216525  12.985   8.921   6.815  0.1286 -0.0294  0.1195
 1198ERGO    R316526  12.978   9.073   7.040 -0.1624  0.0162  0.0821
 1198ERGO    R416527  13.066   8.808   7.131  0.3333  0.1962  0.1506
 1198ERGO    R516528  12.899   8.924   7.210  0.1104 -0.0957  0.1151
 1198ERGO    C116529  13.107   8.885   7.527  0.1790  0.3702  0.1336
 1198ERGO    C216530  13.342   8.705   7.723  0.2587  0.1343 -0.0253
 1199ERGO   ROH16531   1.549   8.359   6.440 -0.1032 -0.2106 -0.0249
 1199ERGO    R116532   1.397   8.556   6.574 -0.0805 -0.1448 -0.0958
 1199ERGO    R216533   1.238   8.497   6.793  0.0184 -0.0242  0.0054
 1199ERGO    R316534   1.383   8.695   6.910  0.0301  0.0816 -0.1816
 1199ERGO    R416535   1.155   8.652   7.090  0.2044  0.0122  0.0400
 1199ERGO    R516536   1.218   8.842   7.003  0.0336  0.0243 -0.0742
 1199ERGO    C116537   1.242   8.928   7.374  0.3236  0.1328 -0.1154
 1199ERGO    C216538   1.318   9.066   7.723  0.2110  0.0033  0.0626
 1200ERGO   ROH16539  14.700   3.776   6.603 -0.3673 -0.1465  0.0047
 1200ERGO    R116540  14.652   3.916   6.844  0.0426 -0.2748  0.1707
 1200ERGO    R216541  14.402   4.013   6.912  0.3028  0.3859  0.2779
 1200ERGO    R316542  14.444   3.869   7.139 -0.1038 -0.0218  0.1078
 1200ERGO    R416543  14.282   4.098   7.225  0.3920  0.2369  0.3527
 1200ERGO    R516544  14.472   4.034   7.310  0.2197 -0.3152  0.3433
 1200ERGO    C116545  14.251   4.012   7.620  0.0622 -0.2326  0.2365
 1200ERGO    C216546  14.226   3.802   7.928 -0.1216 -0.2073  0.1962
 1201ERGO   ROH16547   7.138   3.991  10.454 -0.4256  0.0506  0.0553
 1201ERGO    R116548   7.241   4.025  10.193 -0.3725  0.0355  0.0741
 1201ERGO    R216549   7.313   3.812  10.032 -0.2212  0.0284  0.1471
 1201ERGO    R316550   7.144   3.930   9.855 -0.2353 -0.1016  0.0724
 1201ERGO    R416551   7.339   3.790   9.688  0.0178  0.1468  0.1558
 1201ERGO    R516552   7.285   4.000   9.675 -0.1946  0.0946  0.1794
 1201ERGO    C116553   7.196   3.888   9.322  0.1438  0.0937  0.0906
 1201ERGO    C216554   7.278   3.886   8.945 -0.0168 -0.1737  0.1203
 1202ERGO   ROH16555  10.712   8.408   7.159 -0.2070  0.1973  0.1184
 1202ERGO    R116556  10.731   8.328   7.430 -0.0264  0.2187  0.1127
 1202ERGO    R216557  10.749   8.063   7.506 -0.1962  0.2130  0.1305
 1202ERGO    R316558  10.972   8.149   7.636  0.0068  0.0295 -0.0862
 1202ERGO    R416559  10.922   7.881   7.744 -0.2088  0.1287  0.0759
 1202ERGO    R516560  10.947   8.065   7.858  0.0868  0.1588 -0.0256
 1202ERGO    C116561  11.231   7.856   8.004 -0.0258 -0.0927 -0.1593
 1202ERGO    C216562  11.551   7.672   8.017 -0.2474 -0.0417  0.0020
 1203ERGO   ROH16563  12.842  11.468   6.555 -0.0116  0.1256 -0.0728
 1203ERGO    R116564  12.949  11.520   6.812 -0.0853  0.0714 -0.0302
 1203ERGO    R216565  13.169  11.386   6.912 -0.0125  0.1631 -0.0608
 1203ERGO    R316566  13.266  11.638   6.948 -0.1806  0.2107  0.0733
 1203ERGO    R416567  13.456  11.464   7.088  0.1335  0.2268 -0.3214
 1203ERGO    R516568  13.352  11.637   7.171  0.0836  0.0592 -0.0265
 1203ERGO    C116569  13.714  11.745   7.224  0.0607  0.3086 -0.3472
 1203ERGO    C216570  13.960  11.861   7.426  0.2996 -0.2763  0.0947
 1204ERGO   ROH16571   1.395  11.975   6.891  0.0811  0.1707  0.0560
 1204ERGO    R116572   1.470  12.161   7.091  0.2053  0.1380  0.0433
 1204ERGO    R216573   1.338  12.178   7.334  0.0234  0.4363 -0.0633
 1204ERGO    R316574   1.589  12.145   7.435 -0.1015  0.0787  0.1488
 1204ERGO    R416575   1.467  12.350   7.605  0.1018  0.3745 -0.0633
 1204ERGO    R516576   1.657  12.365   7.500  0.2136  0.0040  0.0748
 1204ERGO    C116577   1.777  12.418   7.858  0.0303  0.0029  0.1358
 1204ERGO    C216578   2.126  12.561   8.047  0.2432 -0.3900 -0.2801
 1205ERGO   ROH16579   3.420  17.740   6.438  0.0140 -0.1117 -0.1112
 1205ERGO    R116580   3.260  17.855   6.642  0.0511 -0.0561 -0.1127
 1205ERGO    R216581   2.988  17.897   6.612  0.0632  0.0359 -0.1146
 1205ERGO    R316582   2.974  17.753   6.842  0.0156  0.0407 -0.1150
 1205ERGO    R416583   2.710  17.876   6.815 -0.0732 -0.1963 -0.3206
 1205ERGO    R516584   2.841  17.887   6.989 -0.2144 -0.0671 -0.2229
 1205ERGO    C116585   2.534  17.728   7.150 -0.1973 -0.3269 -0.4409
 1205ERGO    C216586   2.356  17.792   7.330 -0.4499  0.1115 -0.1619
 1206ERGO   ROH16587   4.543  15.453  10.191 -0.2433  0.1232  0.0076
 1206ERGO    R116588   4.679  15.541   9.959 -0.1456  0.1181  0.0600
 1206ERGO    R216589   4.780  15.366   9.771  0.0209  0.1063  0.1414
 1206ERGO    R316590   4.632  15.516   9.599  0.0542  0.0181  0.0442
 1206ERGO    R416591   4.859  15.421   9.439  0.1570  0.0945  0.1714
 1206ERGO    R516592   4.794  15.628   9.463  0.0665  0.0605  0.1067
 1206ERGO    C116593   4.765  15.594   9.084  0.2676  0.0048  0.0976
 1206ERGO    C216594   4.872  15.511   8.803  0.1244  0.1399 -0.1495
 1207ERGO   ROH16595  18.040  17.903   6.312  0.0481 -0.0554  0.1081
 1207ERGO    R116596  18.209  17.925   6.538 -0.0281  0.0523  0.1564
 1207ERGO    R216597  18.135  17.834   6.789 -0.0361 -0.0067  0.1358
 1207ERGO    R316598  18.369  17.696   6.771  0.0618  0.1518  0.1921
 1207ERGO    R416599  18.305  17.697   7.057 -0.1082 -0.0544  0.1563
 1207ERGO    R516600  18.492  17.762   6.966 -0.0946  0.1172  0.3033
 1207ERGO    C116601  18.624  17.489   7.197 -0.0583  0.0666  0.2212
 1207ERGO    C216602  18.837  17.227   7.259 -0.1622 -0.0227 -0.4412
 1208ERGO   ROH16603   0.078  12.389   6.176  0.2183  0.1646 -0.0225
 1208ERGO    R116604   0.029  12.323   6.447  0.1627  0.0616 -0.0582
 1208ERGO    R216605   0.232  12.299   6.633  0.1042  0.1986  0.0177
 1208ERGO    R316606   0.082  12.479   6.772 -0.1115  0.0358  0.0024
 1208ERGO    R416607   0.252  12.352   6.975  0.2116  0.4000 -0.0172
 1208ERGO    R516608   0.034  12.369   6.979  0.1754  0.0566  0.0877
 1208ERGO    C116609   0.122  12.551   7.303  0.0717  0.3644 -0.0518
 1208ERGO    C216610   0.265  12.649   7.558 -0.1092 -0.1432 -0.1744
 1209ERGO   ROH16611  16.712   2.211   6.243  0.1740 -0.1579 -0.0906
 1209ERGO    R116612  16.944   2.182   6.403  0.0513 -0.1465  0.0944
 1209ERGO    R216613  17.044   2.387   6.559  0.1138 -0.0250 -0.0962
 1209ERGO    R316614  17.026   2.202   6.757 -0.1637  0.2305  0.1280
 1209ERGO    R416615  17.233   2.388   6.848  0.1629 -0.0043 -0.1284
 1209ERGO    R516616  17.252   2.171   6.831 -0.1998 -0.0613  0.1219
 1209ERGO    C116617  17.327   2.214   7.202 -0.0689  0.2477  0.0633
 1209ERGO    C216618  17.375   1.955   7.575 -0.2569 -0.0921  0.0270
 1210ERGO   ROH16619  17.852  15.452   9.546  0.1167 -0.0553 -0.0074
 1210ERGO    R116620  17.833  15.572   9.290  0.0964 -0.1043 -0.0295
 1210ERGO    R216621  17.763  15.429   9.064  0.0881 -0.1508 -0.0003
 1210ERGO    R316622  17.573  15.623   9.041  0.0789 -0.1633 -0.0226
 1210ERGO    R416623  17.660  15.570   8.766  0.2142 -0.0548  0.0011
 1210ERGO    R516624  17.653  15.764   8.865  0.1462 -0.0921  0.0664
 1210ERGO    C116625  17.421  15.834   8.570  0.2788 -0.0106 -0.0191
 1210ERGO    C216626  17.193  15.967   8.256  0.2052 -0.1793 -0.1422
 1211ERGO   ROH16627   0.406   9.814   9.968  0.0195 -0.0204 -0.1001
 1211ERGO    R116628   0.380   9.936   9.714  0.2400  0.1366 -0.0509
 1211ERGO    R216629   0.581   9.929   9.524  0.2223 -0.1772 -0.0640
 1211ERGO    R316630   0.384   9.827   9.367  0.0082  0.2636 -0.0954
 1211ERGO    R416631   0.579   9.941   9.179  0.4249 -0.3544 -0.0730
 1211ERGO    R516632   0.365   9.984   9.187  0.5203  0.2323 -0.1935
 1211ERGO    C116633   0.392   9.853   8.830  0.3418 -0.0438 -0.1077
 1211ERGO    C216634   0.354   9.848   8.468  0.3062  0.1038  0.1022
 1212ERGO   ROH16635   1.760   2.876   6.218 -0.0284  0.1115  0.1798
 1212ERGO    R116636   1.588   2.810   6.433 -0.0550  0.0084  0.1279
 1212ERGO    R216637   1.643   2.606   6.611 -0.0304 -0.0172  0.0932
 1212ERGO    R316638   1.610   2.802   6.796 -0.1297 -0.0690  0.1305
 1212ERGO    R416639   1.416   2.596   6.871 -0.0213 -0.1805  0.0954
 1212ERGO    R516640   1.374   2.806   6.836 -0.1305 -0.1970  0.1359
 1212ERGO    C116641   1.252   2.774   7.197 -0.1093 -0.3242  0.1317
 1212ERGO    C216642   0.974   2.747   7.417 -0.0105 -0.0575 -0.3240
 1213ERGO   ROH16643   6.498  11.788   6.810  0.2288  0.0474 -0.0557
 1213ERGO    R116644   6.608  11.691   7.052  0.2505  0.1834 -0.0089
 1213ERGO    R216645   6.734  11.854   7.234 -0.0990  0.3625  0.0882
 1213ERGO    R316646   6.555  11.746   7.408 -0.0352  0.0582 -0.0303
 1213ERGO    R416647   6.758  11.871   7.579 -0.2662  0.2369  0.1066
 1213ERGO    R516648   6.689  11.665   7.589 -0.0094  0.1465 -0.0138
 1213ERGO    C116649   6.603  11.780   7.942 -0.3038 -0.1219  0.0061
 1213ERGO    C216650   6.621  12.071   8.195  0.0402 -0.1513  0.1120
 1214ERGO   ROH16651   0.578   6.145   6.333  0.0582 -0.2651  0.3082
 1214ERGO    R116652   0.767   6.235   6.523  0.1002 -0.0425  0.1646
 1214ERGO    R216653   0.831   6.502   6.555 -0.1284  0.0263  0.0575
 1214ERGO    R316654   0.766   6.453   6.814  0.0861  0.0260  0.1138
 1214ERGO    R416655   0.940   6.687   6.826 -0.0553  0.1435 -0.0509
 1214ERGO    R516656   0.965   6.502   6.937  0.1438  0.1763 -0.0351
 1214ERGO    C116657   0.943   6.749   7.227  0.1886  0.2114 -0.0611
 1214ERGO    C216658   0.910   6.949   7.354  0.0292  0.0543 -0.1274
 1215ERGO   ROH16659  13.217   7.388   6.379  0.0158 -0.4067  0.2250
 1215ERGO    R116660  13.176   7.522   6.625  0.0331 -0.2475  0.1431
 1215ERGO    R216661  13.251   7.414   6.868 -0.0257 -0.1286  0.2166
 1215ERGO    R316662  13.384   7.650   6.895  0.0468 -0.1545  0.0889
 1215ERGO    R416663  13.368   7.541   7.167 -0.1490  0.0809  0.1772
 1215ERGO    R516664  13.304   7.739   7.102 -0.0390  0.0525 -0.0299
 1215ERGO    C116665  13.561   7.837   7.367 -0.1527  0.1786  0.0344
 1215ERGO    C216666  13.917   7.866   7.507 -0.2336  0.0469 -0.3327
 1216ERGO   ROH16667   4.490   4.209   6.353  0.1085 -0.2863 -0.0106
 1216ERGO    R116668   4.433   4.068   6.591 -0.0701 -0.1772  0.0135
 1216ERGO    R216669   4.558   4.123   6.831 -0.0746 -0.2254  0.0283
 1216ERGO    R316670   4.303   4.148   6.921 -0.0765  0.0216 -0.0363
 1216ERGO    R416671   4.466   4.126   7.164 -0.1667 -0.2199  0.0031
 1216ERGO    R516672   4.294   4.003   7.113 -0.2847 -0.0224 -0.0784
 1216ERGO    C116673   4.173   4.151   7.443 -0.2221  0.0151 -0.0723
 1216ERGO    C216674   4.126   4.111   7.815 -0.1206  0.0783  0.1133
 1217ERGO   ROH16675   4.953   9.121   6.590  0.0922 -0.2159 -0.2824
 1217ERGO    R116676   4.809   8.999   6.801  0.1081 -0.0022 -0.1459
 1217ERGO    R216677   4.775   8.726   6.820 -0.1936  0.0397 -0.0610
 1217ERGO    R316678   4.881   8.762   7.068  0.0345 -0.0253 -0.1454
 1217ERGO    R416679   4.743   8.503   7.083 -0.1512  0.0721 -0.0280
 1217ERGO    R516680   4.715   8.673   7.217  0.0821  0.1034 -0.0091
 1217ERGO    C116681   4.823   8.408   7.468  0.0877  0.0299 -0.0880
 1217ERGO    C216682   4.968   8.329   7.800 -0.3360 -0.1692 -0.3169
 1218ERGO   ROH16683  16.936  12.182   6.080 -0.1917  0.1847  0.1391
 1218ERGO    R116684  16.861  12.148   6.350 -0.0196  0.1678  0.1851
 1218ERGO    R216685  16.671  11.963   6.430  0.0120  0.1888  0.2878
 1218ERGO    R316686  16.870  11.880   6.595  0.1044  0.1441  0.1579
 1218ERGO    R416687  16.622  11.823   6.742  0.1719  0.2020  0.3206
 1218ERGO    R516688  16.793  11.937   6.815  0.2526  0.1678  0.2110
 1218ERGO    C116689  16.780  11.663   7.079  0.3520  0.1677  0.2177
 1218ERGO    C216690  16.896  11.415   7.312 -0.0515  0.0904 -0.0956
 1219ERGO   ROH16691   1.465   0.956   9.813  0.0234  0.2216 -0.0571
 1219ERGO    R116692   1.386   0.951   9.542  0.1188 -0.1205 -0.0822
 1219ERGO    R216693   1.415   1.168   9.374 -0.3273 -0.1415 -0.1947
 1219ERGO    R316694   1.548   0.989   9.218  0.1411  0.0642 -0.0511
 1219ERGO    R416695   1.462   1.199   9.033 -0.3267 -0.2417 -0.2046
 1219ERGO    R516696   1.424   0.985   9.013  0.1843 -0.3589 -0.0801
 1219ERGO    C116697   1.614   1.048   8.688  0.1134 -0.1070 -0.0754
 1219ERGO    C216698   1.667   1.105   8.264  0.0115  0.1888 -0.1799
 1220ERGO   ROH16699  14.386  12.933   6.279 -0.0954 -0.0268 -0.0072
 1220ERGO    R116700  14.549  13.015   6.495 -0.1011  0.0789 -0.0434
 1220ERGO    R216701  14.458  13.184   6.693 -0.1963 -0.0536  0.0239
 1220ERGO    R316702  14.544  12.985   6.857  0.0505 -0.0106 -0.0474
 1220ERGO    R416703  14.550  13.227   7.024 -0.0754 -0.0265 -0.0122
 1220ERGO    R516704  14.715  13.087   6.991  0.0299  0.1152 -0.1128
 1220ERGO    C116705  14.684  13.064   7.371  0.2266  0.0298 -0.1001
 1220ERGO    C216706  14.753  13.171   7.753 -0.0020  0.3566 -0.0119
 1221ERGO   ROH16707  15.682  14.937   6.552 -0.0638  0.0632  0.1137
 1221ERGO    R116708  15.584  14.937   6.817 -0.0325  0.0149  0.1258
 1221ERGO    R216709  15.516  15.170   6.951 -0.0881 -0.0134  0.1507
 1221ERGO    R316710  15.279  15.042   6.985 -0.0445 -0.0892  0.1680
 1221ERGO    R416711  15.307  15.211   7.223 -0.0989 -0.0596  0.1492
 1221ERGO    R516712  15.269  14.996   7.220 -0.0269 -0.0704  0.1707
 1221ERGO    C116713  14.962  15.114   7.414 -0.0643 -0.1577  0.1645
 1221ERGO    C216714  14.686  15.368   7.457 -0.4267  0.2150 -0.1232
 1222ERGO   ROH16715   6.939  17.503   6.097  0.3729  0.1586 -0.0482
 1222ERGO    R116716   7.033  17.508   6.364 -0.0189  0.2541  0.0948
 1222ERGO    R216717   6.866  17.549   6.580 -0.4566 -0.3296 -0.1105
 1222ERGO    R316718   6.977  17.317   6.668  0.0545 -0.0994 -0.1074
 1222ERGO    R416719   6.848  17.433   6.905 -0.3192 -0.4253 -0.1354
 1222ERGO    R516720   7.056  17.369   6.888 -0.1492  0.0566 -0.0660
 1222ERGO    C116721   6.940  17.148   7.177  0.2407 -0.2647 -0.1470
 1222ERGO    C216722   6.887  17.028   7.447 -0.0697 -0.1040  0.0152
 1223ERGO   ROH16723   0.157   7.434  10.014 -0.1243 -0.3173  0.0001
 1223ERGO    R116724   0.024   7.445   9.764 -0.0203 -0.2179 -0.0510
 1223ERGO    R216725   0.053   7.657   9.589 -0.1231 -0.0403  0.1457
 1223ERGO    R316726   0.121   7.462   9.413  0.1266  0.1681  0.0021
 1223ERGO    R416727  -0.044   7.648   9.258 -0.2248  0.0129  0.1733
 1223ERGO    R516728  -0.075   7.433   9.278  0.1187 -0.0556  0.0546
 1223ERGO    C116729  -0.037   7.459   8.899 -0.0496  0.2397  0.0546
 1223ERGO    C216730  -0.141   7.410   8.606  0.1750 -0.1948  0.0044
 1224ERGO   ROH16731   4.576   1.503   9.727  0.2127  0.0755  0.0969
 1224ERGO    R116732   4.678   1.446   9.469  0.0775  0.0738  0.0424
 1224ERGO    R216733   4.530   1.316   9.276  0.0151 -0.0370  0.1599
 1224ERGO    R316734   4.594   1.533   9.126 -0.1839 -0.0331  0.0776
 1224ERGO    R416735   4.573   1.313   8.933  0.0655 -0.1331  0.1670
 1224ERGO    R516736   4.743   1.448   8.959 -0.0746  0.0489  0.1344
 1224ERGO    C116737   4.659   1.515   8.593 -0.0919 -0.1854  0.0939
 1224ERGO    C216738   4.659   1.658   8.356  0.0961  0.0886 -0.1664
 1225ERGO   ROH16739   0.795  15.999   9.666  0.0238  0.1604  0.0058
 1225ERGO    R116740   0.841  16.095   9.404  0.1254  0.0486 -0.0168
 1225ERGO    R216741   1.038  15.991   9.240 -0.0604 -0.2805 -0.0324
 1225ERGO    R316742   0.832  15.958   9.067 -0.1434  0.0080  0.0037
 1225ERGO    R416743   1.057  16.043   8.899  0.0016 -0.4366 -0.0549
 1225ERGO    R516744   0.859  16.135   8.907  0.1491 -0.0883 -0.0653
 1225ERGO    C116745   0.873  16.043   8.537 -0.0401 -0.2566 -0.0339
 1225ERGO    C216746   1.083  16.110   8.218  0.2260 -0.0839 -0.0596
 1226ERGO   ROH16747  12.110  12.511  10.551  0.0633 -0.0247 -0.1043
 1226ERGO    R116748  12.266  12.465  10.320  0.1061  0.0397 -0.0877
 1226ERGO    R216749  12.246  12.234  10.169  0.1482  0.0748 -0.1426
 1226ERGO    R316750  12.203  12.409   9.966  0.1726  0.1167 -0.1127
 1226ERGO    R416751  12.316  12.171   9.837 -0.0769  0.0292 -0.1841
 1226ERGO    R516752  12.389  12.375   9.819  0.0722 -0.0228 -0.2141
 1226ERGO    C116753  12.318  12.299   9.452 -0.1850  0.0421 -0.1803
 1226ERGO    C216754  12.318  12.252   9.089 -0.0709 -0.0934 -0.2099
 1227ERGO   ROH16755   6.505   3.862   6.740 -0.1160 -0.2915  0.0606
 1227ERGO    R116756   6.586   3.726   6.975 -0.0204 -0.1636  0.1038
 1227ERGO    R216757   6.517   3.813   7.228  0.0209 -0.0650  0.0859
 1227ERGO    R316758   6.421   3.561   7.254  0.0916 -0.0779  0.2209
 1227ERGO    R416759   6.419   3.668   7.526  0.1983  0.0112  0.1816
 1227ERGO    R516760   6.512   3.483   7.461  0.2076  0.0130  0.2017
 1227ERGO    C116761   6.273   3.346   7.724  0.3681  0.0435  0.3640
 1227ERGO    C216762   6.311   3.364   8.083 -0.0082 -0.0907 -0.3025
 1228ERGO   ROH16763   0.313   5.983   9.714 -0.0725 -0.0347 -0.0076
 1228ERGO    R116764   0.406   5.980   9.446  0.0517 -0.0156  0.0341
 1228ERGO    R216765   0.259   5.871   9.239  0.1496 -0.0083 -0.0433
 1228ERGO    R316766   0.297   6.116   9.127  0.1938  0.0006 -0.0075
 1228ERGO    R416767   0.225   5.943   8.902 -0.0804  0.1015  0.0014
 1228ERGO    R516768   0.401   6.071   8.917  0.0005  0.0005 -0.1039
 1228ERGO    C116769   0.241   6.214   8.601 -0.1729  0.1737  0.0610
 1228ERGO    C216770   0.252   6.250   8.186  0.0207  0.1177  0.3513
 1229ERGO   ROH16771  10.951   4.666   6.832  0.0744 -0.0396 -0.1693
 1229ERGO    R116772  11.087   4.884   6.951  0.0015 -0.0091 -0.1403
 1229ERGO    R216773  11.124   4.906   7.223 -0.0350 -0.0150 -0.1334
 1229ERGO    R316774  11.385   4.931   7.154 -0.0346  0.0595 -0.1035
 1229ERGO    R416775  11.370   5.037   7.427 -0.0351 -0.2400  0.0149
 1229ERGO    R516776  11.453   5.139   7.253 -0.0329 -0.0484  0.1261
 1229ERGO    C116777  11.759   5.138   7.480 -0.0349 -0.3011  0.1292
 1229ERGO    C216778  11.924   5.080   7.707 -0.1685  0.0139 -0.0502
 1230ERGO   ROH16779   0.364   3.080   9.332  0.2042  0.0412 -0.0758
 1230ERGO    R116780   0.350   2.927   9.095  0.1492  0.0460 -0.0753
 1230ERGO    R216781   0.136   2.942   8.920  0.0577 -0.0310  0.0306
 1230ERGO    R316782   0.330   2.993   8.737 -0.0519  0.0537 -0.0647
 1230ERGO    R416783   0.092   2.933   8.577 -0.1080 -0.0418  0.0511
 1230ERGO    R516784   0.287   2.837   8.560 -0.0756  0.0386 -0.0468
 1230ERGO    C116785   0.248   2.975   8.206 -0.3073  0.0314 -0.0261
 1230ERGO    C216786   0.101   3.110   7.963 -0.1406  0.0282  0.1209
 1231ERGO   ROH16787   4.457  12.315   9.937  0.1029  0.0291 -0.0405
 1231ERGO    R116788   4.330  12.313   9.684  0.1304  0.1834 -0.0578
 1231ERGO    R216789   4.403  12.483   9.479  0.4105  0.0540 -0.0783
 1231ERGO    R316790   4.427  12.251   9.339  0.0905 -0.0079 -0.0338
 1231ERGO    R416791   4.397  12.458   9.134  0.1936 -0.0402 -0.0677
 1231ERGO    R516792   4.278  12.277   9.154  0.0182  0.0933  0.0442
 1231ERGO    C116793   4.415  12.226   8.803 -0.2331 -0.1533 -0.0199
 1231ERGO    C216794   4.376  12.174   8.492  0.1084  0.2618 -0.0514
 1232ERGO   ROH16795   2.962   0.117   6.351  0.1057 -0.1901  0.0169
 1232ERGO    R116796   2.977   0.194   6.623 -0.0197 -0.0445 -0.0163
 1232ERGO    R216797   2.806   0.094   6.815  0.0302 -0.1056 -0.0062
 1232ERGO    R316798   3.037   0.029   6.942  0.0636  0.1634  0.0784
 1232ERGO    R416799   2.854   0.107   7.157 -0.1626 -0.1794  0.0251
 1232ERGO    R516800   3.053   0.187   7.121 -0.2489  0.1176  0.1560
 1232ERGO    C116801   3.099   0.054   7.475 -0.2436  0.0301  0.1227
 1232ERGO    C216802   3.007  -0.071   7.797 -0.0765 -0.0836 -0.0127
 1233ERGO   ROH16803   2.997  17.142   9.616 -0.3292 -0.0879  0.0696
 1233ERGO    R116804   3.119  17.126   9.361 -0.2454 -0.2262  0.1182
 1233ERGO    R216805   3.022  16.965   9.159 -0.3776 -0.0824  0.0666
 1233ERGO    R316806   3.024  17.197   9.017 -0.0150 -0.0688  0.0847
 1233ERGO    R416807   3.075  16.987   8.818 -0.4578 -0.1515  0.0486
 1233ERGO    R516808   3.197  17.165   8.854 -0.1245 -0.3651  0.0207
 1233ERGO    C116809   3.108  17.218   8.486 -0.1642 -0.1790  0.0550
 1233ERGO    C216810   3.248  17.173   8.158 -0.0203 -0.0012 -0.2595
 1234ERGO   ROH16811   5.513   9.820   6.550  0.1113 -0.0358  0.0526
 1234ERGO    R116812   5.429  10.016   6.736  0.0548 -0.0207  0.0124
 1234ERGO    R216813   5.199   9.989   6.887  0.0604 -0.0554  0.0205
 1234ERGO    R316814   5.369  10.033   7.095  0.0510  0.0347  0.0084
 1234ERGO    R416815   5.112  10.142   7.185  0.0171 -0.0549  0.0069
 1234ERGO    R516816   5.303  10.247   7.181 -0.0259  0.0172 -0.0126
 1234ERGO    C116817   5.221  10.272   7.553 -0.0171  0.0299 -0.0125
 1234ERGO    C216818   5.246  10.156   7.870 -0.0746  0.0126  0.2536
 1235ERGO   ROH16819   2.089  17.077   9.564  0.0626  0.0853 -0.0172
 1235ERGO    R116820   2.127  17.008   9.292 -0.0377  0.0578 -0.0244
 1235ERGO    R216821   1.920  16.922   9.130 -0.0728 -0.0993  0.1000
 1235ERGO    R316822   2.005  17.125   8.970 -0.2794 -0.0756  0.0163
 1235ERGO    R416823   1.924  16.914   8.784 -0.1938 -0.1799  0.0996
 1235ERGO    R516824   2.117  17.015   8.789 -0.2660 -0.0380  0.0028
 1235ERGO    C116825   2.007  17.099   8.433 -0.4582 -0.2045  0.0207
 1235ERGO    C216826   2.149  17.119   8.176 -0.1837  0.3219 -0.1496
 1236ERGO   ROH16827  17.478   7.165   9.826 -0.3611 -0.2217  0.2059
 1236ERGO    R116828  17.542   7.093   9.560 -0.1612 -0.0969  0.2168
 1236ERGO    R216829  17.397   6.906   9.417  0.0552 -0.1687  0.0799
 1236ERGO    R316830  17.377   7.107   9.235  0.0021 -0.1275  0.1321
 1236ERGO    R416831  17.356   6.861   9.077 -0.2653 -0.0891  0.1057
 1236ERGO    R516832  17.495   7.025   9.044 -0.2076 -0.1570  0.0138
 1236ERGO    C116833  17.314   7.023   8.708 -0.5018 -0.0041  0.1697
 1236ERGO    C216834  17.244   6.979   8.322 -0.0456  0.1568 -0.3275
 1237ERGO   ROH16835  11.324  16.771  10.063  0.2591 -0.0999  0.1431
 1237ERGO    R116836  11.334  16.651   9.807  0.1624 -0.0308  0.1057
 1237ERGO    R216837  11.161  16.722   9.604  0.0166 -0.0447  0.2155
 1237ERGO    R316838  11.391  16.763   9.465 -0.0733  0.0838  0.1031
 1237ERGO    R416839  11.215  16.620   9.278  0.1005 -0.4735  0.3592
 1237ERGO    R516840  11.418  16.563   9.335  0.1984 -0.0815  0.4083
 1237ERGO    C116841  11.463  16.598   8.958  0.0648 -0.6025  0.3374
 1237ERGO    C216842  11.396  16.706   8.636 -0.0653 -0.1647 -0.2437
 1238ERGO   ROH16843  12.372   0.844   6.193  0.2995  0.0168 -0.1102
 1238ERGO    R116844  12.323   0.781   6.465 -0.0888  0.2334 -0.1226
 1238ERGO    R216845  12.510   0.655   6.625 -0.5345 -0.2095  0.0763
 1238ERGO    R316846  12.468   0.869   6.786 -0.1109 -0.0301 -0.0385
 1238ERGO    R416847  12.597   0.672   6.959 -0.7323 -0.3149  0.1342
 1238ERGO    R516848  12.410   0.774   6.998 -0.5138  0.1860 -0.0420
 1238ERGO    C116849  12.609   0.883   7.305 -0.4498 -0.2078  0.0603
 1238ERGO    C216850  12.567   0.925   7.627 -0.0404  0.1595  0.0116
 1239ERGO   ROH16851  16.884  16.275   6.369  0.0481 -0.1004 -0.0430
 1239ERGO    R116852  17.120  16.183   6.497 -0.0292 -0.2364  0.0072
 1239ERGO    R216853  17.189  16.259   6.754  0.0213 -0.1815 -0.0158
 1239ERGO    R316854  17.201  15.991   6.795 -0.2030 -0.1757  0.0932
 1239ERGO    R416855  17.319  16.109   7.036 -0.1264 -0.1857  0.0497
 1239ERGO    R516856  17.410  15.957   6.908 -0.2434 -0.3088  0.1204
 1239ERGO    C116857  17.406  15.769   7.239 -0.4232 -0.1823  0.1902
 1239ERGO    C216858  17.619  15.827   7.586  0.2997  0.0782 -0.1189
 1240ERGO   ROH16859   2.161  16.834   6.355  0.0771 -0.0949 -0.0629
 1240ERGO    R116860   2.313  17.025   6.499  0.0683 -0.0930 -0.0574
 1240ERGO    R216861   2.200  17.193   6.687  0.0502 -0.0610 -0.1014
 1240ERGO    R316862   2.393  17.089   6.848  0.0102 -0.0566 -0.0497
 1240ERGO    R416863   2.293  17.324   6.993  0.0378  0.0115 -0.1278
 1240ERGO    R516864   2.501  17.281   6.943  0.0384 -0.0472 -0.0930
 1240ERGO    C116865   2.528  17.302   7.323 -0.0068  0.0579 -0.0947
 1240ERGO    C216866   2.556  17.059   7.748 -0.2023 -0.1216 -0.4590
 1241ERGO   ROH16867  16.781  17.774   9.712 -0.0090  0.2895 -0.1683
 1241ERGO    R116868  16.606  17.835   9.498 -0.0186  0.1705 -0.1944
 1241ERGO    R216869  16.674  18.010   9.295 -0.0344  0.0680 -0.2841
 1241ERGO    R316870  16.609  17.800   9.135 -0.0313 -0.0151 -0.1789
 1241ERGO    R416871  16.709  18.005   8.951 -0.1184 -0.0610 -0.2919
 1241ERGO    R516872  16.518  17.901   8.938 -0.1048 -0.1105 -0.1994
 1241ERGO    C116873  16.668  17.805   8.601 -0.1645 -0.2141 -0.1978
 1241ERGO    C216874  16.730  17.744   8.299  0.3886  0.1427  0.2391
 1242ERGO   ROH16875   2.260   4.243   9.992  0.1094  0.1115 -0.0766
 1242ERGO    R116876   2.262   4.386   9.748  0.1353  0.0402 -0.1189
 1242ERGO    R216877   2.461   4.357   9.560  0.1425 -0.0338 -0.1011
 1242ERGO    R316878   2.252   4.305   9.394  0.1458 -0.0630 -0.0957
 1242ERGO    R416879   2.486   4.317   9.217  0.1478 -0.0903 -0.0940
 1242ERGO    R516880   2.301   4.430   9.195  0.1475 -0.0957 -0.1156
 1242ERGO    C116881   2.305   4.245   8.862  0.1539 -0.1507 -0.0848
 1242ERGO    C216882   2.378   4.263   8.520  0.0164  0.0682  0.0712
 1243ERGO   ROH16883   9.270  11.009   6.914 -0.0602 -0.0709 -0.1597
 1243ERGO    R116884   9.410  10.765   6.947 -0.1285 -0.1353 -0.3326
 1243ERGO    R216885   9.535  10.695   7.183  0.2574 -0.1283 -0.5208
 1243ERGO    R316886   9.383  10.471   7.160  0.0859 -0.0515 -0.1901
 1243ERGO    R416887   9.606  10.391   7.333  0.1678 -0.0486 -0.3141
 1243ERGO    R516888   9.541  10.292   7.150 -0.0523 -0.1694 -0.1662
 1243ERGO    C116889   9.503  10.005   7.398 -0.0453  0.0699  0.1167
 1243ERGO    C216890   9.489   9.819   7.522 -0.1915  0.0877  0.2617
 1244ERGO   ROH16891   3.397  14.147   6.827 -0.2000 -0.1712 -0.0853
 1244ERGO    R116892   3.295  14.154   7.091 -0.1130  0.0023 -0.0553
 1244ERGO    R216893   3.365  14.350   7.273 -0.1118  0.1633 -0.2314
 1244ERGO    R316894   3.096  14.383   7.291 -0.1148  0.0965 -0.1629
 1244ERGO    R416895   3.202  14.503   7.536 -0.0969 -0.0786 -0.0784
 1244ERGO    R516896   3.047  14.350   7.523 -0.0702 -0.1005 -0.1778
 1244ERGO    C116897   2.854  14.622   7.707 -0.0911 -0.2821  0.0750
 1244ERGO    C216898   2.744  14.924   7.791 -0.2468 -0.1881  0.0321
 1245ERGO   ROH16899   0.986   3.552   6.217 -0.0360 -0.0528 -0.1580
 1245ERGO    R116900   0.882   3.616   6.472  0.0153  0.0786 -0.1690
 1245ERGO    R216901   0.612   3.650   6.518  0.0282  0.1344 -0.1393
 1245ERGO    R316902   0.653   3.462   6.710  0.0355  0.2174 -0.0581
 1245ERGO    R416903   0.459   3.647   6.828 -0.2180  0.0869 -0.2581
 1245ERGO    R516904   0.649   3.584   6.916 -0.2316  0.2685 -0.0901
 1245ERGO    C116905   0.410   3.468   7.189 -0.3545  0.1371 -0.2510
 1245ERGO    C216906   0.148   3.488   7.517 -0.0639 -0.2548 -0.0453
 1246ERGO   ROH16907   0.146  13.352   6.473  0.1036 -0.1451 -0.1415
 1246ERGO    R116908  -0.110  13.380   6.591  0.1010 -0.1147 -0.1525
 1246ERGO    R216909  -0.192  13.226   6.805  0.0981 -0.0579 -0.1091
 1246ERGO    R316910  -0.242  13.468   6.919  0.0976 -0.0259 -0.1784
 1246ERGO    R416911  -0.427  13.284   7.052  0.0330  0.0351 -0.1929
 1246ERGO    R516912  -0.479  13.471   6.952  0.0901  0.0177 -0.2492
 1246ERGO    C116913  -0.611  13.544   7.302 -0.0053  0.1192 -0.3067
 1246ERGO    C216914  -0.652  13.397   7.585 -0.1503  0.4874  0.0083
 1247ERGO   ROH16915   7.949   0.423   6.590 -0.3423 -0.3051  0.0194
 1247ERGO    R116916   7.862   0.332   6.844 -0.0949 -0.2002  0.1453
 1247ERGO    R216917   8.035   0.296   7.056  0.1166 -0.1217 -0.0084
 1247ERGO    R316918   7.861   0.461   7.185  0.2503 -0.0626  0.0980
 1247ERGO    R416919   7.991   0.307   7.399 -0.0415 -0.4799 -0.0125
 1247ERGO    R516920   7.776   0.328   7.365 -0.0027 -0.1806 -0.1017
 1247ERGO    C116921   7.802   0.469   7.719 -0.0080 -0.6330  0.0850
 1247ERGO    C216922   7.677   0.361   8.065  0.2528 -0.0680 -0.1005
 1248ERGO   ROH16923   5.064  16.738   6.229  0.2062  0.2810  0.0444
 1248ERGO    R116924   5.079  16.679   6.505  0.1050  0.3565  0.0666
 1248ERGO    R216925   4.961  16.837   6.698 -0.2351  0.2381 -0.0424
 1248ERGO    R316926   4.845  16.602   6.772  0.0275  0.0945 -0.0708
 1248ERGO    R416927   4.942  16.720   7.023 -0.4466  0.3819 -0.0008
 1248ERGO    R516928   4.985  16.520   6.948 -0.0484  0.3987  0.1456
 1248ERGO    C116929   4.822  16.432   7.282 -0.3233  0.3306 -0.0032
 1248ERGO    C216930   4.481  16.355   7.565 -0.0954  0.1168  0.0524
 1249ERGO   ROH16931   0.697  14.596   9.495 -0.1963  0.0420 -0.0958
 1249ERGO    R116932   0.792  14.696   9.248 -0.0291  0.1747  0.0175
 1249ERGO    R216933   0.851  14.531   9.034  0.2701  0.2716  0.0149
 1249ERGO    R316934   0.678  14.694   8.902  0.2855  0.2042 -0.0875
 1249ERGO    R416935   0.840  14.570   8.691  0.2798  0.0777 -0.0081
 1249ERGO    R516936   0.808  14.784   8.721  0.2913  0.0931 -0.1344
 1249ERGO    C116937   0.671  14.746   8.367  0.2999 -0.0984 -0.1177
 1249ERGO    C216938   0.658  14.970   8.076  0.1363  0.1046 -0.2714
 1250ERGO   ROH16939  16.764  14.951   5.888 -0.2148  0.2029 -0.0656
 1250ERGO    R116940  16.620  14.983   6.129 -0.1890  0.2006 -0.0498
 1250ERGO    R216941  16.648  14.810   6.343 -0.1647  0.2006 -0.0539
 1250ERGO    R316942  16.699  15.040   6.479 -0.1527  0.1997 -0.0575
 1250ERGO    R416943  16.733  14.828   6.678 -0.1197  0.1944 -0.0652
 1250ERGO    R516944  16.606  15.003   6.696 -0.1227  0.1915 -0.0450
 1250ERGO    C116945  16.830  15.053   7.000 -0.0822  0.1898 -0.0752
 1250ERGO    C216946  17.014  14.982   7.331 -0.2632 -0.0358  0.0965
 1251ERGO   ROH16947   0.242  13.700   9.696  0.2412 -0.2808 -0.0156
 1251ERGO    R116948   0.391  13.734   9.458  0.1857 -0.0693 -0.0218
 1251ERGO    R216949   0.429  13.531   9.274  0.2343  0.0600 -0.1614
 1251ERGO    R316950   0.327  13.713   9.100  0.1292  0.1340 -0.0242
 1251ERGO    R416951   0.522  13.561   8.943 -0.0861  0.0997 -0.2518
 1251ERGO    R516952   0.514  13.778   8.966  0.0169  0.0941 -0.1977
 1251ERGO    C116953   0.481  13.750   8.587 -0.3713  0.1920 -0.1758
 1251ERGO    C216954   0.506  13.639   8.328 -0.1792 -0.1490  0.2359
 1252ERGO   ROH16955   9.049  17.394   6.301  0.1085 -0.1730 -0.0740
 1252ERGO    R116956   9.100  17.354   6.577  0.1399 -0.1357 -0.0733
 1252ERGO    R216957   9.267  17.518   6.722  0.1393 -0.0992 -0.1063
 1252ERGO    R316958   9.051  17.540   6.885  0.1503 -0.1029 -0.0925
 1252ERGO    R416959   9.281  17.585   7.061  0.1509 -0.0066 -0.1257
 1252ERGO    R516960   9.121  17.441   7.091  0.1873 -0.0311 -0.0730
 1252ERGO    C116961   9.085  17.646   7.411  0.1680  0.0437 -0.1242
 1252ERGO    C216962   9.103  17.693   7.822 -0.1020  0.0829 -0.3169
 1253ERGO   ROH16963   1.313   3.202   6.188  0.1782 -0.0490  0.0794
 1253ERGO    R116964   1.320   3.164   6.468  0.0184 -0.0064  0.0904
 1253ERGO    R216965   1.245   3.361   6.647 -0.0055  0.0500  0.0216
 1253ERGO    R316966   1.079   3.168   6.741 -0.1241  0.1239 -0.0355
 1253ERGO    R416967   1.086   3.371   6.953  0.2357 -0.0771  0.1534
 1253ERGO    R516968   1.127   3.158   6.976  0.0451 -0.1420 -0.0783
 1253ERGO    C116969   0.837   3.196   7.220  0.2649 -0.0817  0.1765
 1253ERGO    C216970   0.786   3.327   7.571 -0.1026  0.0057 -0.2516
 1254ERGO   ROH16971   8.774   3.778  10.356 -0.2657  0.0257  0.1349
 1254ERGO    R116972   8.776   3.648  10.105 -0.1825 -0.0554  0.1779
 1254ERGO    R216973   8.546   3.602   9.959 -0.1365 -0.1298  0.1318
 1254ERGO    R316974   8.684   3.730   9.763 -0.1002 -0.1785  0.1246
 1254ERGO    R416975   8.505   3.545   9.621 -0.3143  0.0180  0.1261
 1254ERGO    R516976   8.722   3.561   9.597 -0.3059 -0.1581  0.0514
 1254ERGO    C116977   8.611   3.631   9.239 -0.3838  0.0583  0.1158
 1254ERGO    C216978   8.572   3.605   8.919 -0.0932 -0.2133  0.0839
 1255ERGO   ROH16979   5.696   1.137   6.373 -0.2704 -0.0052 -0.0668
 1255ERGO    R116980   5.722   1.233   6.638 -0.1532  0.0434 -0.0947
 1255ERGO    R216981   5.637   1.485   6.714 -0.2955 -0.0127 -0.0625
 1255ERGO    R316982   5.497   1.345   6.901 -0.0539 -0.1035  0.0551
 1255ERGO    R416983   5.512   1.618   7.007 -0.2537 -0.0610 -0.0226
 1255ERGO    R516984   5.571   1.436   7.110 -0.0171  0.0196 -0.0103
 1255ERGO    C116985   5.307   1.566   7.353 -0.0026 -0.1743  0.1110
 1255ERGO    C216986   5.071   1.647   7.571  0.0085 -0.2104 -0.0011
 1256ERGO   ROH16987  13.841   1.885   6.476  0.1545  0.1986 -0.0936
 1256ERGO    R116988  13.934   1.907   6.743  0.0426  0.1280 -0.0485
 1256ERGO    R216989  13.964   2.151   6.870 -0.0053  0.0928  0.0253
 1256ERGO    R316990  13.805   2.035   7.058 -0.0862  0.0496 -0.0680
 1256ERGO    R416991  13.920   2.269   7.192  0.0200 -0.0906  0.0977
 1256ERGO    R516992  13.925   2.063   7.263 -0.0923 -0.1432 -0.0343
 1256ERGO    C116993  13.745   2.229   7.556 -0.0412 -0.2378  0.0522
 1256ERGO    C216994  13.478   2.306   7.711 -0.0866 -0.2473  0.0654
 1257ERGO   ROH16995   6.013  14.485   6.339 -0.0346  0.0060 -0.0036
 1257ERGO    R116996   5.949  14.481   6.614  0.0972  0.0016  0.0295
 1257ERGO    R216997   6.125  14.566   6.809  0.2026 -0.0187 -0.0455
 1257ERGO    R316998   5.917  14.726   6.881  0.2496 -0.0031  0.0499
 1257ERGO    R416999   6.050  14.657   7.134  0.2664 -0.1206 -0.0033
 1257ERGO    R517000   5.838  14.631   7.087  0.2603 -0.0568  0.0231
 1257ERGO    C117001   5.812  14.860   7.391  0.3476 -0.1654  0.1109
 1257ERGO    C217002   5.833  15.188   7.519 -0.1905  0.0850 -0.1524
 1258ERGO   ROH17003   4.584  11.644   6.426 -0.1395  0.2105  0.1910
 1258ERGO    R117004   4.446  11.434   6.556  0.0161  0.0435  0.0938
 1258ERGO    R217005   4.565  11.193   6.619  0.2258  0.1360  0.0680
 1258ERGO    R317006   4.476  11.251   6.869  0.0927 -0.0088  0.0553
 1258ERGO    R417007   4.586  10.981   6.891  0.1389  0.0070 -0.0253
 1258ERGO    R517008   4.387  11.045   6.950  0.0981 -0.0670 -0.0894
 1258ERGO    C117009   4.515  10.912   7.284 -0.0368 -0.2039 -0.0917
 1258ERGO    C217010   4.620  10.909   7.517  0.2802  0.0923 -0.1236
 1259ERGO   ROH17011   7.730  14.978   6.419  0.1868  0.0008 -0.0028
 1259ERGO    R117012   7.835  14.851   6.650  0.2577  0.0468 -0.0086
 1259ERGO    R217013   8.056  14.948   6.785  0.1128  0.2536  0.0892
 1259ERGO    R317014   7.888  14.940   6.999  0.0523  0.0039  0.0343
 1259ERGO    R417015   8.156  14.930   7.116  0.0233  0.0751  0.1072
 1259ERGO    R517016   7.993  14.790   7.152  0.0918 -0.0456 -0.0416
 1259ERGO    C117017   8.057  14.912   7.508 -0.0858 -0.2632  0.0662
 1259ERGO    C217018   8.135  15.037   7.835  0.0685 -0.1055 -0.0855
 1260ERGO   ROH17019   5.482   7.021   6.846 -0.1295 -0.1130 -0.0886
 1260ERGO    R117020   5.438   6.844   7.062 -0.0774 -0.1162 -0.0807
 1260ERGO    R217021   5.500   6.910   7.323 -0.0040 -0.1247 -0.0965
 1260ERGO    R317022   5.240   6.844   7.367  0.0054 -0.1164 -0.0263
 1260ERGO    R417023   5.359   6.861   7.635  0.0737 -0.0940 -0.0562
 1260ERGO    R517024   5.247   6.692   7.553  0.0498 -0.1004 -0.0140
 1260ERGO    C117025   5.032   6.770   7.858  0.1279 -0.0683  0.0333
 1260ERGO    C217026   4.942   6.808   8.145  0.0775 -0.1442 -0.0079
 1261ERGO   ROH17027   8.493  10.468   6.688 -0.0286  0.0240 -0.0933
 1261ERGO    R117028   8.362  10.375   6.921  0.0049  0.1813 -0.0083
 1261ERGO    R217029   8.383  10.114   7.011 -0.2033  0.1577  0.0160
 1261ERGO    R317030   8.461  10.235   7.242  0.0498  0.1237 -0.0520
 1261ERGO    R417031   8.423   9.955   7.315 -0.0895  0.1859  0.0149
 1261ERGO    R517032   8.333  10.127   7.412  0.1105  0.2476  0.0571
 1261ERGO    C117033   8.519   9.975   7.708  0.2144  0.1704 -0.0497
 1261ERGO    C217034   8.620   9.938   8.120 -0.4357 -0.1214 -0.0273
 1262ERGO   ROH17035  17.107  11.595   9.950 -0.1019  0.0946 -0.0334
 1262ERGO    R117036  17.285  11.611   9.731 -0.0780  0.0555 -0.0175
 1262ERGO    R217037  17.330  11.398   9.560  0.0434 -0.0215  0.1028
 1262ERGO    R317038  17.263  11.580   9.370 -0.0163 -0.1542 -0.0033
 1262ERGO    R417039  17.379  11.356   9.221  0.0687 -0.1899  0.1270
 1262ERGO    R517040  17.439  11.564   9.208 -0.0089 -0.1779  0.0113
 1262ERGO    C117041  17.344  11.501   8.844  0.0275 -0.4124  0.0414
 1262ERGO    C217042  17.453  11.522   8.590  0.1396  0.0375  0.1646
 1263ERGO   ROH17043   6.096   0.756  10.193 -0.2003 -0.0698  0.0463
 1263ERGO    R117044   6.229   0.715   9.946 -0.0403  0.1917  0.0856
 1263ERGO    R217045   6.135   0.541   9.753  0.3590  0.0003  0.0555
 1263ERGO    R317046   6.151   0.760   9.594 -0.0249  0.0406  0.0622
 1263ERGO    R417047   6.156   0.534   9.408  0.5594  0.0325  0.0657
 1263ERGO    R517048   6.301   0.696   9.418  0.2147  0.3515  0.1423
 1263ERGO    C117049   6.183   0.736   9.058  0.3157  0.0892  0.0781
 1263ERGO    C217050   6.235   0.613   8.783  0.0604 -0.0089  0.0758
 1264ERGO   ROH17051   6.530   6.179   6.962 -0.1473  0.1545 -0.0598
 1264ERGO    R117052   6.432   6.077   7.207 -0.0877  0.1372 -0.0424
 1264ERGO    R217053   6.173   6.119   7.294 -0.1103  0.0155 -0.0400
 1264ERGO    R317054   6.169   5.847   7.312  0.0326  0.0157 -0.0056
 1264ERGO    R417055   5.910   5.933   7.420  0.0794 -0.0991  0.1932
 1264ERGO    R517056   6.056   5.804   7.518  0.2198 -0.0184  0.0904
 1264ERGO    C117057   5.754   5.571   7.510  0.3239 -0.1657  0.3613
 1264ERGO    C217058   5.481   5.306   7.548 -0.1077  0.0036 -0.0846
 1265ERGO   ROH17059   4.911   9.264  10.155 -0.3958 -0.2302 -0.2163
 1265ERGO    R117060   5.058   9.250   9.913 -0.2148  0.1515 -0.1362
 1265ERGO    R217061   5.025   9.045   9.731  0.4218  0.0508 -0.1593
 1265ERGO    R317062   4.981   9.249   9.558 -0.0214 -0.0510 -0.1796
 1265ERGO    R417063   5.003   9.013   9.388  0.5115 -0.0288 -0.1582
 1265ERGO    R517064   5.116   9.197   9.368  0.1116  0.2281 -0.1668
 1265ERGO    C117065   4.949   9.186   9.025  0.1477 -0.1708 -0.1766
 1265ERGO    C217066   5.019   9.069   8.597 -0.0838 -0.2491 -0.0391
 1266ERGO   ROH17067  17.729   5.252   6.523 -0.0459 -0.3553  0.1920
 1266ERGO    R117068  17.838   5.239   6.784  0.0226 -0.1190  0.1777
 1266ERGO    R217069  17.940   5.460   6.914 -0.1649  0.0483  0.0464
 1266ERGO    R317070  17.765   5.386   7.108 -0.0541 -0.0264  0.1189
 1266ERGO    R417071  17.921   5.605   7.227 -0.2074  0.1534 -0.0043
 1266ERGO    R517072  17.890   5.406   7.311 -0.0177  0.1582  0.0804
 1266ERGO    C117073  17.745   5.620   7.592 -0.1282  0.1446  0.0341
 1266ERGO    C217074  17.765   5.838   7.823  0.2138 -0.0122  0.2009
 1267ERGO   ROH17075  12.108  15.703   6.777  0.1719 -0.0614  0.1735
 1267ERGO    R117076  12.209  15.706   7.041  0.0229  0.0410  0.2305
 1267ERGO    R217077  12.099  15.862   7.241 -0.2605 -0.0818  0.1755
 1267ERGO    R317078  12.083  15.625   7.373 -0.0766 -0.1062  0.1578
 1267ERGO    R417079  12.046  15.827   7.581 -0.1719 -0.1500  0.1831
 1267ERGO    R517080  12.191  15.665   7.583 -0.0626 -0.0538  0.1404
 1267ERGO    C117081  11.999  15.584   7.902  0.0521 -0.2128  0.1708
 1267ERGO    C217082  11.700  15.449   8.140  0.0623  0.1888  0.0220
 1268ERGO   ROH17083  17.884   3.624   9.416  0.0394 -0.0675 -0.0438
 1268ERGO    R117084  17.843   3.737   9.160  0.1230 -0.1095 -0.0764
 1268ERGO    R217085  17.963   3.638   8.933  0.0582 -0.2587 -0.0481
 1268ERGO    R317086  17.708   3.627   8.841  0.0505 -0.1053 -0.0470
 1268ERGO    R417087  17.874   3.638   8.599  0.0510 -0.1436 -0.0464
 1268ERGO    R517088  17.708   3.770   8.649  0.1221 -0.0664 -0.0175
 1268ERGO    C117089  17.581   3.627   8.318  0.0398  0.0675 -0.0445
 1268ERGO    C217090  17.420   3.453   7.962  0.2193 -0.1332  0.1368
 1269ERGO   ROH17091  10.148  11.670   6.616  0.1743 -0.0218 -0.0522
 1269ERGO    R117092  10.088  11.723   6.888  0.2247  0.0057 -0.0445
 1269ERGO    R217093  10.137  11.540   7.090  0.2255  0.0042 -0.0333
 1269ERGO    R317094  10.273  11.747   7.200  0.2813 -0.0098 -0.0801
 1269ERGO    R417095  10.235  11.559   7.420  0.0897  0.1441 -0.0014
 1269ERGO    R517096  10.181  11.770   7.419  0.2019  0.1622 -0.1380
 1269ERGO    C117097  10.420  11.765   7.716  0.0632  0.2124 -0.0267
 1269ERGO    C217098  10.752  11.719   7.965  0.0215  0.1974  0.1664
 1270ERGO   ROH17099   3.049   3.946   6.459 -0.1212  0.0578  0.0706
 1270ERGO    R117100   3.202   3.937   6.697 -0.1972  0.1595  0.1230
 1270ERGO    R217101   3.089   3.959   6.948 -0.3474 -0.2622  0.0948
 1270ERGO    R317102   3.220   3.725   6.992  0.0906 -0.0555 -0.0410
 1270ERGO    R417103   3.256   3.877   7.239 -0.2116 -0.1227  0.0587
 1270ERGO    R517104   3.413   3.787   7.118 -0.0254  0.2371  0.0090
 1270ERGO    C117105   3.477   3.609   7.449  0.2786  0.1525 -0.0900
 1270ERGO    C217106   3.550   3.436   7.756  0.0928  0.2057  0.1294
 1271ERGO   ROH17107   9.428   8.459   7.057 -0.0870 -0.2375 -0.1202
 1271ERGO    R117108   9.345   8.382   7.316 -0.1170 -0.0852 -0.0825
 1271ERGO    R217109   9.102   8.258   7.363 -0.0798 -0.1605 -0.0525
 1271ERGO    R317110   9.257   8.071   7.483 -0.0198 -0.0035  0.1182
 1271ERGO    R417111   8.984   8.005   7.566 -0.0396 -0.3118 -0.2163
 1271ERGO    R517112   9.155   8.037   7.697 -0.2353 -0.1377 -0.0090
 1271ERGO    C117113   9.062   7.681   7.797  0.0400 -0.2526 -0.1516
 1271ERGO    C217114   8.919   7.327   7.731 -0.0316 -0.0181 -0.0313
 1272ERGO   ROH17115  16.613  16.815   9.716  0.0720  0.3279  0.0190
 1272ERGO    R117116  16.432  16.745   9.509 -0.1789  0.3715  0.2153
 1272ERGO    R217117  16.265  16.930   9.390  0.0337  0.5162  0.1052
 1272ERGO    R317118  16.381  16.839   9.161 -0.2408  0.0538  0.1399
 1272ERGO    R417119  16.160  17.008   9.070  0.1794  0.5463  0.0657
 1272ERGO    R517120  16.198  16.801   9.012 -0.3599  0.4096  0.2042
 1272ERGO    C117121  16.208  16.967   8.669  0.0068  0.1296  0.0753
 1272ERGO    C217122  16.110  17.019   8.256 -0.2756  0.0560 -0.1042
 1273ERGO   ROH17123  17.131  12.893   9.735 -0.1139  0.0007 -0.1715
 1273ERGO    R117124  16.977  12.809   9.513 -0.1152 -0.1232 -0.1243
 1273ERGO    R217125  16.931  12.971   9.295 -0.2270 -0.1990 -0.1537
 1273ERGO    R317126  17.032  12.760   9.157 -0.1581 -0.1860 -0.1236
 1273ERGO    R417127  16.939  12.947   8.950 -0.2867 -0.2630 -0.1507
 1273ERGO    R517128  16.885  12.736   8.969 -0.1903 -0.2892 -0.0913
 1273ERGO    C117129  17.039  12.734   8.620 -0.2568 -0.2883 -0.1206
 1273ERGO    C217130  16.995  12.704   8.244 -0.1315 -0.1696  0.1431
 1274ERGO   ROH17131  15.724   6.448   6.369 -0.1484 -0.0844  0.0458
 1274ERGO    R117132  15.873   6.453   6.609 -0.0865 -0.1349  0.0086
 1274ERGO    R217133  15.956   6.222   6.737  0.0267 -0.1619 -0.1099
 1274ERGO    R317134  16.201   6.339   6.719 -0.0177 -0.0699 -0.1266
 1274ERGO    R417135  16.225   6.148   6.941  0.1112 -0.1649 -0.2218
 1274ERGO    R517136  16.273   6.361   6.946  0.0401 -0.1509 -0.1370
 1274ERGO    C117137  16.612   6.214   7.042  0.1187 -0.0803 -0.3027
 1274ERGO    C217138  16.950   6.293   7.216  0.0654  0.0252 -0.1813
 1275ERGO   ROH17139  17.942  10.399  10.008 -0.2161 -0.0212 -0.1388
 1275ERGO    R117140  17.941  10.221   9.788 -0.0657 -0.0942 -0.0809
 1275ERGO    R217141  17.726  10.197   9.616 -0.0538 -0.3458 -0.0617
 1275ERGO    R317142  17.913  10.248   9.426 -0.1096 -0.2372 -0.0893
 1275ERGO    R417143  17.669  10.188   9.275 -0.1754 -0.0792 -0.0514
 1275ERGO    R517144  17.863  10.093   9.251 -0.1996 -0.0980 -0.1901
 1275ERGO    C117145  17.812  10.230   8.898 -0.2983  0.1780 -0.0712
 1275ERGO    C217146  17.772  10.201   8.518  0.0956 -0.0516 -0.0719
 1276ERGO   ROH17147   0.450  10.582   6.369  0.1202  0.0053 -0.0866
 1276ERGO    R117148   0.444  10.704   6.624  0.1437  0.1127 -0.1366
 1276ERGO    R217149   0.281  10.615   6.828  0.1215  0.2320 -0.0998
 1276ERGO    R317150   0.514  10.603   6.967  0.1182  0.2386 -0.0943
 1276ERGO    R417151   0.309  10.655   7.170  0.0906  0.0527 -0.0754
 1276ERGO    R517152   0.491  10.771   7.137  0.0503  0.1362 -0.0021
 1276ERGO    C117153   0.545  10.668   7.500  0.0695 -0.0455 -0.0560
 1276ERGO    C217154   0.580  10.611   7.853 -0.1180 -0.1408 -0.0311
 1277ERGO   ROH17155   9.075  11.923   6.612  0.1303 -0.1509 -0.0201
 1277ERGO    R117156   9.213  11.867   6.852  0.0032 -0.2054  0.0407
 1277ERGO    R217157   9.285  12.064   7.033  0.1840 -0.2075 -0.0318
 1277ERGO    R317158   9.150  11.906   7.208 -0.0438  0.0253  0.0098
 1277ERGO    R417159   9.260  12.119   7.374  0.2100 -0.0433 -0.0550
 1277ERGO    R517160   9.284  11.906   7.406 -0.0643 -0.0694  0.0275
 1277ERGO    C117161   9.119  12.002   7.736  0.0114  0.2706 -0.0295
 1277ERGO    C217162   9.110  11.974   8.184  0.1080 -0.1503 -0.0985
 1278ERGO   ROH17163  11.036  11.066   6.487 -0.3657 -0.0593  0.0165
 1278ERGO    R117164  10.915  10.990   6.731 -0.2663 -0.1494  0.0384
 1278ERGO    R217165  10.946  10.738   6.841 -0.1029 -0.1435  0.0065
 1278ERGO    R317166  11.028  10.878   7.059 -0.1270 -0.1206  0.0012
 1278ERGO    R417167  10.870  10.657   7.168 -0.0639 -0.1630  0.0108
 1278ERGO    R517168  10.842  10.869   7.209 -0.1173 -0.1692  0.0114
 1278ERGO    C117169  10.903  10.741   7.563 -0.0639 -0.1529  0.0084
 1278ERGO    C217170  11.023  10.880   7.947 -0.3969  0.3377 -0.2129
 1279ERGO   ROH17171  16.641  17.984   6.189 -0.1490  0.0814  0.0906
 1279ERGO    R117172  16.763  17.962   6.443 -0.1073 -0.0353  0.0607
 1279ERGO    R217173  16.842  18.183   6.590 -0.0080 -0.1074  0.1110
 1279ERGO    R317174  16.687  18.070   6.782 -0.0059 -0.1136  0.1100
 1279ERGO    R417175  16.841  18.275   6.923 -0.0861 -0.0327  0.0908
 1279ERGO    R517176  16.826  18.065   6.977 -0.0313 -0.0292  0.1340
 1279ERGO    C117177  16.694  18.223   7.298 -0.1293  0.0047  0.0782
 1279ERGO    C217178  16.391  18.396   7.527  0.0677 -0.1385 -0.0571
 1280ERGO   ROH17179   7.924   3.206   8.471  0.1762  0.2805 -0.0399
 1280ERGO    R117180   7.833   2.946   8.405  0.1507  0.2844 -0.0229
 1280ERGO    R217181   7.616   2.902   8.238  0.0873  0.2947  0.0505
 1280ERGO    R317182   7.794   2.749   8.101  0.0407  0.3057 -0.0217
 1280ERGO    R417183   7.539   2.702   7.967 -0.0520  0.0943  0.2344
 1280ERGO    R517184   7.673   2.551   8.046  0.0945  0.2111  0.2021
 1280ERGO    C117185   7.661   2.443   7.680 -0.1769 -0.0122  0.2738
 1280ERGO    C217186   7.608   2.478   7.469 -0.0771 -0.2322  0.0308
 1281ERGO   ROH17187  14.076   8.795   6.875  0.2259 -0.0907 -0.0707
 1281ERGO    R117188  14.029   8.865   7.145  0.0958 -0.2965 -0.0375
 1281ERGO    R217189  14.158   8.741   7.355  0.2965 -0.1857 -0.0912
 1281ERGO    R317190  14.225   8.996   7.422 -0.1297 -0.0992  0.0314
 1281ERGO    R417191  14.312   8.833   7.650  0.2850 -0.0913 -0.1148
 1281ERGO    R517192  14.182   9.008   7.658 -0.0329 -0.3258  0.0625
 1281ERGO    C117193  14.464   9.126   7.885 -0.1219  0.0448 -0.0136
 1281ERGO    C217194  14.711   9.134   8.126 -0.3274  0.1377 -0.2961
 1282ERGO   ROH17195   9.165   2.361   6.831  0.0421 -0.0387 -0.1129
 1282ERGO    R117196   9.250   2.537   7.036  0.0609 -0.1052 -0.0630
 1282ERGO    R217197   9.097   2.750   7.122  0.1415 -0.0308 -0.0977
 1282ERGO    R317198   9.133   2.635   7.366 -0.0099 -0.0777 -0.0968
 1282ERGO    R417199   8.901   2.811   7.400 -0.0206 -0.0763 -0.2004
 1282ERGO    R517200   9.082   2.810   7.522 -0.0946 -0.1072 -0.0933
 1282ERGO    C117201   8.821   2.739   7.791 -0.2572 -0.1467 -0.2593
 1282ERGO    C217202   8.676   2.579   8.093  0.0523  0.6493 -0.1852
 1283ERGO   ROH17203  11.508   6.389   6.559 -0.0547  0.0735  0.0639
 1283ERGO    R117204  11.648   6.255   6.766 -0.0240  0.0384  0.0207
 1283ERGO    R217205  11.924   6.249   6.779 -0.0221  0.0514 -0.0112
 1283ERGO    R317206  11.882   6.346   7.029  0.0001 -0.0031  0.0138
 1283ERGO    R417207  12.065   6.121   7.067  0.1759  0.1225 -0.0756
 1283ERGO    R517208  11.875   6.152   7.169  0.1900 -0.0231 -0.0022
 1283ERGO    C117209  12.109   6.138   7.470  0.3121  0.1128 -0.0896
 1283ERGO    C217210  12.240   6.054   7.738  0.1763 -0.0183  0.1511
 1284ERGO   ROH17211   7.633  12.899   7.016 -0.3552  0.1983  0.0918
 1284ERGO    R117212   7.808  12.812   7.221 -0.2048 -0.0782 -0.1463
 1284ERGO    R217213   7.779  12.891   7.485  0.2886 -0.0124 -0.1027
 1284ERGO    R317214   7.780  12.623   7.530 -0.0874 -0.0174 -0.0976
 1284ERGO    R417215   7.735  12.743   7.794  0.2406  0.0636 -0.0731
 1284ERGO    R517216   7.890  12.598   7.742 -0.0010 -0.1739 -0.1584
 1284ERGO    C117217   7.709  12.405   8.017 -0.1404  0.1033 -0.0510
 1284ERGO    C217218   7.562  12.174   8.241  0.3615  0.4006 -0.3157
 1285ERGO   ROH17219  17.251   0.331   9.143  0.1029 -0.2118 -0.0347
 1285ERGO    R117220  17.406   0.353   8.907 -0.0156 -0.2114 -0.1121
 1285ERGO    R217221  17.366   0.191   8.687 -0.2834 -0.0535 -0.1789
 1285ERGO    R317222  17.343   0.429   8.557 -0.1562  0.0394 -0.0365
 1285ERGO    R417223  17.384   0.232   8.344 -0.4999  0.1019 -0.1748
 1285ERGO    R517224  17.500   0.413   8.376 -0.3001 -0.0199 -0.1624
 1285ERGO    C117225  17.373   0.478   8.023 -0.5064  0.2796 -0.0389
 1285ERGO    C217226  17.416   0.418   7.725  0.1357 -0.2384 -0.2803
 1286ERGO   ROH17227   0.340   7.595   6.289 -0.0806  0.0021  0.0461
 1286ERGO    R117228   0.343   7.487   6.550  0.0615  0.1728  0.1170
 1286ERGO    R217229   0.358   7.645   6.777 -0.3758  0.3607  0.0249
 1286ERGO    R317230   0.134   7.508   6.848 -0.1085 -0.0981  0.0203
 1286ERGO    R417231   0.244   7.607   7.101 -0.4298  0.3297  0.0023
 1286ERGO    R517232   0.193   7.400   7.053  0.0508  0.1717  0.1203
 1286ERGO    C117233  -0.032   7.456   7.356 -0.2104 -0.1190 -0.0151
 1286ERGO    C217234  -0.155   7.414   7.666 -0.1082 -0.1523  0.0867
 1287ERGO   ROH17235  10.399   9.682   7.121  0.0673 -0.0781 -0.0191
 1287ERGO    R117236  10.663   9.694   7.223  0.0582 -0.0108  0.0008
 1287ERGO    R217237  10.777   9.929   7.313 -0.0071  0.0210  0.0179
 1287ERGO    R317238  10.820   9.784   7.539  0.0084  0.0237  0.0144
 1287ERGO    R417239  10.919  10.052   7.603 -0.1523  0.0645  0.0691
 1287ERGO    R517240  11.029   9.865   7.623 -0.0607  0.1242  0.0809
 1287ERGO    C117241  11.041   9.988   7.984 -0.2223  0.0923  0.0957
 1287ERGO    C217242  11.157  10.047   8.320 -0.2990 -0.0294  0.1856
 1288ERGO   ROH17243   7.739  16.700   6.206 -0.2307  0.0136  0.1248
 1288ERGO    R117244   7.830  16.872   6.412 -0.1458  0.0384  0.0659
 1288ERGO    R217245   7.794  16.815   6.680 -0.0483  0.0787  0.0845
 1288ERGO    R317246   8.063  16.851   6.690 -0.0418  0.0699 -0.0173
 1288ERGO    R417247   7.978  16.843   6.971  0.0854 -0.1156  0.0212
 1288ERGO    R517248   8.096  17.000   6.876  0.0430 -0.0509  0.0682
 1288ERGO    C117249   8.338  16.892   7.150  0.1694 -0.2371 -0.1113
 1288ERGO    C217250   8.395  16.905   7.521 -0.2237  0.1848  0.0770
 1289ERGO   ROH17251   2.249   8.233  10.046 -0.1471 -0.2836 -0.2812
 1289ERGO    R117252   2.219   8.363   9.796 -0.1556 -0.2378 -0.2578
 1289ERGO    R217253   2.428   8.389   9.615 -0.0885  0.0253 -0.1548
 1289ERGO    R317254   2.252   8.270   9.445  0.1079 -0.1051 -0.2693
 1289ERGO    R417255   2.383   8.476   9.284 -0.0304  0.0798 -0.1476
 1289ERGO    R517256   2.169   8.450   9.310 -0.0164 -0.1492 -0.2508
 1289ERGO    C117257   2.192   8.416   8.931  0.1879 -0.0111 -0.2509
 1289ERGO    C217258   2.191   8.298   8.640  0.0975 -0.1467 -0.1389
 1290ERGO   ROH17259  12.918  16.030   6.325  0.0184  0.2892 -0.0190
 1290ERGO    R117260  13.079  16.063   6.556  0.0131  0.2419 -0.0085
 1290ERGO    R217261  13.020  16.247   6.753 -0.0393  0.1420  0.0698
 1290ERGO    R317262  13.034  16.030   6.916  0.0304  0.0782 -0.0205
 1290ERGO    R417263  13.005  16.258   7.098  0.1032  0.0070  0.0812
 1290ERGO    R517264  13.161  16.106   7.105  0.1079  0.0056 -0.0427
 1290ERGO    C117265  13.010  16.060   7.452  0.2517 -0.1318  0.0031
 1290ERGO    C217266  12.898  15.913   7.716 -0.1486 -0.3871  0.2506
 1291ERGO   ROH17267   7.044  14.044  10.159 -0.0349  0.1408  0.0611
 1291ERGO    R117268   6.985  13.937   9.903  0.1529 -0.1773  0.1457
 1291ERGO    R217269   6.935  14.097   9.683 -0.3545 -0.4325  0.0644
 1291ERGO    R317270   7.134  13.949   9.571  0.0116  0.0193  0.0863
 1291ERGO    R417271   6.985  14.058   9.343 -0.3635 -0.4817  0.0685
 1291ERGO    R517272   7.032  13.848   9.380  0.2026 -0.3568  0.1702
 1291ERGO    C117273   7.200  13.896   9.040 -0.0250 -0.0863  0.0913
 1291ERGO    C217274   7.184  13.847   8.742 -0.0092  0.1270 -0.0059
 1292ERGO   ROH17275  15.696   2.343   6.398  0.0202 -0.1348  0.0310
 1292ERGO    R117276  15.754   2.262   6.663  0.1605 -0.0055  0.0431
 1292ERGO    R217277  15.912   2.412   6.834  0.0175  0.2284 -0.0122
 1292ERGO    R317278  15.696   2.393   6.998  0.0576  0.0116  0.0161
 1292ERGO    R417279  15.921   2.442   7.178  0.0090  0.2944 -0.0189
 1292ERGO    R517280  15.777   2.279   7.191  0.1990  0.1395  0.0252
 1292ERGO    C117281  15.723   2.442   7.532  0.0417  0.1293  0.0039
 1292ERGO    C217282  15.507   2.400   7.890 -0.0259  0.0405  0.1033
 1293ERGO   ROH17283  16.409   6.943   9.775 -0.3568  0.3502 -0.0504
 1293ERGO    R117284  16.334   6.800   9.542 -0.2954  0.1837  0.0313
 1293ERGO    R217285  16.164   6.905   9.352 -0.2331  0.0515 -0.0913
 1293ERGO    R317286  16.367   6.844   9.182 -0.1909 -0.0840  0.0044
 1293ERGO    R417287  16.132   6.881   9.009 -0.1077  0.0244 -0.1024
 1293ERGO    R517288  16.264   6.706   9.015 -0.2021 -0.0529 -0.0208
 1293ERGO    C117289  16.304   6.808   8.649  0.0048 -0.1187 -0.0189
 1293ERGO    C217290  16.330   6.872   8.271  0.0046  0.0022 -0.0713
 1294ERGO   ROH17291   2.783   6.312   6.119 -0.3117  0.0195  0.2073
 1294ERGO    R117292   2.847   6.219   6.378 -0.0821  0.0713  0.1712
 1294ERGO    R217293   2.928   5.959   6.427 -0.1881  0.0384  0.1698
 1294ERGO    R317294   3.140   6.082   6.545  0.0216 -0.0504 -0.1043
 1294ERGO    R417295   3.110   5.830   6.691 -0.0817  0.0855  0.1201
 1294ERGO    R517296   3.118   6.029   6.777  0.1670  0.1520 -0.0406
 1294ERGO    C117297   3.415   5.869   6.954  0.1771  0.0296 -0.1662
 1294ERGO    C217298   3.439   5.698   7.271 -0.1916 -0.1716  0.1214
 1295ERGO   ROH17299  16.188  15.824   9.751  0.2896 -0.0637 -0.0651
 1295ERGO    R117300  16.218  15.823   9.470  0.1634  0.1248 -0.0800
 1295ERGO    R217301  16.041  15.691   9.303  0.2425  0.0077 -0.0643
 1295ERGO    R317302  16.024  15.935   9.183 -0.1016  0.0553  0.0674
 1295ERGO    R417303  15.927  15.745   8.981  0.4137 -0.0175 -0.1322
 1295ERGO    R517304  16.085  15.893   8.955  0.1736  0.2958  0.0887
 1295ERGO    C117305  15.844  16.004   8.681  0.1908  0.0123 -0.0480
 1295ERGO    C217306  15.650  15.932   8.506 -0.1197  0.1272  0.1821
 1296ERGO   ROH17307  13.665  16.961   6.434 -0.1766  0.1278  0.0811
 1296ERGO    R117308  13.683  17.116   6.670 -0.1359  0.0262  0.1474
 1296ERGO    R217309  13.562  17.041   6.907 -0.1052 -0.0749  0.1429
 1296ERGO    R317310  13.813  17.069   7.007 -0.0853 -0.1303  0.1042
 1296ERGO    R417311  13.638  17.091   7.240 -0.0359  0.0850  0.1024
 1296ERGO    R517312  13.791  17.234   7.179  0.0163 -0.0261  0.0088
 1296ERGO    C117313  13.918  17.148   7.528  0.0230  0.1258  0.0425
 1296ERGO    C217314  14.155  17.126   7.746  0.3085  0.1508  0.2190
 1297ERGO   ROH17315  14.210   3.704   6.604  0.1317 -0.1048  0.0714
 1297ERGO    R117316  14.034   3.778   6.812 -0.0287 -0.0574 -0.0805
 1297ERGO    R217317  13.892   3.592   6.960  0.0602 -0.0383  0.0211
 1297ERGO    R317318  14.007   3.719   7.171 -0.1495  0.2559 -0.0330
 1297ERGO    R417319  13.775   3.580   7.285  0.2516 -0.3828  0.0823
 1297ERGO    R517320  13.823   3.792   7.304 -0.2919 -0.2394  0.0711
 1297ERGO    C117321  13.816   3.692   7.672  0.1662 -0.3072  0.0671
 1297ERGO    C217322  13.718   3.534   8.054  0.4358 -0.1494 -0.0606
 1298ERGO   ROH17323   1.470   7.145   9.772  0.0445 -0.0097 -0.0670
 1298ERGO    R117324   1.592   7.031   9.543  0.0179  0.0607 -0.1160
 1298ERGO    R217325   1.470   6.835   9.391  0.0434  0.0365 -0.1021
 1298ERGO    R317326   1.517   7.009   9.188 -0.0771  0.0761 -0.0978
 1298ERGO    R417327   1.518   6.744   9.062  0.1223  0.0746 -0.1016
 1298ERGO    R517328   1.675   6.895   9.048  0.0136  0.1922 -0.0937
 1298ERGO    C117329   1.591   6.854   8.679  0.0551  0.1338 -0.0972
 1298ERGO    C217330   1.542   6.859   8.446 -0.0269 -0.4072 -0.0454
 1299ERGO   ROH17331   0.665   0.513   9.874 -0.2073 -0.1163 -0.0111
 1299ERGO    R117332   0.697   0.407   9.614 -0.1233 -0.0605 -0.0245
 1299ERGO    R217333   0.525   0.470   9.405 -0.0045  0.0575 -0.0932
 1299ERGO    R317334   0.756   0.540   9.280  0.0833  0.0071  0.0389
 1299ERGO    R417335   0.560   0.515   9.065  0.1539  0.2881 -0.0482
 1299ERGO    R517336   0.753   0.416   9.075  0.0841  0.1627 -0.0516
 1299ERGO    C117337   0.797   0.608   8.749  0.3286  0.3750  0.1019
 1299ERGO    C217338   0.848   0.578   8.472 -0.0567  0.0647 -0.3937
 1300ERGO   ROH17339  16.147  13.691   6.236 -0.0443  0.3236  0.0281
 1300ERGO    R117340  16.223  13.858   6.451  0.1377  0.2148  0.0504
 1300ERGO    R217341  16.068  13.890   6.677  0.1018  0.4556 -0.0030
 1300ERGO    R317342  16.297  13.817   6.805 -0.0471  0.1062  0.0770
 1300ERGO    R417343  16.135  13.950   7.011  0.1564  0.5234 -0.0257
 1300ERGO    R517344  16.340  13.998   6.956  0.2605  0.1163 -0.0195
 1300ERGO    C117345  16.388  13.916   7.325  0.0481  0.2348  0.0361
 1300ERGO    C217346  16.540  13.835   7.584 -0.3822 -0.1060 -0.0109
 1301ERGO   ROH17347   3.889   8.952   6.915 -0.2764  0.3369 -0.0246
 1301ERGO    R117348   3.795   8.871   7.169 -0.2644  0.1485 -0.0789
 1301ERGO    R217349   3.628   8.654   7.203  0.0269 -0.0993 -0.1919
 1301ERGO    R317350   3.820   8.574   7.378  0.0734  0.1348 -0.1326
 1301ERGO    R417351   3.568   8.481   7.497  0.1442 -0.1814 -0.2154
 1301ERGO    R517352   3.720   8.604   7.594 -0.0358  0.0079 -0.1632
 1301ERGO    C117353   3.714   8.306   7.832  0.2561 -0.0095 -0.1733
 1301ERGO    C217354   3.604   8.023   7.879 -0.0659  0.4643 -0.2236
 1302ERGO   ROH17355   6.379  15.104   6.006  0.1166  0.1506 -0.0979
 1302ERGO    R117356   6.430  15.302   6.201 -0.0866  0.2468 -0.1391
 1302ERGO    R217357   6.231  15.413   6.358 -0.1685 -0.1243  0.0305
 1302ERGO    R317358   6.393  15.335   6.561  0.1540  0.1659 -0.1057
 1302ERGO    R417359   6.231  15.550   6.675 -0.1858 -0.1632  0.0472
 1302ERGO    R517360   6.448  15.537   6.675 -0.1531  0.2648 -0.1271
 1302ERGO    C117361   6.384  15.556   7.050  0.1069  0.0866 -0.0709
 1302ERGO    C217362   6.353  15.649   7.342 -0.0242 -0.1385  0.0593
 1303ERGO   ROH17363  11.644   8.310   7.047  0.1205  0.1103  0.1347
 1303ERGO    R117364  11.803   8.440   7.243  0.1082 -0.0677  0.2640
 1303ERGO    R217365  11.695   8.611   7.432  0.1205 -0.1065  0.3003
 1303ERGO    R317366  11.821   8.444   7.606 -0.0358 -0.2538  0.2768
 1303ERGO    R417367  11.786   8.694   7.755  0.4546 -0.1262  0.2154
 1303ERGO    R517368  11.972   8.586   7.725  0.2728 -0.4437  0.1319
 1303ERGO    C117369  11.957   8.586   8.106  0.5024 -0.2760  0.1439
 1303ERGO    C217370  12.191   8.408   8.320 -0.0665 -0.0792 -0.0912
 1304ERGO   ROH17371   4.191  15.666   9.787 -0.1024  0.1444  0.0909
 1304ERGO    R117372   4.223  15.818   9.550 -0.1739  0.1357  0.0758
 1304ERGO    R217373   4.458  15.950   9.488 -0.2285  0.2191  0.0509
 1304ERGO    R317374   4.438  15.808   9.257 -0.1873  0.1926  0.0633
 1304ERGO    R417375   4.578  16.053   9.181 -0.0543  0.1277  0.0868
 1304ERGO    R517376   4.398  15.973   9.088 -0.0492  0.1863  0.0216
 1304ERGO    C117377   4.630  15.980   8.785  0.0858  0.0495  0.1193
 1304ERGO    C217378   4.649  16.116   8.425 -0.0547  0.0812  0.0019
 1305W        W17379   9.854   1.236   2.629  0.2251 -0.0076 -0.2038
 1306W        W17380  13.535   0.441   0.399  0.1872  0.2049 -0.0935
 1307W        W17381  16.232  11.304  13.146  0.1149 -0.1999  0.2536
 1308W        W17382  10.315  14.079  14.831  0.5466 -0.2030  0.3623
 1309W        W17383  10.575   0.233  13.792 -0.2115  0.2235  0.2215
 1310W        W17384  15.469  14.066  16.017 -0.0661 -0.3219  0.0306
 1311W        W17385   6.767   8.072   1.612  0.1401 -0.0243  0.1131
 1312W        W17386  17.516   3.802  12.705 -0.1989  0.1119  0.0469
 1313W        W17387   9.768   5.502   2.133  0.1151 -0.2208 -0.0142
 1314W        W17388   9.571  17.949   4.026  0.0071  0.0485  0.1924
 1315W        W17389   8.928   1.525  14.351  0.0741 -0.2125 -0.0396
 1316W        W17390   5.629   1.051  15.341  0.0713  0.0511 -0.4101
 1317W        W17391  13.051  11.626   0.121 -0.2676  0.0884  0.3018
 1318W        W17392   0.930   3.876  11.313 -0.0743  0.0871 -0.2152
 1319W        W17393   0.802  17.855  12.857 -0.0965  0.1748 -0.2116
 1320W        W17394  11.948   0.297   1.378  0.1004  0.4081  0.0151
 1321W        W17395   2.591   3.675   4.782  0.0626 -0.0051 -0.0433
 1322W        W17396  10.651  17.737  13.773 -0.1933  0.0159  0.1224
 1323W        W17397   4.193   7.065  16.472 -0.2103 -0.1073  0.2926
 1324W        W17398  17.608  13.502  11.255 -0.1461  0.4724 -0.0016
 1325W        W17399   4.554  10.589   3.013 -0.0558 -0.5766  0.0259
 1326W        W17400   9.582  15.049   3.844  0.1854 -0.0589 -0.1647
 1327W        W17401   7.038  11.532  12.373  0.1680  0.0481 -0.0859
 1328W        W17402   2.487  13.804  11.927 -0.1217  0.0582  0.3283
 1329W        W17403  10.949  18.008  12.771  0.1402  0.1290 -0.1912
 1330W        W17404   4.277   8.890   5.562  0.0815  0.3742 -0.2477
 1331W        W17405  16.516   4.838   4.272  0.0911 -0.2251 -0.1599
 1332W        W17406  10.664  12.101  12.368 -0.2347  0.0930  0.0490
 1333W        W17407   9.502  16.553  14.707 -0.2311  0.0601  0.0974
 1334W        W17408   8.647   3.828   5.451 -0.3604 -0.3094  0.0672
 1335W        W17409  15.332   7.957  12.787 -0.1461 -0.0496  0.1473
 1336W        W17410   2.627  12.849  12.922  0.1873  0.1697  0.0313
 1337W        W17411  15.060  10.265  12.453  0.1336  0.1612  0.2316
 1338W        W17412  10.513  14.882  11.893 -0.1076 -0.3218 -0.1164
 1339W        W17413   3.186  12.618  13.772  0.0810  0.0506 -0.1607
 1340W        W17414   6.225   7.349   0.485 -0.0953  0.2877 -0.0317
 1341W        W17415   9.546  14.388  12.837 -0.0704  0.0493 -0.0511
 1342W        W17416   0.167   9.894  15.739 -0.0611  0.0019 -0.0788
 1343W        W17417   3.605   3.347  14.178 -0.2202  0.2685 -0.3272
 1344W        W17418   6.697   7.925  16.528 -0.1360 -0.1513  0.1064
 1345W        W17419   1.347  10.401  11.748 -0.0280 -0.1297  0.4054
 1346W        W17420  14.932  13.544  15.051  0.2238  0.0879 -0.2466
 1347W        W17421  10.288   7.036   3.431  0.0081 -0.1004 -0.2928
 1348W        W17422   6.034  15.946   3.107 -0.1301  0.2657 -0.0919
 1349W        W17423  18.020  16.654   1.760  0.2063 -0.1189 -0.0209
 1350W        W17424   8.697  13.508   0.763 -0.0150 -0.0598 -0.1179
 1351W        W17425   2.318   2.499  11.377  0.0499 -0.0321 -0.3290
 1352W        W17426  17.523   6.665  13.316 -0.0825 -0.1347  0.2637
 1353W        W17427  18.114   6.086   3.933  0.1890 -0.0968  0.0445
 1354W        W17428   3.853   8.998   1.906 -0.1979 -0.1284  0.1725
 1355W        W17429  12.091   6.849  12.113 -0.0466 -0.0840  0.0367
 1356W        W17430  16.535   0.078  16.458  0.0928  0.1993  0.3877
 1357W        W17431  17.022   8.661   4.831  0.0613 -0.1487 -0.0098
 1358W        W17432  16.281   0.390  12.944  0.2951  0.1686 -0.1815
 1359W        W17433  14.921   6.998  15.584  0.0227 -0.1545 -0.1059
 1360W        W17434   5.475   4.628  13.368 -0.1191 -0.2987  0.1928
 1361W        W17435   0.567  10.948   4.697  0.2703 -0.0515  0.1825
 1362W        W17436  12.754   8.799  16.139 -0.3954 -0.2445  0.1014
 1363W        W17437  11.425  14.122  15.212  0.1382 -0.2021 -0.0732
 1364W        W17438  16.267  11.733  16.294 -0.2540 -0.0270  0.1430
 1365W        W17439  13.824   0.141  11.657  0.1814  0.1627 -0.0902
 1366W        W17440   2.252  10.054  12.086 -0.0133 -0.0269 -0.1599
 1367W        W17441  15.844  13.189  13.259  0.1743  0.0898 -0.2560
 1368W        W17442  11.672  17.470  14.013  0.2368 -0.3814  0.0621
 1369W        W17443   9.378  16.050  14.591 -0.0553 -0.0502 -0.1133
 1370W        W17444   1.556   8.690   4.337 -0.0022 -0.2875 -0.1887
 1371W        W17445  16.878   7.116  14.557  0.1007 -0.0903  0.0347
 1372W        W17446  13.842  14.481   1.658 -0.1465  0.0942  0.2247
 1373W        W17447   7.653  14.631  14.357  0.0243 -0.0481  0.1158
 1374W        W17448  16.203  16.392  16.386 -0.1689  0.3200  0.2278
 1375W        W17449   9.372   9.235  12.853 -0.0719 -0.1548 -0.0370
 1376W        W17450   6.065   0.475   4.320 -0.1012 -0.0606  0.2040
 1377W        W17451   0.109  11.573   2.915  0.1556  0.0247 -0.0257
 1378W        W17452  16.643   5.005  15.629 -0.1333  0.1020 -0.2038
 1379W        W17453  17.539  16.896  15.402  0.2758  0.4632 -0.2249
 1380W        W17454   0.051   7.970  13.402 -0.3352  0.1563  0.1184
 1381W        W17455  11.146  17.785  13.409  0.0416  0.0071 -0.0624
 1382W        W17456  14.922   0.857  11.319  0.2008 -0.0664  0.2047
 1383W        W17457   2.012   3.060  14.960  0.2398 -0.1776  0.1634
 1384W        W17458  15.394   4.780  13.581  0.0679 -0.1919 -0.2665
 1385W        W17459   3.059  17.599  15.115  0.0185  0.2743 -0.0869
 1386W        W17460  12.984  10.667   5.802  0.1056  0.0581 -0.3367
 1387W        W17461   4.597   0.101  16.051  0.0212  0.0845 -0.1096
 1388W        W17462   3.613   5.159   2.430 -0.1127 -0.1333  0.1930
 1389W        W17463   7.361   8.341  12.455  0.3643  0.2330  0.0567
 1390W        W17464  16.304   4.648  14.313  0.3142  0.0701 -0.1784
 1391W        W17465   3.505   6.430   1.020 -0.0954  0.2206  0.3143
 1392W        W17466  10.782   0.441   0.097  0.1303  0.1686 -0.0039
 1393W        W17467   0.249   7.002  14.811  0.1018  0.1069 -0.3593
 1394W        W17468  11.227   9.253  11.094 -0.0907 -0.2459 -0.0238
 1395W        W17469   2.537   3.992  12.407  0.1715 -0.1105  0.4129
 1396W        W17470  15.596  10.043  16.170  0.1295 -0.3028  0.1082
 1397W        W17471   6.841   0.311  15.692 -0.2459  0.2486 -0.2070
 1398W        W17472  10.525  16.051  13.352 -0.2742  0.1480 -0.1591
 1399W        W17473   0.249  14.933   1.535  0.2075 -0.1046  0.0554
 1400W        W17474  12.463   4.629  11.697  0.3542  0.0625  0.2138
 1401W        W17475  13.067  11.622  11.418 -0.0067 -0.1626 -0.0018
 1402W        W17476   5.153  17.813   0.610 -0.0542  0.0795 -0.0923
 1403W        W17477  14.933  15.652   1.800 -0.0441  0.1789  0.4204
 1404W        W17478  14.627   7.442   5.290  0.1511  0.0818 -0.0279
 1405W        W17479   9.309   4.841  13.089  0.1271  0.2057 -0.0678
 1406W        W17480  12.715   7.875  11.850 -0.0103 -0.0376 -0.2750
 1407W        W17481   6.181   7.250  11.554 -0.0863  0.0629  0.2199
 1408W        W17482   9.644   5.041   2.387 -0.0630 -0.0870  0.1024
 1409W        W17483  12.552  11.498   4.140 -0.0111 -0.2283  0.0380
 1410W        W17484  17.408  16.148  12.020  0.0438  0.2733  0.0279
 1411W        W17485  17.587   7.606  15.668  0.0271  0.1539 -0.1574
 1412W        W17486   8.530  17.819  12.803 -0.1268  0.1831 -0.3627
 1413W        W17487  10.316  11.454  15.042  0.1570  0.0345  0.0235
 1414W        W17488  14.163   9.637   4.208  0.0142  0.1560 -0.0898
 1415W        W17489  17.257   0.037   2.154  0.2011  0.2615 -0.0821
 1416W        W17490   6.374   4.605   0.823 -0.3860  0.0193  0.2945
 1417W        W17491  16.122   2.682   5.112  0.0930  0.2260 -0.0454
 1418W        W17492   1.881  16.875  16.264 -0.0930  0.1522  0.1337
 1419W        W17493   9.814   3.942  13.552 -0.1965  0.2337 -0.0937
 1420W        W17494   1.953  11.434  11.575 -0.1716 -0.1873 -0.0797
 1421W        W17495   9.536  13.847  11.615 -0.1916 -0.0515  0.3486
 1422W        W17496  10.148   2.402  15.139 -0.2421 -0.1593 -0.2287
 1423W        W17497   5.168   0.540   5.227  0.2351  0.1888 -0.0472
 1424W        W17498   8.615  13.032   5.556  0.1291  0.0764 -0.0725
 1425W        W17499   2.514   2.793  11.701 -0.2656 -0.0354 -0.1829
 1426W        W17500  10.221   1.488  11.987  0.1904 -0.1631  0.4211
 1427W        W17501  12.195  14.025  15.964 -0.2005 -0.0648  0.3842
 1428W        W17502  12.992   5.771  14.909  0.1140 -0.0446  0.1688
 1429W        W17503  10.776   6.356  13.685  0.1983 -0.2070  0.3423
 1430W        W17504   7.698  15.129   1.020 -0.3813  0.0652 -0.0542
 1431W        W17505  10.903   1.724   0.901  0.4012  0.1185  0.2117
 1432W        W17506  12.214   8.688  13.849  0.3588  0.0424 -0.2423
 1433W        W17507   5.225   1.564   2.330  0.1699 -0.0160  0.0263
 1434W        W17508  17.550   8.176  15.307 -0.2579  0.0320 -0.0388
 1435W        W17509   3.833   1.191   1.963  0.0752  0.2671  0.1123
 1436W        W17510  13.066  13.785  13.405 -0.5747 -0.3257 -0.1069
 1437W        W17511   4.986   2.334   3.556 -0.0833  0.2733 -0.0956
 1438W        W17512   0.473  17.373  13.953 -0.1126 -0.0118 -0.1798
 1439W        W17513   1.780   8.073  11.356  0.1024  0.0358  0.3961
 1440W        W17514  14.629   7.515   1.805  0.1301  0.1036  0.0492
 1441W        W17515   5.935  15.100  13.389 -0.0917 -0.3711  0.1377
 1442W        W17516   3.503  16.717  15.652 -0.2067  0.2058 -0.0544
 1443W        W17517  15.344  13.540  12.367 -0.0309 -0.2228 -0.2488
 1444W        W17518  16.243   7.981  13.494 -0.2986  0.1780 -0.0483
 1445W        W17519  13.169   7.472  13.799 -0.0733  0.0376 -0.1325
 1446W        W17520   9.621   3.103  13.894 -0.1279  0.1563 -0.0243
 1447W        W17521   5.306  11.343  15.697 -0.0653 -0.1006  0.1498
 1448W        W17522  12.055  16.530   3.276  0.0073  0.0791  0.0189
 1449W        W17523   3.932   7.630   3.070 -0.0901  0.1929  0.1689
 1450W        W17524  15.924  12.099  11.593  0.0697  0.1265  0.2284
 1451W        W17525  14.572  14.075  12.740  0.0681 -0.1144  0.1486
 1452W        W17526   7.731   2.573  14.485 -0.0369  0.0995 -0.1346
 1453W        W17527  16.625   1.248  14.942  0.0433 -0.2845  0.0609
 1454W        W17528  11.546  17.022   0.271 -0.0678 -0.1080 -0.0278
 1455W        W17529   8.504   1.743   6.204 -0.2577 -0.3554 -0.1981
 1456W        W17530   2.282  17.355   4.549  0.0562  0.2312  0.0427
 1457W        W17531  15.612  11.923   2.824 -0.0454 -0.3460  0.0295
 1458W        W17532  10.220   5.930  14.256  0.0317 -0.1205  0.0934
 1459W        W17533   7.311  15.043  15.225 -0.3413 -0.2349 -0.0293
 1460W        W17534   9.788   7.455  15.962 -0.3212  0.3241 -0.1330
 1461W        W17535  11.686  11.984   3.691  0.0734 -0.2145 -0.2563
 1462W        W17536   3.953  17.905  14.357 -0.1210 -0.0738 -0.1392
 1463W        W17537  12.971   9.267   3.590 -0.0826  0.1834  0.1055
 1464W        W17538   9.557   3.712   1.871 -0.1766 -0.0308  0.1517
 1465W        W17539  15.709   1.444  13.713  0.2047  0.1458  0.0698
 1466W        W17540  16.052   2.873  12.865  0.1055 -0.2300 -0.4099
 1467W        W17541   7.771  12.066   2.076  0.1339 -0.2779  0.3576
 1468W        W17542  10.554  12.890  13.455  0.2170  0.0939 -0.0944
 1469W        W17543  15.773   6.655  15.919  0.0765 -0.5171  0.1972
 1470W        W17544   9.514  18.086  11.911 -0.0456  0.0100 -0.1220
 1471W        W17545  14.937   5.258   3.433  0.2353  0.0321  0.1108
 1472W        W17546   4.159  13.456  15.055  0.1503  0.0634  0.0162
 1473W        W17547   8.763  10.467  13.483  0.1192  0.3854 -0.2069
 1474W        W17548   3.992  12.436  15.903  0.0582 -0.1179 -0.0745
 1475W        W17549  17.917   9.107  15.389  0.0781  0.1909 -0.1577
 1476W        W17550  16.353   2.063  15.873  0.3055  0.1655 -0.1207
 1477W        W17551  10.279  14.510  11.695 -0.0228 -0.2258 -0.2784
 1478W        W17552  15.005   7.498  15.668 -0.2810  0.2122 -0.0983
 1479W        W17553  13.019  10.143   5.548 -0.2772 -0.5220 -0.0880
 1480W        W17554   5.344   5.253   5.238 -0.1465 -0.0650  0.0880
 1481W        W17555   0.896   6.840  13.614 -0.3496 -0.0823  0.0338
 1482W        W17556   9.542  11.889   0.412 -0.0394  0.1788  0.0140
 1483W        W17557   0.097  12.127   2.852 -0.0733  0.0728 -0.0938
 1484W        W17558   5.618  15.162  14.167 -0.1320 -0.1898 -0.1580
 1485W        W17559   7.405   4.738   4.784 -0.3422 -0.0761 -0.1927
 1486W        W17560   2.438  10.747  15.992 -0.6587  0.3075 -0.0142
 1487W        W17561   2.537   5.232   0.381  0.2086 -0.2051 -0.0793
 1488W        W17562   1.092   9.260  12.464  0.0224  0.0272  0.1445
 1489W        W17563  11.070  11.590   4.974 -0.0122  0.5804  0.1830
 1490W        W17564   7.193   5.142   1.827 -0.0613  0.1728 -0.0706
 1491W        W17565  12.025  17.370  15.122 -0.0121 -0.0358 -0.2859
 1492W        W17566   5.810  13.523  14.416 -0.3252 -0.1062 -0.2841
 1493W        W17567   7.794  11.269  14.375 -0.1271 -0.0654 -0.0404
 1494W        W17568  14.783  16.327   3.038 -0.1331 -0.0938 -0.1713
 1495W        W17569   6.940  10.554   5.394  0.3051 -0.0483  0.0689
 1496W        W17570  11.197   2.484   5.038  0.0867  0.1315 -0.0778
 1497W        W17571   9.304  12.258  12.144 -0.0802 -0.1047 -0.0696
 1498W        W17572  12.636  10.758   2.194 -0.1485 -0.1138 -0.0504
 1499W        W17573  12.261  10.751  12.203  0.1767 -0.1996 -0.1371
 1500W        W17574  17.667   3.436   5.355 -0.1588 -0.1454  0.0297
 1501W        W17575  17.539   9.088   0.140 -0.1933  0.1043  0.0060
 1502W        W17576   7.339   3.693  11.661 -0.0274 -0.2912  0.0581
 1503W        W17577   3.884   4.213  15.229  0.2796 -0.0674  0.0054
 1504W        W17578   3.396  15.079  13.320 -0.1153 -0.2601  0.1394
 1505W        W17579  12.025  18.080  12.103 -0.0985 -0.4867 -0.0336
 1506W        W17580   5.587   6.005  16.146  0.1175 -0.1079  0.0562
 1507W        W17581   7.207  18.157  15.897 -0.1767 -0.2231 -0.0446
 1508W        W17582  14.035   9.944   1.001  0.2381 -0.0608  0.4574
 1509W        W17583   3.593  12.947  13.835 -0.2216 -0.0467  0.1416
 1510W        W17584   3.240  17.523  12.208 -0.4283 -0.2005  0.2021
 1511W        W17585   5.084  14.483   1.166  0.0285  0.1867  0.0765
 1512W        W17586  11.730  13.655   2.169 -0.0156  0.2279 -0.3802
 1513W        W17587  12.640  18.199   4.003 -0.2371  0.0916  0.0275
 1514W        W17588  17.039   9.153   0.227  0.0559 -0.2320 -0.0164
 1515W        W17589   8.587  18.220   3.638  0.0598 -0.4314 -0.0296
 1516W        W17590  10.782  16.070   3.003  0.0683  0.1853 -0.0319
 1517W        W17591  16.314   3.266   5.803  0.2161  0.2824 -0.1833
 1518W        W17592   2.201   6.401  14.594  0.3896  0.1122 -0.1120
 1519W        W17593  12.244   6.312  13.585  0.0249  0.2137  0.1825
 1520W        W17594   9.514   1.556   1.047  0.3349  0.3068  0.1998
 1521W        W17595   7.223  14.836   1.084 -0.0947 -0.2303  0.4394
 1522W        W17596  13.682  13.577  16.192  0.1314  0.3036 -0.1518
 1523W        W17597   2.906  12.429  11.730 -0.1046  0.3633 -0.1262
 1524W        W17598  17.687   1.248   5.111  0.0893 -0.0764  0.1720
 1525W        W17599  10.473   5.135   1.860  0.0614 -0.0130  0.1608
 1526W        W17600   6.435  11.813   5.022 -0.2478 -0.0624 -0.0177
 1527W        W17601   6.516  15.712   2.455 -0.0619 -0.1188 -0.3078
 1528W        W17602  11.192  12.540   0.436  0.0095 -0.0936 -0.2301
 1529W        W17603  14.337  14.694  13.040 -0.3105 -0.0839  0.0952
 1530W        W17604   1.235  10.492   5.138  0.0865  0.0470 -0.2151
 1531W        W17605  10.001  16.751  11.924 -0.1757  0.0221  0.0932
 1532W        W17606   9.968   9.700  15.528  0.0442  0.0359 -0.0935
 1533W        W17607   8.190  17.407  14.630 -0.2040 -0.1509 -0.0982
 1534W        W17608   5.814  10.078  10.847 -0.3198  0.2624  0.0258
 1535W        W17609  12.302   0.465  16.376  0.0923  0.1209  0.0869
 1536W        W17610   1.212   9.671   3.630 -0.2575 -0.1097  0.0921
 1537W        W17611  10.178   9.249  13.135 -0.0009 -0.2516 -0.0431
 1538W        W17612  15.369   9.806   4.359  0.0873 -0.2713  0.0524
 1539W        W17613  17.417  10.623  12.659  0.0584  0.2107 -0.0030
 1540W        W17614  12.179  12.259  12.087 -0.0487 -0.0571 -0.2607
 1541W        W17615  10.814   9.242   0.885  0.0096  0.0810  0.1405
 1542W        W17616  18.165  14.816   5.620 -0.2513  0.3963  0.1170
 1543W        W17617   0.520   1.317  14.066  0.0883  0.0344 -0.1173
 1544W        W17618  14.967   9.602   5.739 -0.2456 -0.0807 -0.1442
 1545W        W17619  13.710  13.797   3.797 -0.3387 -0.0394  0.1260
 1546W        W17620   1.966  12.926  16.080  0.1646 -0.1944 -0.0740
 1547W        W17621  13.270  12.022  16.072 -0.0596 -0.3188 -0.1951
 1548W        W17622   3.069  17.732   4.528 -0.0737 -0.0063  0.1390
 1549W        W17623   6.560  12.887  14.098 -0.0478 -0.2306  0.2228
 1550W        W17624   1.267   0.874  15.588 -0.1607  0.1354  0.2354
 1551W        W17625   0.796   5.245  15.817  0.0047 -0.0823  0.1432
 1552W        W17626   3.232  10.823  14.614 -0.0479 -0.0758  0.2863
 1553W        W17627  13.893  10.655  12.327  0.2105  0.0249  0.4359
 1554W        W17628  11.455  11.782  14.586 -0.1862 -0.0886  0.2029
 1555W        W17629   0.556   8.747  14.173 -0.0349  0.2204  0.1793
 1556W        W17630  17.598  13.934   4.577  0.0689  0.0601 -0.2168
 1557W        W17631   1.810   5.915   4.165  0.0294 -0.1887  0.0499
 1558W        W17632  11.926   2.863  15.831 -0.1515  0.0885 -0.1262
 1559W        W17633   8.851   2.333  14.576  0.0512 -0.0766  0.3622
 1560W        W17634   1.956  12.095   3.797  0.3860 -0.0530 -0.2138
 1561W        W17635  13.443   0.738   5.059 -0.2278  0.0595 -0.2024
 1562W        W17636  15.302   3.660   2.757 -0.1444 -0.2635  0.3219
 1563W        W17637  11.983  11.466  11.954 -0.0530  0.0658  0.1274
 1564W        W17638  14.837   6.402   2.468  0.1509  0.0463 -0.0005
 1565W        W17639  17.931  14.866   1.326  0.0082 -0.3867  0.1566
 1566W        W17640  12.871  15.232  14.599 -0.1237  0.1189  0.1629
 1567W        W17641   9.210  12.332   5.353  0.1218 -0.1865  0.1337
 1568W        W17642  12.661  15.742  15.421  0.1399  0.0974  0.0062
 1569W        W17643   0.890   6.583  12.591  0.0238 -0.1928  0.0736
 1570W        W17644   9.517   8.713  14.090 -0.1677 -0.1250  0.1740
 1571W        W17645  12.229  17.635   4.653 -0.1359  0.0790  0.1562
 1572W        W17646   0.327   9.609   2.037  0.0790 -0.0045 -0.2829
 1573W        W17647   0.525   2.360   3.639 -0.1131  0.3717 -0.2438
 1574W        W17648  14.954   6.588  15.296  0.0258  0.0951  0.1181
 1575W        W17649  13.540   2.124   4.302 -0.0392 -0.1353  0.2079
 1576W        W17650   6.397  12.064  13.823  0.1436 -0.1000  0.0174
 1577W        W17651   3.977  12.466  12.572 -0.2771  0.0688 -0.3956
 1578W        W17652  16.119   5.262   4.355 -0.0398 -0.1248  0.1450
 1579W        W17653  15.398   6.590   3.874  0.0236  0.3715 -0.0140
 1580W        W17654  17.281   3.384   0.531  0.0340 -0.0707  0.0512
 1581W        W17655   9.136   3.260  13.757 -0.1016  0.3104 -0.0970
 1582W        W17656  16.631   1.333   2.463  0.2161 -0.2236 -0.2305
 1583W        W17657  11.726   5.821  12.590 -0.2802 -0.1072  0.1146
 1584W        W17658  15.484   2.460   3.036  0.0261 -0.1323 -0.1610
 1585W        W17659   2.003  13.903  13.455  0.3500  0.1096 -0.2407
 1586W        W17660  17.823   6.621   0.924  0.2144 -0.0122  0.1099
 1587W        W17661   9.942   4.294   5.271  0.1000 -0.4200  0.0466
 1588W        W17662  14.062   5.692  14.691  0.2734 -0.1136 -0.2016
 1589W        W17663   8.962  11.996   2.999 -0.0849  0.2002  0.0739
 1590W        W17664   4.454   2.962   5.461 -0.0429  0.1055  0.0011
 1591W        W17665   2.715  17.413  14.571  0.2275  0.3988 -0.1441
 1592W        W17666   4.951   7.479  12.850 -0.0976 -0.0070 -0.0009
 1593W        W17667  11.289   3.886  14.677  0.2158  0.2486 -0.1523
 1594W        W17668  11.674  10.879   2.488  0.0372 -0.1202  0.2886
 1595W        W17669   3.127   1.091   1.535  0.1021  0.1278  0.0456
 1596W        W17670   6.851   9.607   2.493  0.0347 -0.0601  0.1999
 1597W        W17671   5.744   0.009  15.843 -0.2244 -0.0472  0.2201
 1598W        W17672   3.378  17.113   2.750 -0.1073  0.1773 -0.1513
 1599W        W17673   4.712  15.336  12.652  0.2529  0.1959  0.0887
 1600W        W17674   1.492   7.018   3.182 -0.2708 -0.0952  0.0933
 1601W        W17675   2.426  16.345   2.395  0.0369  0.1515  0.1127
 1602W        W17676   3.847   1.777   2.620 -0.1179  0.0160  0.0834
 1603W        W17677   2.569   3.901  15.532  0.1794  0.2670 -0.2182
 1604W        W17678   1.461   3.092  12.390  0.5704  0.0205 -0.0828
 1605W        W17679   7.205   4.189  11.927 -0.0247 -0.0247 -0.0792
 1606W        W17680   9.013   7.177   0.187  0.0559  0.1087 -0.0737
 1607W        W17681   6.462   8.344  12.202 -0.1317 -0.0120  0.0845
 1608W        W17682   8.293  12.791  15.389  0.3907 -0.0297 -0.0015
 1609W        W17683   9.595   8.022  14.836  0.1403 -0.1537  0.2453
 1610W        W17684  16.429   0.689  11.172 -0.0424 -0.0241  0.2102
 1611W        W17685   3.539   2.465   3.233 -0.0417 -0.0708  0.1792
 1612W        W17686   7.444   0.495   1.844  0.0403 -0.1290 -0.1777
 1613W        W17687   8.046   9.734   4.096 -0.3307 -0.0042 -0.0508
 1614W        W17688  11.821  14.941   4.589  0.2172  0.0113  0.0224
 1615W        W17689   6.413   7.953  12.740  0.2117  0.3803 -0.2022
 1616W        W17690   1.503  18.187   3.055  0.2031  0.1613 -0.0259
 1617W        W17691  13.316  10.241  15.518  0.0827  0.0457  0.0172
 1618W        W17692   9.575   1.448  15.279  0.4647 -0.1905  0.1755
 1619W        W17693   3.627  10.339  13.298 -0.2402 -0.1572  0.3722
 1620W        W17694   2.516   6.491  16.406 -0.2660  0.2779 -0.2294
 1621W        W17695  17.087  16.635   4.367  0.0334 -0.1054  0.0269
 1622W        W17696   8.178  15.001  16.072 -0.3087 -0.1023 -0.4117
 1623W        W17697   3.276  14.045  14.810  0.0510  0.1746  0.1213
 1624W        W17698   9.918  15.842   3.269  0.1326 -0.5750  0.1180
 1625W        W17699   9.928   5.007  13.690  0.1757 -0.0604 -0.1363
 1626W        W17700   7.259   6.868   2.556 -0.3226  0.0650  0.1477
 1627W        W17701  16.525  12.889   2.002  0.0888  0.0357 -0.1037
 1628W        W17702  10.449  16.374  11.257  0.0528  0.0069 -0.0094
 1629W        W17703  14.016   2.168  11.837 -0.0335 -0.0270 -0.1866
 1630W        W17704   7.323   7.336   1.392 -0.0340 -0.0143 -0.0440
 1631W        W17705  10.649   0.172   0.991  0.2920 -0.0195  0.1436
 1632W        W17706   7.871   4.922   6.491 -0.0095 -0.0677  0.0609
 1633W        W17707  16.475   9.639  14.896 -0.0317  0.2414 -0.1082
 1634W        W17708  11.098   6.567  15.610 -0.0423 -0.0528  0.0951
 1635W        W17709   4.568  14.940  12.329  0.2635  0.1779  0.1865
 1636W        W17710   0.326  14.612   5.081  0.3262 -0.0354 -0.1597
 1637W        W17711  17.917   0.491  11.800 -0.3608  0.1370 -0.1173
 1638W        W17712  11.542   2.145   2.040  0.0164  0.0174  0.1447
 1639W        W17713   5.236   8.924   4.976  0.1293  0.1177  0.1217
 1640W        W17714  17.058   5.080   2.607  0.1133 -0.2420  0.1124
 1641W        W17715  18.162  12.166  11.728  0.2174 -0.2314  0.1844
 1642W        W17716   6.874   3.213  15.353 -0.0159  0.1297  0.1473
 1643W        W17717   1.188  17.689   1.514  0.0093 -0.0359  0.1698
 1644W        W17718  11.776  14.007   5.536 -0.2570  0.3229  0.1256
 1645W        W17719  12.068   2.868   3.514  0.1060 -0.2049  0.1098
 1646W        W17720  11.906   1.765  11.361  0.6371 -0.2577 -0.0672
 1647W        W17721  16.704  11.762   3.480  0.0719 -0.0616 -0.0755
 1648W        W17722  14.302  10.638  12.898  0.1943 -0.0086  0.2820
 1649W        W17723  11.257   2.255   2.448 -0.0921  0.1353 -0.0593
 1650W        W17724   3.442  10.473   2.324  0.0124  0.3353  0.0689
 1651W        W17725   6.481   9.827   2.290  0.0488 -0.1541  0.1705
 1652W        W17726   5.259  15.672  11.892 -0.2354  0.1125  0.3117
 1653W        W17727  14.885  17.987   2.237  0.0463 -0.0112 -0.1423
 1654W        W17728   7.453   4.834   6.090  0.1030  0.1578  0.1725
 1655W        W17729  15.095   1.320   0.855 -0.0247  0.1354 -0.2923
 1656W        W17730  14.649   0.460  10.419  0.1593 -0.4805 -0.3724
 1657W        W17731  10.542  16.742   5.699 -0.0600 -0.2134  0.1223
 1658W        W17732   1.094  16.137   1.747 -0.1581  0.0436  0.1329
 1659W        W17733   1.282   3.372   4.935 -0.3293 -0.3263 -0.0857
 1660W        W17734   6.669   7.720   0.878 -0.1676  0.2653 -0.0019
 1661W        W17735  13.654   4.329  14.258  0.0330  0.2283 -0.2137
 1662W        W17736   6.561  11.408  12.486  0.0483  0.2085 -0.1316
 1663W        W17737   9.437  10.349   0.819  0.1322 -0.0801 -0.2914
 1664W        W17738  13.143   9.326   1.163  0.0367  0.1338  0.0320
 1665W        W17739  10.341   3.564   2.773 -0.2445  0.2132  0.0714
 1666W        W17740  12.467  15.815  13.672 -0.0322 -0.1251  0.2610
 1667W        W17741  16.080   1.912  13.412 -0.3641  0.1112  0.0875
 1668W        W17742   7.333  17.134  14.328 -0.1415 -0.2604 -0.0386
 1669W        W17743   4.123  11.206   3.494  0.1000  0.1479  0.2588
 1670W        W17744   5.038  17.538   1.365 -0.0395  0.2047  0.1194
 1671W        W17745   1.599   6.873  12.294 -0.0043  0.1099  0.0315
 1672W        W17746   2.691  11.276  15.650 -0.0014  0.0679 -0.1657
 1673W        W17747  13.902  14.359  14.506 -0.0342  0.2282 -0.3670
 1674W        W17748   1.528   2.612   2.111 -0.1870  0.0484 -0.1262
 1675W        W17749  14.542   8.924   1.608 -0.0132 -0.1835 -0.0008
 1676W        W17750  14.394   9.303  13.475 -0.2582 -0.1904 -0.0287
 1677W        W17751  12.370  13.118   2.324 -0.2322  0.0375  0.0583
 1678W        W17752   2.724  16.039  14.598 -0.1608 -0.2428  0.0657
 1679W        W17753   7.813  10.610   4.621 -0.1493 -0.0999 -0.1957
 1680W        W17754  15.625  18.017  13.182  0.2940  0.0059 -0.0271
 1681W        W17755  17.715  18.128  12.878 -0.2624  0.3864 -0.3813
 1682W        W17756   4.896   8.926  14.177  0.0753 -0.4766 -0.0065
 1683W        W17757   9.097  12.615  15.999 -0.0287 -0.2558 -0.1279
 1684W        W17758   4.001   2.331   4.951  0.1575  0.1337  0.0715
 1685W        W17759   6.122   5.048   3.318  0.0745  0.0092  0.0848
 1686W        W17760   8.926  13.220   1.095 -0.3093  0.1744  0.1353
 1687W        W17761  12.853   4.545   3.816 -0.2093 -0.2400  0.3545
 1688W        W17762  15.631  12.894  16.013 -0.0184 -0.1371 -0.1857
 1689W        W17763   3.086  12.846   4.661 -0.0929  0.1629 -0.0562
 1690W        W17764   5.567   6.333  12.002 -0.1277 -0.0253 -0.2086
 1691W        W17765   6.738   1.791   3.897 -0.2548 -0.0094  0.0797
 1692W        W17766  10.432   9.462   2.039  0.0114  0.2854  0.1290
 1693W        W17767   9.926   4.915   5.027  0.0419 -0.0471 -0.1718
 1694W        W17768  10.941   2.554  14.372  0.0636  0.2940  0.1060
 1695W        W17769  10.343   0.920   1.041 -0.3139 -0.0532 -0.2571
 1696W        W17770  10.841  10.508   0.858  0.0084  0.2580  0.1941
 1697W        W17771   6.353  15.365   5.090  0.1120  0.3468  0.0243
 1698W        W17772  12.436  12.277   2.506  0.2890 -0.0010  0.4464
 1699W        W17773  10.986   1.958   0.043  0.1617  0.3980  0.0681
 1700W        W17774   6.079   7.353   5.661  0.2426 -0.0052  0.1038
 1701W        W17775   1.616  10.646   4.318 -0.0802  0.0551 -0.1058
 1702W        W17776   2.330  14.656   4.969 -0.2879  0.1393  0.1182
 1703W        W17777   7.122  14.439  16.003  0.2361 -0.0013  0.1730
 1704W        W17778  13.532   0.022  13.583 -0.0694  0.3158 -0.1392
 1705W        W17779  10.512   9.636  13.197  0.0204 -0.2221 -0.2459
 1706W        W17780   0.744   4.854  14.261  0.3288  0.2239  0.3042
 1707W        W17781   4.629   8.236   5.381  0.0141 -0.2521  0.1454
 1708W        W17782  10.754   2.226  12.548 -0.2038  0.0120  0.0442
 1709W        W17783   9.361   5.687   1.835  0.0212  0.0701 -0.0955
 1710W        W17784   6.450   6.866  13.606 -0.1372  0.4043  0.2386
 1711W        W17785  16.237  16.323   3.968  0.2987  0.0731 -0.2246
 1712W        W17786  13.555   8.983  13.711 -0.1734 -0.0996  0.0577
 1713W        W17787  13.589   6.626  13.409  0.1128  0.0147 -0.1669
 1714W        W17788  10.130   2.911   3.994 -0.0928  0.1019 -0.1014
 1715W        W17789  16.606  10.855   4.211 -0.1129 -0.1200  0.1491
 1716W        W17790   8.933   1.164   0.136  0.1192  0.0684  0.3390
 1717W        W17791  10.409  11.017  15.374  0.3168  0.1681  0.1100
 1718W        W17792   8.409   0.333   0.845 -0.0585 -0.1874 -0.0549
 1719W        W17793  16.731   8.020   1.077 -0.1338  0.2192 -0.1189
 1720W        W17794   1.795   1.743   6.026  0.0306  0.1665  0.0856
 1721W        W17795  11.886   5.442  14.002 -0.0040  0.3721 -0.2159
 1722W        W17796   3.161  15.805  14.556 -0.2101  0.0519 -0.0311
 1723W        W17797  17.602  16.168  15.009 -0.2310 -0.1416  0.0809
 1724W        W17798  16.471  10.417  14.525  0.0841 -0.0016 -0.0960
 1725W        W17799   1.850   1.517   5.019  0.3218  0.1826 -0.0083
 1726W        W17800   9.891  17.238   0.521 -0.1145  0.0446 -0.1666
 1727W        W17801   1.166  17.201  10.189 -0.1362 -0.0311 -0.0590
 1728W        W17802   1.269   6.510   2.830  0.0403  0.0129 -0.1283
 1729W        W17803  14.547  10.864  14.194  0.1963  0.0487 -0.0066
 1730W        W17804  13.646  12.981   4.654  0.0828 -0.1213  0.1705
 1731W        W17805   8.921   6.225   0.549  0.1338  0.1021  0.2350
 1732W        W17806   6.743  12.565  14.659 -0.1674 -0.0971 -0.0932
 1733W        W17807   1.611  10.399  15.665 -0.1350  0.1452 -0.0212
 1734W        W17808  12.359   4.014  16.124  0.1437  0.1444 -0.0106
 1735W        W17809  11.224  11.569  11.361 -0.0298  0.0782  0.2073
 1736W        W17810  16.063   6.474  14.547 -0.2362  0.1203 -0.2401
 1737W        W17811  11.899  12.475  13.718 -0.2981 -0.3078 -0.1147
 1738W        W17812  14.827   8.435   3.119  0.1340  0.2243  0.1527
 1739W        W17813  18.114   3.966  14.847  0.0010 -0.1277  0.1378
 1740W        W17814  10.061  17.106  14.765  0.2537  0.0673 -0.0911
 1741W        W17815   1.902   6.907   3.419  0.0989 -0.2057 -0.2535
 1742W        W17816   9.461  11.182   1.095  0.0751 -0.1650 -0.0103
 1743W        W17817  11.375   8.897   2.538 -0.1394 -0.2090  0.2095
 1744W        W17818   8.368  11.675   5.331 -0.0421 -0.4471  0.1181
 1745W        W17819   1.441  17.387  10.920 -0.0010  0.2369  0.0325
 1746W        W17820  11.472  18.004   4.576 -0.1438  0.2805  0.0565
 1747W        W17821  18.206  16.993   5.015  0.1542  0.2066  0.0597
 1748W        W17822  15.680   8.347   0.875 -0.3325  0.3198  0.1035
 1749W        W17823  11.223  11.529  14.940  0.0503 -0.2624 -0.0214
 1750W        W17824   9.680   8.944   4.292  0.0080  0.0116  0.1004
 1751W        W17825   7.356   0.306  12.023 -0.0334 -0.2100  0.0076
 1752W        W17826   1.878  11.460  14.682 -0.1759  0.0858 -0.1304
 1753W        W17827   4.710  14.405  14.664 -0.2557 -0.3227 -0.0512
 1754W        W17828   4.519   8.549  16.399 -0.0740  0.2064  0.1954
 1755W        W17829   2.110  12.813  12.921  0.2512  0.1487  0.0632
 1756W        W17830  11.257  16.739   3.632 -0.5518 -0.1072  0.0194
 1757W        W17831  17.166   1.447  11.387 -0.0695 -0.1092  0.0927
 1758W        W17832   5.464  17.075  11.312  0.1894  0.3471 -0.0087
 1759W        W17833   0.089   6.275  13.702 -0.0191 -0.0146 -0.1869
 1760W        W17834  14.831  12.452   5.533 -0.2346 -0.2692  0.0070
 1761W        W17835  17.192   2.956   9.325 -0.0222  0.3118  0.2486
 1762W        W17836   4.942   4.416   3.302 -0.0519 -0.4051  0.0378
 1763W        W17837  12.442  12.801   1.068  0.1441 -0.0545 -0.2381
 1764W        W17838   5.697   8.412  13.954 -0.0967 -0.1829  0.0272
 1765W        W17839  14.087  13.586   4.030 -0.5112  0.1065  0.1445
 1766W        W17840  14.923  17.067   0.757  0.0495  0.2254  0.1400
 1767W        W17841   9.338  12.468   1.671  0.0072  0.1452 -0.7982
 1768W        W17842   1.045   6.428   5.565  0.2786 -0.2592 -0.1196
 1769W        W17843   9.209   3.649   1.181  0.0472 -0.0851 -0.2316
 1770W        W17844   3.731  15.205  15.926  0.1959  0.1947 -0.0970
 1771W        W17845  17.593   0.794  12.580 -0.3012  0.0395  0.0851
 1772W        W17846   4.296   1.807   0.696  0.2776  0.1996 -0.1918
 1773W        W17847   5.095   8.628  16.203  0.0858 -0.0287  0.2228
 1774W        W17848   3.796  15.098   3.228  0.1569 -0.0929  0.3143
 1775W        W17849  11.379  12.958  16.279  0.0396  0.1290  0.1288
 1776W        W17850   9.277   1.868  12.257 -0.1526 -0.2204  0.0306
 1777W        W17851  17.004   2.599  14.970  0.2527 -0.0337  0.0291
 1778W        W17852  10.206   6.803   2.998 -0.1895 -0.1768  0.1667
 1779W        W17853   1.200  18.035  15.957  0.1780 -0.1578 -0.2102
 1780W        W17854   8.015  14.519   4.575  0.0427 -0.0146 -0.0319
 1781W        W17855   2.419   0.064   4.236  0.1075 -0.1536 -0.2274
 1782W        W17856   4.740   2.030   0.796 -0.2893  0.1676  0.1776
 1783W        W17857   9.642  10.190   3.756 -0.3511  0.2204 -0.1676
 1784W        W17858   8.221   8.778  14.907  0.3386 -0.0210  0.1803
 1785W        W17859  12.283   1.054   3.107 -0.0742 -0.1550 -0.1379
 1786W        W17860   6.830   6.587   2.351 -0.2612 -0.3548  0.1175
 1787W        W17861   4.492   6.163  15.825  0.2147 -0.0118 -0.0762
 1788W        W17862  12.303   6.027   2.717  0.4130  0.0065  0.0075
 1789W        W17863  16.960  16.892  12.990  0.0692  0.1133  0.2482
 1790W        W17864   6.919   7.592   5.803  0.0142  0.0589  0.2397
 1791W        W17865  15.416   6.213   4.197  0.0287  0.0861  0.0032
 1792W        W17866   2.894   1.826   1.762 -0.0489  0.2535  0.1188
 1793W        W17867   3.070   3.239  14.104  0.3223 -0.0029 -0.0210
 1794W        W17868  16.970   9.334   1.642  0.1562 -0.1587  0.2661
 1795W        W17869   5.598  13.964   2.242  0.2729 -0.0788  0.1005
 1796W        W17870   9.131   3.823   5.756  0.1470  0.0847  0.2360
 1797W        W17871   2.944   3.596   4.143 -0.1942  0.3129  0.4215
 1798W        W17872   0.866   3.418  13.728 -0.0855 -0.0363 -0.0094
 1799W        W17873  16.829   1.513   1.613  0.1153 -0.3797 -0.2862
 1800W        W17874   8.839  15.017   4.002 -0.0937 -0.0351  0.0852
 1801W        W17875   3.905   5.085  15.166  0.0647  0.0294  0.0747
 1802W        W17876  16.940   7.686   0.244  0.0835 -0.0417 -0.2450
 1803W        W17877   8.181   4.574  15.854  0.2056 -0.3556  0.2118
 1804W        W17878  17.625  10.916   3.870 -0.0403 -0.1697 -0.2971
 1805W        W17879   6.948   1.037   2.817  0.0368 -0.1159 -0.3811
 1806W        W17880   6.532   4.601   4.791 -0.2426 -0.1729 -0.1096
 1807W        W17881   6.197   8.494  14.009 -0.0798  0.1635  0.1096
 1808W        W17882  13.398  13.724  12.648 -0.0658 -0.1353 -0.3444
 1809W        W17883  17.616  15.780   3.502 -0.1454 -0.0422 -0.0126
 1810W        W17884   4.078  11.755  15.296 -0.0678 -0.2845 -0.0967
 1811W        W17885  17.490   7.961   0.379 -0.0491  0.2642 -0.1825
 1812W        W17886   1.750  15.280  13.013  0.0521 -0.2185 -0.2242
 1813W        W17887   6.213   1.557  15.361 -0.3566 -0.0178  0.2433
 1814W        W17888   1.902  17.244   1.951 -0.2153 -0.3778  0.0830
 1815W        W17889   5.882  17.311   4.691 -0.3555  0.2154  0.0264
 1816W        W17890  12.082   1.491   3.829  0.2476 -0.0212  0.1252
 1817W        W17891  12.792  15.842  14.630 -0.0995 -0.0647 -0.1392
 1818W        W17892  15.664   4.496   0.050  0.0553 -0.1955 -0.0961
 1819W        W17893   5.602  17.444   3.101 -0.0584  0.2771  0.0536
 1820W        W17894   4.742   9.411  16.086 -0.0249  0.4759  0.0150
 1821W        W17895  13.912  11.433  13.981  0.2521  0.0372  0.0370
 1822W        W17896  11.051  17.584  14.072  0.2243 -0.2608  0.0389
 1823W        W17897   5.598   9.359  12.182 -0.3689  0.2566 -0.2837
 1824W        W17898   3.353  16.011  13.309 -0.0407 -0.1412 -0.2191
 1825W        W17899  10.135   2.035   2.678 -0.0048  0.0249  0.0559
 1826W        W17900   2.409   1.872   1.367  0.0342 -0.0460  0.2680
 1827W        W17901  17.079   4.790  15.866  0.0148 -0.0699  0.0031
 1828W        W17902  14.112  16.702  14.788  0.0262 -0.0867  0.0486
 1829W        W17903   9.219   1.941  14.470 -0.2513 -0.1477  0.2570
 1830W        W17904   0.669   3.080  13.360 -0.2218 -0.0980  0.1134
 1831W        W17905  14.733   2.033  11.065  0.0544  0.1352 -0.0939
 1832W        W17906   1.669  12.133   0.087 -0.0877  0.1106  0.0676
 1833W        W17907  10.379  15.548   0.521  0.2207 -0.2030 -0.0418
 1834W        W17908   2.972  12.353   0.481  0.2655 -0.2056 -0.2211
 1835W        W17909   5.900   8.556   1.319  0.0721  0.0409  0.0355
 1836W        W17910  16.381  14.379  11.116  0.3275  0.3298  0.0102
 1837W        W17911  15.250  10.416  14.438  0.2554 -0.2026  0.1558
 1838W        W17912  15.510   4.011   0.612  0.0830 -0.2392 -0.0911
 1839W        W17913  11.549   2.898   5.114 -0.1303  0.1368 -0.1425
 1840W        W17914  12.827  14.781  12.534  0.0369  0.0512 -0.1459
 1841W        W17915   4.991  10.345  12.870 -0.0431  0.3354  0.0852
 1842W        W17916   0.658  17.348  15.230  0.0836 -0.1060  0.0663
 1843W        W17917   9.117  16.863  14.645  0.1647  0.0218 -0.1595
 1844W        W17918   3.105   9.647   2.354 -0.2700  0.0457  0.0877
 1845W        W17919   5.549  16.971  14.817  0.3734 -0.0809 -0.0772
 1846W        W17920  10.700  11.299   1.668 -0.1568  0.0618  0.0961
 1847W        W17921   7.852  10.780   3.379 -0.0728  0.1860  0.1088
 1848W        W17922   2.544   9.750  16.303  0.2548 -0.0547 -0.0151
 1849W        W17923   3.257  15.321  16.163  0.3076  0.0698  0.1015
 1850W        W17924   3.236   3.269   0.807 -0.0996 -0.1685  0.2622
 1851W        W17925  15.270  14.177   0.079 -0.0839  0.3541  0.2084
 1852W        W17926  14.756   2.610  14.996 -0.0759  0.0860 -0.1142
 1853W        W17927  13.197   2.995  11.156 -0.1830 -0.0202  0.3601
 1854W        W17928  15.729  18.140  11.517  0.2946  0.2032 -0.4203
 1855W        W17929   6.014   5.451  12.953  0.2646 -0.0910  0.1228
 1856W        W17930  14.829   0.664   5.489 -0.0163 -0.0067  0.0198
 1857W        W17931  13.253  14.592   0.335  0.1268  0.3211 -0.0820
 1858W        W17932  14.832  15.690  15.511  0.0692 -0.3209  0.0833
 1859W        W17933   8.493   9.260   0.192  0.0516  0.0409 -0.2384
 1860W        W17934  18.196   4.178  16.236 -0.1002  0.1420  0.1965
 1861W        W17935   4.812   5.287   3.390 -0.1935 -0.1098 -0.3927
 1862W        W17936   1.326  11.100   4.396  0.3419  0.0276  0.0893
 1863W        W17937   6.724  16.022  11.935  0.0593 -0.0000 -0.1158
 1864W        W17938   4.248  17.986  11.807  0.0093 -0.0951  0.2252
 1865W        W17939   4.573  12.837  16.218 -0.2214  0.0406 -0.2698
 1866W        W17940  16.651  14.511  14.993  0.0815  0.0714  0.1351
 1867W        W17941  17.066   0.878   0.393  0.2958 -0.1090  0.1390
 1868W        W17942   6.104   5.212   0.022 -0.1557  0.2050 -0.2767
 1869W        W17943   0.983   3.844  16.231  0.1532 -0.5853  0.1104
 1870W        W17944  15.812   4.589  12.212 -0.0779 -0.0163 -0.2772
 1871W        W17945  12.407   9.652  12.604 -0.1527  0.2041 -0.1869
 1872W        W17946   1.568  16.650  14.640  0.0032 -0.0628 -0.0453
 1873W        W17947   7.842  17.663  11.964 -0.0776 -0.1134  0.1386
 1874W        W17948  12.603  10.860   5.153 -0.0778 -0.0795  0.2916
 1875W        W17949  16.856  15.771   5.070  0.1017 -0.2850 -0.2467
 1876W        W17950  12.915   7.333   4.750  0.1521  0.1336  0.1129
 1877W        W17951   9.741  12.328   3.480  0.0288  0.0140  0.0418
 1878W        W17952   1.704   9.801  14.417 -0.4098  0.0276  0.2615
 1879W        W17953   0.757   4.736   5.020  0.1407  0.0647  0.0370
 1880W        W17954   8.791   8.795  11.942 -0.0206  0.0130  0.2534
 1881W        W17955   4.393  12.207   0.765  0.2029 -0.0618  0.0000
 1882W        W17956   4.740  10.026   2.078  0.3544 -0.1331 -0.1155
 1883W        W17957  12.500   4.489   5.074  0.0809  0.0404  0.2517
 1884W        W17958   7.401  17.954   1.138  0.1991  0.1220  0.1844
 1885W        W17959  17.244  15.304  10.991 -0.3420 -0.0647 -0.2235
 1886W        W17960  14.120  13.865   4.734  0.0233  0.1610 -0.3681
 1887W        W17961   6.154   4.404  15.562  0.1007  0.2444 -0.1545
 1888W        W17962   6.277   7.457  12.575 -0.1353 -0.0218  0.1750
 1889W        W17963  13.345   6.364  13.101  0.0377 -0.1398 -0.2224
 1890W        W17964  13.580  15.327   2.946  0.1064 -0.0404 -0.1635
 1891W        W17965   3.918  16.261   0.405  0.0861 -0.0719  0.0229
 1892W        W17966  14.186  13.980  15.187 -0.0068 -0.0391 -0.2084
 1893W        W17967  14.116  13.727   3.472  0.2701  0.0627  0.2920
 1894W        W17968  16.153  16.156   2.712  0.0433  0.1312 -0.0539
 1895W        W17969   8.056  11.929   0.073 -0.0739  0.0117 -0.0704
 1896W        W17970  16.152  11.844   2.569  0.4274  0.3313  0.2330
 1897W        W17971   3.201   5.335  11.595 -0.0081  0.2324 -0.0446
 1898W        W17972  13.238   7.886  13.436 -0.2973  0.2767  0.1927
 1899W        W17973  14.405   2.982  16.397  0.0604 -0.0773 -0.0148
 1900W        W17974   6.969  13.602  13.139  0.0663  0.1011 -0.1033
 1901W        W17975  15.870   1.027  13.480  0.3970 -0.0783 -0.1944
 1902W        W17976   0.463  17.378  16.041  0.1804  0.1264 -0.0250
 1903W        W17977  11.440  16.183  13.551  0.1143 -0.1133 -0.0153
 1904W        W17978  17.539  15.213  13.999 -0.0083 -0.0182 -0.0184
 1905W        W17979  17.966   6.836  13.572 -0.0501  0.1570 -0.0560
 1906W        W17980   5.174   1.294   1.410  0.0873 -0.2406 -0.3902
 1907W        W17981   7.406   9.608  12.912  0.3914  0.0317  0.0337
 1908W        W17982  12.597   7.921   5.819  0.0422  0.1995 -0.1323
 1909W        W17983  14.969  16.155   2.052  0.1683  0.1465 -0.1732
 1910W        W17984   6.600   4.249  14.738  0.0686 -0.4683  0.0855
 1911W        W17985   0.672  17.041  11.455  0.2292  0.0250 -0.0366
 1912W        W17986  16.513   2.627  11.763 -0.0592  0.0051  0.2040
 1913W        W17987   1.798   2.279  15.840 -0.1411 -0.0334  0.1290
 1914W        W17988   2.967   5.322   3.666  0.2259 -0.3278  0.2514
 1915W        W17989   5.592   9.729  13.644  0.1337  0.2560 -0.2843
 1916W        W17990  11.148   9.879  14.329 -0.1440  0.1010 -0.0819
 1917W        W17991  14.528   7.268   0.858 -0.1570 -0.1279  0.1401
 1918W        W17992   2.543  10.190  14.726 -0.1939  0.1831  0.2583
 1919W        W17993  15.880   7.759   1.771  0.0360  0.1476  0.3451
 1920W        W17994   8.077  17.044  11.694 -0.0966  0.0104  0.0202
 1921W        W17995  13.210   4.008   0.797  0.0780 -0.2040 -0.0041
 1922W        W17996   3.427  10.200   0.640  0.1020 -0.0998  0.0546
 1923W        W17997  15.988   6.852  16.339 -0.2476 -0.0618 -0.0675
 1924W        W17998   2.546   1.461  12.935  0.1893 -0.1110  0.1616
 1925W        W17999  16.899  12.555  12.383 -0.2437 -0.0147  0.3405
 1926W        W18000   9.682   6.340   1.671  0.0202 -0.1507  0.0989
 1927W        W18001  14.800   0.163   5.441 -0.0164 -0.0187 -0.1758
 1928W        W18002  13.522   0.045  15.628 -0.1213 -0.2137  0.0371
 1929W        W18003  13.862  14.838   5.927 -0.2018  0.2452  0.0721
 1930W        W18004  16.955   5.325  15.323  0.2606  0.2020  0.1706
 1931W        W18005   6.741   6.023   1.004  0.2667  0.1696  0.1449
 1932W        W18006   6.124  13.953  14.502  0.0872 -0.1580  0.1152
 1933W        W18007  10.862  11.443   0.059  0.1691 -0.1065  0.0909
 1934W        W18008   4.410  15.839   2.493  0.0650 -0.0646  0.2211
 1935W        W18009  13.336   6.536   3.642  0.3091  0.1719  0.0926
 1936W        W18010  14.743   5.525  13.974 -0.2194 -0.1688  0.1577
 1937W        W18011  11.902   5.801   5.014 -0.0141  0.4012 -0.2274
 1938W        W18012   5.347  16.567   1.458 -0.0988 -0.2656  0.0384
 1939W        W18013  11.225  14.025   3.662 -0.2420  0.1393 -0.2067
 1940W        W18014   2.819   4.992  12.263  0.5258 -0.2405  0.1757
 1941W        W18015   0.426   9.932   5.781 -0.0559  0.2819 -0.1154
 1942W        W18016  13.984   8.271  13.869  0.0408 -0.0482 -0.1352
 1943W        W18017   6.262  11.293  15.385 -0.1437 -0.2224 -0.2191
 1944W        W18018  10.625   5.976  13.911  0.2766  0.2301 -0.0563
 1945W        W18019   6.745   0.603   2.501 -0.1056  0.0999  0.0195
 1946W        W18020  16.244   0.827   2.399  0.2561 -0.0221 -0.0095
 1947W        W18021  10.132   5.545   2.900 -0.1736  0.1962  0.3629
 1948W        W18022  16.107   2.052  12.395  0.0275  0.1416  0.2050
 1949W        W18023  10.827  13.079  15.026  0.1111  0.0211 -0.2433
 1950W        W18024  15.452  13.829   2.884 -0.0338  0.2173  0.0385
 1951W        W18025  17.879   4.500  11.142  0.0808 -0.0308 -0.0072
 1952W        W18026   4.737  10.853  11.730  0.1503 -0.1107  0.1789
 1953W        W18027  14.611  17.979   5.654 -0.3323 -0.3383 -0.4527
 1954W        W18028   7.067   6.794   1.531  0.0396  0.0719  0.1830
 1955W        W18029  13.363   2.385  12.012  0.4469 -0.0711 -0.1187
 1956W        W18030  11.951  10.144   3.961 -0.4196 -0.0169 -0.2911
 1957W        W18031  10.014  12.221   5.860 -0.0281  0.0361  0.1386
 1958W        W18032  13.990  13.490  15.069 -0.2816  0.1190  0.2616
 1959W        W18033   6.084  12.614   4.368 -0.0125  0.1757 -0.0592
 1960W        W18034  11.403   8.984   5.230  0.0382 -0.0655  0.1548
 1961W        W18035  10.736   5.498  14.048  0.1339 -0.2224 -0.1131
 1962W        W18036  10.814  16.401   1.275  0.3191  0.0604 -0.2431
 1963W        W18037  14.056  16.837   3.918  0.3745  0.1062 -0.0383
 1964W        W18038   8.835  17.459  15.614  0.0575  0.0937 -0.0889
 1965W        W18039   8.770   2.446   5.116  0.0835 -0.1561  0.1832
 1966W        W18040   5.010  15.093   3.736 -0.0822 -0.0490  0.2773
 1967W        W18041   5.643   5.875   6.461 -0.1987  0.0766 -0.0260
 1968W        W18042   1.444  13.318   2.775  0.0697  0.4454  0.2166
 1969W        W18043   6.093   2.906   2.509 -0.1025  0.1655 -0.4700
 1970W        W18044  17.942  18.132  11.765  0.2162  0.0074 -0.0670
 1971W        W18045  10.975  13.074   2.535 -0.0755 -0.1204  0.0235
 1972W        W18046  15.760  17.425   2.975 -0.0289 -0.1703 -0.2762
 1973W        W18047   3.010  15.126   0.927 -0.0224  0.1967  0.0394
 1974W        W18048  11.364   9.249   1.053  0.0586 -0.0864 -0.0286
 1975W        W18049  14.499   7.951  11.565  0.4672 -0.0284 -0.2861
 1976W        W18050  11.544   0.367  14.655 -0.1357  0.1205  0.0592
 1977W        W18051   7.824   7.523   2.987 -0.1288  0.1644  0.0393
 1978W        W18052   2.002   6.605  15.376  0.1377  0.0313 -0.0136
 1979W        W18053   3.868   1.399   2.947 -0.1680 -0.1509 -0.0530
 1980W        W18054  13.918  17.486   1.269 -0.3665 -0.0160  0.1830
 1981W        W18055   2.860   6.921  11.529  0.2993  0.0252  0.1783
 1982W        W18056   1.467  11.255  13.157  0.2471  0.1483 -0.0412
 1983W        W18057   1.970   7.326   1.394  0.0462 -0.1207 -0.2382
 1984W        W18058   9.555   9.252   5.824  0.2044  0.2869  0.0427
 1985W        W18059   2.519  15.076  15.204  0.2726 -0.3940 -0.0227
 1986W        W18060   8.850   4.289   2.405 -0.0485 -0.0183  0.0642
 1987W        W18061  13.732  15.557  15.068 -0.1702  0.1914  0.2103
 1988W        W18062   0.468   3.984   3.271 -0.2496  0.1196 -0.0265
 1989W        W18063  17.268  17.261  12.948  0.1556 -0.0468  0.4888
 1990W        W18064  14.246  10.879   4.231  0.1276 -0.0803  0.2689
 1991W        W18065   5.029   6.536   1.972 -0.1347 -0.1649  0.2051
 1992W        W18066   8.811   7.793   0.415 -0.3453 -0.2365 -0.1854
 1993W        W18067   4.393  11.643  14.872  0.0880  0.4543  0.0363
 1994W        W18068   9.617  11.299  12.511 -0.0977  0.1050 -0.0618
 1995W        W18069   5.898   7.874  15.230  0.0185  0.1653 -0.1927
 1996W        W18070   4.184   8.443  11.660 -0.0546  0.1576  0.0428
 1997W        W18071   4.022   6.003   2.810  0.0503  0.1345  0.0026
 1998W        W18072  17.221   7.896   2.496  0.3794 -0.2304  0.1399
 1999W        W18073   8.452   4.523  14.076  0.0978 -0.2872  0.0221
 2000W        W18074  13.350  17.257  13.544 -0.0307  0.0257  0.1837
 2001W        W18075   5.598   8.878   5.486  0.1851  0.2911  0.1465
 2002W        W18076  11.114   8.865   5.953 -0.4779  0.1426  0.1263
 2003W        W18077  17.450   9.536  13.527 -0.0407 -0.5823  0.1232
 2004W        W18078  12.369   8.480   3.537 -0.2198 -0.0814  0.0162
 2005W        W18079  14.748   9.665  13.609  0.2743 -0.0622  0.1403
 2006W        W18080  10.678  14.387  16.094 -0.1442 -0.0175 -0.0334
 2007W        W18081   7.960   8.939  13.132  0.3820  0.2402 -0.0779
 2008W        W18082  10.257  15.716  15.610 -0.0673 -0.5033 -0.0466
 2009W        W18083  11.036   9.264   4.883  0.4839  0.2143  0.0101
 2010W        W18084  14.293   5.511   5.328 -0.0962  0.0728 -0.2720
 2011W        W18085  13.208   6.043  14.547 -0.1345 -0.2094 -0.0512
 2012W        W18086   7.928   2.197   4.783  0.1679 -0.0300  0.0108
 2013W        W18087  15.350   6.630  12.434  0.0121 -0.4654 -0.0621
 2014W        W18088   8.973   3.348  14.261  0.2074 -0.1435 -0.1519
 2015W        W18089  11.464   3.255   4.046  0.1333  0.0961 -0.0215
 2016W        W18090   1.933   0.621  12.851 -0.1189  0.2393 -0.1642
 2017W        W18091  17.694  13.491  15.217  0.1919  0.0766  0.0071
 2018W        W18092   7.014   5.196   3.060 -0.1279  0.0924  0.1442
 2019W        W18093   8.318   2.111   1.184  0.2854 -0.0755 -0.0985
 2020W        W18094  14.009   9.026  13.464 -0.1232  0.1215  0.0740
 2021W        W18095  17.933   1.396  10.694 -0.2296 -0.3839  0.0276
 2022W        W18096   7.401   0.005  13.585 -0.0477  0.0763 -0.2835
 2023W        W18097   4.212   8.677  15.124  0.1462 -0.3841  0.1812
 2024W        W18098   6.054  10.516  10.835  0.3464 -0.1171  0.1604
 2025W        W18099   0.067   5.693   1.626 -0.0786 -0.0911  0.0841
 2026W        W18100   3.076   8.125  16.417 -0.2250 -0.2883  0.1239
 2027W        W18101  16.294   8.432  14.770 -0.2054  0.0194 -0.1196
 2028W        W18102   6.875   6.076  16.268 -0.3885  0.1412  0.0700
 2029W        W18103  17.198   5.504   5.144  0.1781 -0.1396  0.0560
 2030W        W18104   2.923  10.896  16.071  0.0174  0.0779 -0.2239
 2031W        W18105   6.839   3.672  15.699  0.1002  0.2931 -0.0431
 2032W        W18106   6.264   4.463  16.094 -0.0594 -0.1064 -0.0319
 2033W        W18107   3.264  18.065  12.428  0.0294 -0.3048  0.0960
 2034W        W18108   1.862   0.806  15.810  0.2794 -0.1695  0.0919
 2035W        W18109  14.597  11.196  13.518  0.0321  0.0690  0.0067
 2036W        W18110   4.917  16.636  12.178 -0.2145  0.1161 -0.3190
 2037W        W18111  14.476   6.426  13.579  0.0628 -0.1561  0.2817
 2038W        W18112   8.520   4.480   4.101 -0.1362  0.2708 -0.0910
 2039W        W18113  18.028   1.334   2.776  0.2667  0.1419  0.0894
 2040W        W18114  17.341   6.050   2.925 -0.2341 -0.4099  0.1852
 2041W        W18115  11.494   4.142   3.602 -0.1336  0.1221 -0.2128
 2042W        W18116   7.962   9.747  15.765 -0.4429 -0.0957 -0.1324
 2043W        W18117   5.021   7.499   4.625 -0.0271  0.0997  0.0459
 2044W        W18118   1.239   3.642  10.329 -0.0378  0.0175  0.3020
 2045W        W18119   8.819   2.646  12.567  0.5916 -0.1595 -0.0134
 2046W        W18120   1.307  11.607  12.270  0.3696 -0.0777  0.0741
 2047W        W18121   3.380  14.477  15.646 -0.0445  0.0390 -0.2402
 2048W        W18122   6.961   4.010  11.532  0.0483  0.0164 -0.4137
 2049W        W18123   6.049  18.170   3.630  0.2589  0.0418 -0.1289
 2050W        W18124   7.977  14.828  11.696 -0.0397  0.1210 -0.1152
 2051W        W18125   4.454  13.154  14.804  0.1222 -0.3782  0.2220
 2052W        W18126   0.209   5.634  14.409 -0.0009 -0.2496  0.2081
 2053W        W18127   9.963   5.838  16.524 -0.1175  0.1466 -0.3276
 2054W        W18128   1.772  17.634  14.455  0.2235 -0.0306  0.5034
 2055W        W18129   3.363  11.763   1.131 -0.0237  0.0020 -0.1040
 2056W        W18130  14.715  12.414  13.315  0.0267 -0.0681 -0.5178
 2057W        W18131   9.019  10.645  16.544 -0.1569 -0.2575  0.2379
 2058W        W18132   2.374  16.324  12.422  0.3023 -0.0568  0.0547
 2059W        W18133  12.410  15.310   0.077  0.1054  0.1687  0.3367
 2060W        W18134   1.811   5.009  12.342  0.0677  0.2388  0.2651
 2061W        W18135   9.298   6.216   0.886  0.0806  0.1700 -0.0160
 2062W        W18136   9.479  11.360  15.827 -0.2598 -0.0529  0.0722
 2063W        W18137   4.022   5.506   3.604 -0.2508 -0.2227  0.0191
 2064W        W18138  10.701  13.558   3.236 -0.1123 -0.1659 -0.2131
 2065W        W18139  13.628   8.403   2.429 -0.0644  0.2471  0.3876
 2066W        W18140   4.799  16.693   2.360 -0.1534  0.1348 -0.1826
 2067W        W18141   5.402   9.861   4.760  0.3004  0.0705 -0.3345
 2068W        W18142  10.411   0.205   4.854  0.2649 -0.0563  0.0004
 2069W        W18143  12.691  12.273  12.086  0.0918 -0.3163  0.0596
 2070W        W18144   6.219   7.838  12.300  0.0496 -0.0929 -0.0589
 2071W        W18145   5.198  12.493   1.688  0.0244 -0.3620  0.4189
 2072W        W18146  15.934  15.715   0.455  0.0625  0.2386 -0.0788
 2073W        W18147   6.606   1.906  12.093 -0.2321 -0.0387 -0.0947
 2074W        W18148   9.502  15.829   0.181 -0.0740 -0.2033 -0.3095
 2075W        W18149   0.211   8.728   1.240 -0.0352  0.0567 -0.1413
 2076W        W18150   5.785  10.550  16.059 -0.2049 -0.1360  0.2007
 2077W        W18151   4.494   3.846   4.381 -0.0800  0.1032  0.1745
 2078W        W18152  12.214   8.578   5.296 -0.0879 -0.1645 -0.1389
 2079W        W18153   9.847  10.891   3.112 -0.1315 -0.3229 -0.3664
 2080W        W18154   5.681  14.039  12.327  0.0128  0.0675  0.2377
 2081W        W18155  10.512   7.197  16.474 -0.1607  0.0241  0.0061
 2082W        W18156   4.434   4.568  16.313  0.2748  0.1799 -0.1246
 2083W        W18157  12.489  12.155  14.148  0.2892  0.2985 -0.1182
 2084W        W18158   9.838  17.977   1.066  0.0285  0.0144  0.1127
 2085W        W18159   1.141  17.723   5.379  0.0176  0.2874 -0.2918
 2086W        W18160   7.410   1.015  11.453  0.3226 -0.1219 -0.1909
 2087W        W18161  10.536   1.959   2.084 -0.1068  0.3404  0.0046
 2088W        W18162   4.493   4.144   3.620  0.3036 -0.1651  0.1962
 2089W        W18163   5.735  11.486   2.657  0.0203 -0.0351 -0.0612
 2090W        W18164  16.205   2.272  11.493 -0.0240  0.1238 -0.1193
 2091W        W18165   8.303  13.076  11.777 -0.0383 -0.0322  0.4393
 2092W        W18166   1.362   8.678   3.883  0.0399 -0.0770 -0.2124
 2093W        W18167   0.776   1.604   2.576  0.2008  0.1694 -0.0245
 2094W        W18168   5.200  12.993   1.552 -0.0207 -0.2330  0.2822
 2095W        W18169  15.933  13.008  15.572  0.0892 -0.0222 -0.1730
 2096W        W18170  12.080  16.095  11.786 -0.0829 -0.4294 -0.0377
 2097W        W18171   0.664  13.151  16.079  0.4532 -0.1568 -0.0785
 2098W        W18172  10.554   3.113   4.892  0.1528  0.0164 -0.1349
 2099W        W18173  17.926  12.959  11.630  0.2376 -0.1428 -0.1893
 2100W        W18174  10.308   9.286   1.295  0.0829  0.1500  0.2097
 2101W        W18175  18.206   7.408  14.941  0.0975  0.4109 -0.1871
 2102W        W18176   1.784   2.779  12.685  0.0510 -0.0118  0.0434
 2103W        W18177  10.310   3.150   0.826 -0.2318 -0.2519 -0.2104
 2104W        W18178   8.248   4.963   5.714  0.0702  0.0542  0.1335
 2105W        W18179  15.136   8.973  16.211  0.2274  0.1782  0.0336
 2106W        W18180  10.250  15.619  13.497 -0.0337  0.0470 -0.0966
 2107W        W18181   0.659   9.917   1.732  0.2790 -0.3515 -0.3075
 2108W        W18182  12.137  14.925   2.613  0.0179 -0.2344  0.3000
 2109W        W18183  10.211  10.759   4.487  0.1598 -0.2584  0.1358
 2110W        W18184  11.484  13.495  12.840 -0.1217 -0.1137 -0.2147
 2111W        W18185  13.969   3.521   0.173  0.0771 -0.1693  0.1985
 2112W        W18186   2.798  10.521  11.676  0.1035 -0.1773 -0.2573
 2113W        W18187   1.932  10.162  12.545  0.1984 -0.0298 -0.1208
 2114W        W18188  12.501   5.232  15.539 -0.1364  0.0873  0.1047
 2115W        W18189   9.956   9.462  13.510  0.0929 -0.1225  0.3124
 2116W        W18190   1.785   7.795   1.982  0.2043  0.0428 -0.3762
 2117W        W18191   6.648  10.328   2.954 -0.0381  0.0837  0.1113
 2118W        W18192   1.808   4.198  15.758  0.1871  0.1013 -0.2301
 2119W        W18193  15.997  12.491  13.993 -0.3504 -0.0438 -0.0349
 2120W        W18194  12.468  16.469  14.716 -0.0805  0.1189  0.0284
 2121W        W18195   2.575   9.925  14.281 -0.1744  0.2095  0.0154
 2122W        W18196  11.093   8.984  10.723 -0.3468  0.1476 -0.0302
 2123W        W18197  12.702   9.600   0.902 -0.1852 -0.3071  0.2631
 2124W        W18198   3.708   4.108   4.246  0.1338  0.1597 -0.1719
 2125W        W18199  17.954  12.402   1.759 -0.1078  0.1088  0.0485
 2126W        W18200   8.437  13.650  12.950 -0.2163 -0.1278  0.2450
 2127W        W18201  18.023   6.854   0.573 -0.0397 -0.0289  0.0202
 2128W        W18202   3.686   1.307   1.424  0.1384 -0.0852 -0.0077
 2129W        W18203   6.079  12.693  15.442  0.1643 -0.0199  0.0771
 2130W        W18204   0.395   7.908   0.384 -0.1416 -0.1415 -0.0704
 2131W        W18205   8.028  15.830  12.727  0.1087  0.0300 -0.1048
 2132W        W18206   5.059  17.794  11.615  0.1434 -0.0708  0.0920
 2133W        W18207   2.793   0.436  15.138 -0.2197 -0.0963 -0.2911
 2134W        W18208   1.057   6.805  14.087 -0.1643 -0.2174 -0.1942
 2135W        W18209  12.417  16.681   4.061  0.1253 -0.1627 -0.2122
 2136W        W18210  13.303   4.385  15.547 -0.1013 -0.2471 -0.0858
 2137W        W18211   9.186   5.353  13.304  0.2346 -0.0323 -0.6607
 2138W        W18212  17.685  11.078   0.935  0.1449 -0.3688  0.0567
 2139W        W18213   4.252   8.437  13.861 -0.1528 -0.1255 -0.3664
 2140W        W18214   0.563   9.414  15.092  0.1189 -0.0134 -0.1219
 2141W        W18215   7.815  12.287   2.837 -0.1318 -0.2467  0.1585
 2142W        W18216   5.394  16.324   5.497 -0.0496  0.2596 -0.2587
 2143W        W18217   7.117  17.206  15.539  0.0218  0.0108  0.2443
 2144W        W18218   5.870  16.676   1.497  0.2791 -0.1197 -0.0801
 2145W        W18219   9.521  11.007  15.162 -0.1160 -0.2150 -0.1282
 2146W        W18220   6.706   0.026  13.699 -0.1728  0.1126  0.2326
 2147W        W18221  12.011  13.280   0.255 -0.1016 -0.0870  0.0572
 2148W        W18222  10.322   3.663  14.357  0.2919 -0.1300 -0.0161
 2149W        W18223   9.458  12.229  16.229  0.1142 -0.0004  0.1197
 2150W        W18224   4.669   0.047  11.347 -0.0882  0.0076 -0.0940
 2151W        W18225   6.528   7.435  14.229 -0.1624  0.1271 -0.0737
 2152W        W18226   8.716  17.692   1.279  0.0595 -0.0151 -0.0995
 2153W        W18227  12.577  14.907   3.131 -0.1376 -0.0098 -0.1688
 2154W        W18228  12.606  10.528   5.523  0.0493 -0.0657  0.1416
 2155W        W18229   2.814   1.720   4.954  0.2035  0.3114 -0.1954
 2156W        W18230   7.351  10.245  15.096  0.0104  0.2906 -0.4934
 2157W        W18231  17.557   7.222   4.021 -0.0947  0.1018  0.1088
 2158W        W18232   4.642   6.237  16.322  0.0210  0.3806  0.1469
 2159W        W18233   3.941  17.601  11.588  0.2876 -0.2682 -0.0383
 2160W        W18234   0.241   7.834   2.543  0.0159 -0.2746  0.0896
 2161W        W18235   1.998   4.965   1.484  0.1051  0.2577  0.1266
 2162W        W18236  18.178   4.170  10.863  0.0122 -0.2497 -0.0463
 2163W        W18237   7.811  10.946   5.076  0.1702  0.2461  0.1733
 2164W        W18238  12.669  14.808  14.897  0.0521  0.1986 -0.2755
 2165W        W18239   9.592   1.965  12.750 -0.0198 -0.0098 -0.0022
 2166W        W18240   9.404   1.550  14.096 -0.1860  0.3411 -0.0672
 2167W        W18241   3.536   9.580  12.564  0.0651 -0.0164 -0.0489
 2168W        W18242   4.903  11.276   4.635 -0.1984  0.1075  0.1988
 2169W        W18243  14.466   4.168   4.924  0.1064  0.0154 -0.0369
 2170W        W18244   4.595  17.112   3.316  0.0084  0.1448 -0.1842
 2171W        W18245   2.243   7.985  14.383  0.0302 -0.3711 -0.0955
 2172W        W18246   1.014  15.167   4.091  0.3530  0.1423 -0.3231
 2173W        W18247   4.391   9.129   4.104  0.2844  0.0717 -0.1537
 2174W        W18248  13.375  15.122   1.335 -0.1016  0.1821 -0.1358
 2175W        W18249   5.007  10.025  14.203 -0.0850  0.1622  0.1161
 2176W        W18250   6.650   1.176  13.552 -0.0607 -0.6511  0.0785
 2177W        W18251  14.738   1.404   1.986 -0.0533 -0.1688 -0.0863
 2178W        W18252  15.942  14.500   1.099 -0.1789 -0.2681 -0.0671
 2179W        W18253   1.353   6.433   1.108 -0.1364  0.0654 -0.0771
 2180W        W18254  13.727   3.833   0.774 -0.1253  0.0237  0.1932
 2181W        W18255   6.850  16.583   1.588 -0.0565  0.1467  0.1140
 2182W        W18256  11.959   0.616   5.429 -0.2895  0.2229  0.3124
 2183W        W18257  15.675   1.964  16.097  0.0642 -0.0134  0.0525
 2184W        W18258  10.451   3.049  15.526 -0.2459  0.0486  0.0710
 2185W        W18259   4.782  12.882  14.543  0.0214 -0.2867  0.0014
 2186W        W18260   0.720  17.372   2.303  0.2620 -0.2286 -0.1733
 2187W        W18261  11.032   4.386  11.789 -0.1284  0.1276  0.2174
 2188W        W18262  17.646   9.266   3.084  0.1416 -0.3391  0.1043
 2189W        W18263  17.777  14.271  15.602  0.2376  0.3941 -0.3382
 2190W        W18264  11.621   7.226   1.908 -0.1661  0.1063 -0.3501
 2191W        W18265   8.794  10.747   3.668  0.0108  0.4827  0.3412
 2192W        W18266   3.721   3.043   0.769 -0.0275 -0.1682 -0.0245
 2193W        W18267   1.692  14.334   3.448 -0.0405  0.2519 -0.1520
 2194W        W18268   7.173  11.345  15.079  0.1360  0.0133  0.0454
 2195W        W18269  15.350  11.465  13.150  0.3562 -0.3363 -0.0507
 2196W        W18270   6.954   4.700   2.919 -0.0851 -0.1518  0.1876
 2197W        W18271   5.881   9.143   6.046 -0.0318  0.1774  0.3530
 2198W        W18272  15.873   3.096   5.229  0.0503 -0.0666  0.0421
 2199W        W18273   5.771  16.841  12.703 -0.1027 -0.2133  0.3126
 2200W        W18274   8.827  15.515  13.172 -0.0720  0.3125  0.0351
 2201W        W18275   9.613   3.971  12.626  0.1387 -0.1178 -0.2653
 2202W        W18276   0.812  11.105   3.623 -0.2645 -0.0809 -0.1764
 2203W        W18277  14.601   0.413   5.027  0.0335 -0.0154  0.2494
 2204W        W18278   5.608  13.046  16.277 -0.0433 -0.1149  0.1909
 2205W        W18279  15.688   5.764  13.315  0.3044 -0.2373  0.1044
 2206W        W18280  13.354  13.515   3.525 -0.2360  0.1990 -0.2934
 2207W        W18281  17.596   1.795   4.716 -0.0456 -0.1907  0.0008
 2208W        W18282  12.416   0.103   3.595 -0.1007  0.0113  0.0054
 2209W        W18283  12.117   3.567  16.500 -0.1433 -0.0125 -0.0530
 2210W        W18284   9.733   6.221   0.602 -0.2724  0.2989 -0.1625
 2211W        W18285  15.915  16.707  12.764  0.1584  0.2585 -0.1361
 2212W        W18286   5.781   2.342  12.708  0.0230 -0.1432  0.0896
 2213W        W18287   2.243   7.164   4.156 -0.1975 -0.0384 -0.0424
 2214W        W18288  13.922  14.883  14.817  0.0823  0.2767  0.2096
 2215W        W18289   4.075  14.254  11.723  0.1895  0.3379 -0.0609
 2216W        W18290   5.550   6.403  11.453  0.1363  0.0271 -0.1939
 2217W        W18291   6.884  11.050   5.036 -0.1226 -0.1154 -0.1974
 2218W        W18292  13.519  16.425   5.042  0.0462  0.1306  0.0682
 2219W        W18293  16.752  15.824   2.168  0.1245  0.0597 -0.1544
 2220W        W18294  10.966   9.274   2.817  0.0739  0.1867 -0.1491
 2221W        W18295   9.458  17.397  11.310 -0.1918 -0.1503 -0.0259
 2222W        W18296   6.694  16.178  15.475 -0.1158 -0.2534  0.0601
 2223W        W18297  17.431  14.569  12.723  0.1987  0.3670  0.1311
 2224W        W18298   8.463   4.921   3.884 -0.1150 -0.1819 -0.0942
 2225W        W18299  15.782   5.762   3.680  0.0765 -0.1896 -0.0893
 2226W        W18300   0.191   6.565  11.977  0.0611 -0.0214 -0.0019
 2227W        W18301  15.541   4.784   5.841 -0.1764 -0.1455 -0.0696
 2228W        W18302  12.641   1.648   4.448 -0.1681 -0.0834 -0.0449
 2229W        W18303   9.225  14.071   0.578  0.1951  0.3434  0.1327
 2230W        W18304  14.324   5.538  13.506 -0.1099 -0.0710  0.2246
 2231W        W18305   5.860   8.128   6.066  0.0236 -0.0509 -0.0037
 2232W        W18306  11.862   5.619  13.027  0.0696 -0.1840  0.1675
 2233W        W18307  15.758  16.827  10.274  0.1424  0.1651 -0.0399
 2234W        W18308   9.663   4.652  12.760  0.2752 -0.0534  0.0688
 2235W        W18309  14.964  10.530   5.134 -0.2482  0.1142 -0.2824
 2236W        W18310   8.691   8.503   1.553  0.1721  0.0118  0.2526
 2237W        W18311  13.501  14.810   3.353  0.1328 -0.2275  0.4659
 2238W        W18312  15.384  12.989   5.884 -0.0938  0.0264 -0.0718
 2239W        W18313   8.183   9.417   2.843  0.3781  0.2367  0.1634
 2240W        W18314   4.186  13.324   2.482 -0.1568  0.2070  0.1112
 2241W        W18315   7.204  12.528  14.778  0.1112  0.1717  0.3862
 2242W        W18316   9.752   3.811   0.483 -0.1276 -0.2706  0.0792
 2243W        W18317   4.915   4.295  12.340 -0.3169  0.0248 -0.1700
 2244W        W18318   4.309  14.523   3.524  0.4069  0.0253 -0.0143
 2245W        W18319   7.615   5.722  13.030  0.0798  0.1283 -0.1091
 2246W        W18320   3.693   2.562   0.044  0.4980  0.1574 -0.1719
 2247W        W18321   2.468  16.284   0.483  0.4303 -0.1993 -0.1925
 2248W        W18322  17.247   6.526   4.230  0.0147  0.2376  0.1117
 2249W        W18323  17.236  10.242  14.984 -0.0465 -0.1216  0.1961
 2250W        W18324   2.411   3.484  12.292  0.5022  0.0135 -0.1301
 2251W        W18325  14.625   9.813  15.984 -0.3607 -0.1823 -0.2363
 2252W        W18326  11.653  10.906  13.927  0.0519  0.1668  0.3149
 2253W        W18327   8.795   7.615   5.635  0.2122  0.0921 -0.2383
 2254W        W18328   9.357  16.284  16.437 -0.3718  0.2731 -0.0912
 2255W        W18329  13.887   7.057  14.806  0.0739 -0.1773 -0.0347
 2256W        W18330  12.294   0.362   6.188 -0.1641 -0.0568  0.0588
 2257W        W18331  17.912  10.719  16.347  0.1676 -0.2426  0.2410
 2258W        W18332   3.899  11.613   3.360 -0.1345 -0.2240 -0.2806
 2259W        W18333  13.168   0.166   0.606  0.3030  0.1802 -0.0732
 2260W        W18334   5.076  12.833   4.441 -0.0757 -0.0276  0.4025
 2261W        W18335   3.492   1.594   4.357  0.0032 -0.0736  0.1953
 2262W        W18336   3.732   0.482  15.454 -0.1414  0.2777 -0.1583
 2263W        W18337  15.326  14.122  14.771  0.0680  0.1062 -0.0919
 2264W        W18338  16.244   7.708   0.226  0.0081 -0.1962 -0.2454
 2265W        W18339   1.274  14.572  12.308 -0.2849  0.2206 -0.1026
 2266W        W18340  11.057   3.020   5.137 -0.0539 -0.1084  0.2804
 2267W        W18341  13.869   7.467  12.035  0.0687 -0.1422  0.3143
 2268W        W18342   1.327  17.795   2.784 -0.1023  0.0073  0.1595
 2269W        W18343  13.397  18.139   1.815 -0.1541 -0.1307 -0.0875
 2270W        W18344   5.547  18.173  13.592 -0.1571 -0.1345  0.2302
 2271W        W18345   7.429   4.335   5.718 -0.1210  0.1707 -0.0816
 2272W        W18346  15.820   9.168   2.914 -0.1394 -0.0338 -0.1002
 2273W        W18347  13.406   0.306   5.395 -0.1120 -0.0121 -0.0646
 2274W        W18348   5.498  16.698   5.854 -0.1719  0.1159  0.2334
 2275W        W18349  16.505   6.063   1.921  0.0420  0.0976 -0.2034
 2276W        W18350  14.492  14.659   4.573 -0.2184  0.1079  0.0759
 2277W        W18351   7.221  16.566  13.557 -0.0436 -0.2080  0.1905
 2278W        W18352  10.836  10.067   0.671  0.0206 -0.1366 -0.3425
 2279W        W18353  17.356   5.846  14.485 -0.0234 -0.1594  0.0736
 2280W        W18354  13.040   2.023  12.029  0.1490  0.2247  0.0266
 2281W        W18355  14.037  12.684   5.437  0.1291  0.0588 -0.1086
 2282W        W18356   7.478   3.732  14.184  0.3877  0.0353  0.1485
 2283W        W18357  14.518   8.094  13.935 -0.0577  0.2588  0.0698
 2284W        W18358   9.655  16.064   2.905 -0.2380 -0.1433  0.1354
 2285W        W18359   5.022   7.907   1.648  0.0589 -0.2404 -0.3870
 2286W        W18360   7.136  13.182  14.535 -0.4204  0.0510  0.0493
 2287W        W18361  12.444  17.914  12.406 -0.0781  0.0702  0.1695
 2288W        W18362  15.283   8.339   4.052  0.2903 -0.0331 -0.0865
 2289W        W18363   4.217   8.928  16.380  0.0523 -0.0937  0.1492
 2290W        W18364   8.500  10.844   4.093 -0.0499 -0.0123 -0.1860
 2291W        W18365   7.160  16.191   0.325  0.0992  0.4140 -0.1334
 2292W        W18366   9.654  15.017  13.122 -0.0994 -0.3051 -0.1899
 2293W        W18367  16.553   7.601  13.313  0.0011  0.3670 -0.0889
 2294W        W18368   0.692  12.069   4.037  0.0867  0.0246 -0.0152
 2295W        W18369  12.551  14.860  13.936  0.0928 -0.2195  0.2195
 2296W        W18370  15.465   7.515  15.969 -0.1604  0.1402 -0.0391
 2297W        W18371  17.542  17.808  10.784 -0.1046  0.1470  0.2835
 2298W        W18372   0.504   9.924  15.343  0.1456  0.2516 -0.1457
 2299W        W18373   2.662  18.045  12.905  0.0479 -0.1760 -0.1749
 2300W        W18374  14.160   3.200  14.034 -0.1492 -0.0510 -0.2821
 2301W        W18375   8.619   6.764  12.928 -0.0142  0.1807 -0.0841
 2302W        W18376   6.363  11.841   5.541  0.0202  0.2535 -0.4463
 2303W        W18377   6.094   7.832   3.738 -0.3333  0.2341  0.1806
 2304W        W18378  13.038  14.388  15.086  0.4624 -0.3231 -0.0713
 2305W        W18379   6.278   7.019   3.623 -0.0052  0.0583 -0.3059
 2306W        W18380   7.928  12.019  15.004  0.2764 -0.1573  0.0401
 2307W        W18381  16.675  12.585  13.193 -0.0496  0.3171  0.1457
 2308W        W18382   0.923   0.712  12.961 -0.0989  0.0264  0.2834
 2309W        W18383   1.405  17.236   4.715  0.5073 -0.0904  0.2279
 2310W        W18384  12.530  10.306   2.839  0.1186 -0.1684  0.0580
 2311W        W18385  15.031  10.557   5.661 -0.2566  0.0146  0.0647
 2312W        W18386   3.263   5.076  16.227 -0.1109 -0.3080  0.1188
 2313W        W18387   4.959  13.245   3.640 -0.1336 -0.2714 -0.2439
 2314W        W18388  11.922   4.241   3.237 -0.6146 -0.3238  0.0403
 2315W        W18389  11.073  13.192   5.457  0.0861  0.1966 -0.2048
 2316W        W18390  13.030  17.951   0.744  0.3786 -0.2005 -0.0891
 2317W        W18391   3.159  12.317   5.422  0.1035 -0.3090  0.1250
 2318W        W18392  16.208   8.135   0.925  0.0941 -0.0608  0.1850
 2319W        W18393   2.747  11.974  15.481  0.0429  0.1157 -0.0923
 2320W        W18394   8.018   9.297  15.158 -0.2874  0.0533  0.0892
 2321W        W18395  14.024   0.016  12.482  0.0370  0.2129 -0.1750
 2322W        W18396   0.875  10.503  16.071  0.1989 -0.2187  0.1127
 2323W        W18397   6.106  10.622   0.854 -0.1077 -0.1599 -0.1175
 2324W        W18398  13.865  13.935  14.803 -0.0346 -0.0900  0.0704
 2325W        W18399  11.384   5.861   4.726 -0.0314  0.0906  0.1287
 2326W        W18400   6.851   8.600   4.777 -0.1996 -0.2272 -0.2803
 2327W        W18401  12.175   9.014  13.440  0.2640  0.2567 -0.4629
 2328W        W18402   5.081  18.185   2.465  0.0861 -0.4133  0.0032
 2329W        W18403  13.086   7.043  14.339 -0.1373  0.0892  0.1046
 2330W        W18404   4.329   8.429   1.702  0.1221  0.0793 -0.0310
 2331W        W18405  17.947   5.143   2.150  0.1532  0.3335  0.1120
 2332W        W18406  17.715  17.175   3.728  0.1708 -0.3206  0.1473
 2333W        W18407   1.990   3.544  11.956  0.1173 -0.2341  0.2205
 2334W        W18408   9.996  13.003  13.889  0.1460 -0.2888  0.1047
 2335W        W18409   5.194   5.443  15.749 -0.0869  0.0373  0.1923
 2336W        W18410  17.626  15.662  13.746 -0.0278 -0.1903  0.3609
 2337W        W18411   8.311  18.215   4.024  0.1208 -0.0455  0.1956
 2338W        W18412   7.257  10.223   5.220 -0.0842  0.1005 -0.2969
 2339W        W18413  10.802   8.025   1.638  0.0209 -0.0707  0.0396
 2340W        W18414  17.193   0.430   2.451 -0.0116 -0.0428 -0.1694
 2341W        W18415   3.341   8.595  13.401 -0.1087 -0.0976  0.2574
 2342W        W18416   1.879  15.788  13.081  0.4915  0.3513  0.0125
 2343W        W18417   4.390  10.049   1.084  0.1369 -0.1917 -0.2410
 2344W        W18418  17.600  16.708  16.394 -0.2278 -0.1150  0.1844
 2345W        W18419  17.423   1.605  12.485 -0.0939  0.1419  0.0593
 2346W        W18420  14.585   3.635  13.870 -0.1853  0.1201  0.2150
 2347W        W18421  10.299   1.296  13.880  0.2533  0.1170 -0.2587
 2348W        W18422  10.058   3.712   3.252 -0.1037 -0.0528  0.1743
 2349W        W18423   1.078   3.574   1.120 -0.3133 -0.1281  0.1461
 2350W        W18424   5.742   8.325   5.646  0.3279 -0.0463 -0.1958
 2351W        W18425   4.407   2.012  15.233 -0.2156  0.1063  0.1610
 2352W        W18426   2.813  14.105  11.624  0.1735 -0.1642 -0.2284
 2353W        W18427  10.534   4.992  15.913  0.2134  0.1796  0.2403
 2354W        W18428  17.734   2.869  12.231 -0.0392 -0.1340  0.0679
 2355W        W18429   0.436   4.795   5.472  0.2715 -0.1152 -0.0841
 2356W        W18430   9.859   8.504  16.083 -0.0231 -0.0049 -0.1007
 2357W        W18431  12.264   7.191  15.478  0.3652 -0.2230  0.1863
 2358W        W18432   7.176   8.558   5.762  0.2361  0.2258  0.1917
 2359W        W18433  17.025   4.339   1.456  0.0381  0.4477 -0.3207
 2360W        W18434   3.174   0.881  12.414  0.1584  0.2127 -0.2575
 2361W        W18435   9.307  18.126   3.599  0.0495  0.2224 -0.1331
 2362W        W18436  11.995   8.473  14.309  0.1964 -0.1516  0.1164
 2363W        W18437   6.066  12.891   0.600  0.1400  0.3103  0.0156
 2364W        W18438  15.585  10.493   2.685  0.0128  0.0769 -0.0569
 2365W        W18439   6.893   9.356   3.782  0.0176 -0.0378 -0.3658
 2366W        W18440   5.117  14.059  12.562 -0.3872  0.0321  0.1338
 2367W        W18441  17.082   2.296   2.351  0.0358  0.2066  0.2457
 2368W        W18442   4.920  18.092  14.856  0.0459  0.0499 -0.1744
 2369W        W18443   7.159  16.561  16.479  0.0993 -0.3592  0.1711
 2370W        W18444  11.827   7.257   2.393  0.1454  0.0892  0.0269
 2371W        W18445   8.947  16.441   2.639 -0.2058  0.1604  0.0408
 2372W        W18446   0.058   2.498  15.400  0.0229 -0.2317 -0.0076
 2373W        W18447   9.222   4.413   3.542  0.3232 -0.0146  0.1405
 2374W        W18448  15.724  17.980  16.544 -0.1931  0.0779 -0.3155
 2375W        W18449   2.973   8.595   2.696  0.0111  0.1763  0.4567
 2376W        W18450   3.422  15.484   1.269  0.0901 -0.1195 -0.0578
 2377W        W18451   9.642   8.028  15.851 -0.1447 -0.3920  0.0654
 2378W        W18452   4.103   0.983   3.942 -0.1250  0.2054 -0.1012
 2379W        W18453   5.680   2.635  11.017 -0.1398  0.0459 -0.0127
 2380W        W18454  12.268  10.383   2.126  0.0439 -0.0282 -0.1956
 2381W        W18455  17.101   2.395  12.413  0.3460  0.4010  0.0195
 2382W        W18456  13.103  16.985   3.248  0.3453  0.1774 -0.3666
 2383W        W18457  15.796  13.879  13.999  0.1932  0.0273  0.1096
 2384W        W18458  12.047  18.194  12.627  0.1393  0.1104  0.0676
 2385W        W18459   4.571  16.527  11.887 -0.0620  0.2310 -0.1825
 2386W        W18460   6.705   2.969   3.643 -0.0909 -0.0880 -0.1211
 2387W        W18461   7.127  11.802   3.241  0.0824  0.1917  0.0729
 2388W        W18462   1.847   5.218   1.981 -0.2725 -0.1325 -0.3152
 2389W        W18463   0.743  10.420   2.376 -0.2877 -0.0458 -0.1374
 2390W        W18464  14.546   7.329  13.164  0.0730 -0.1046 -0.1128
 2391W        W18465  13.654  11.129   1.173  0.0097  0.1150 -0.0766
 2392W        W18466   2.548   7.858   3.141 -0.1055  0.0395  0.1434
 2393W        W18467  13.622   9.404   5.625 -0.1863  0.1525 -0.2265
 2394W        W18468  12.029   1.773  15.958 -0.1280  0.2558 -0.0367
 2395W        W18469  18.168  15.095  14.364 -0.1598  0.4103  0.1456
 2396W        W18470   5.407  10.486   2.494  0.3221  0.1315 -0.2769
 2397W        W18471   5.583  18.000  13.114  0.0771 -0.0674 -0.2513
 2398W        W18472   0.832  17.168  16.406  0.1577  0.1644  0.0712
 2399W        W18473  14.888  13.214   4.537 -0.1998 -0.4825  0.0980
 2400W        W18474   0.400   5.976   4.284  0.0775  0.1074 -0.0459
 2401W        W18475   1.953   5.087  13.319 -0.0668  0.0706 -0.2886
 2402W        W18476   9.411  13.462  11.873 -0.1253  0.0828  0.0263
 2403W        W18477   6.248   6.776   1.185  0.1425 -0.1840 -0.2915
 2404W        W18478  17.592   9.096  13.431  0.0796  0.2496 -0.3342
 2405W        W18479   8.218   1.385   0.583 -0.0565  0.0392  0.0063
 2406W        W18480  15.378  11.843  12.830  0.1527 -0.0243  0.2033
 2407W        W18481   4.972   1.801   1.482 -0.0494  0.1718  0.1379
 2408W        W18482   1.125   6.109   1.901 -0.2584  0.1921  0.2217
 2409W        W18483   2.872   9.789  14.609 -0.2218  0.3557  0.1434
 2410W        W18484   2.965   7.356   1.441 -0.2515  0.2750  0.0860
 2411W        W18485   5.960  14.114  11.901  0.3157 -0.0773  0.2193
 2412W        W18486   6.274   4.109  14.347 -0.1803 -0.4506  0.1933
 2413W        W18487   4.480  10.629   2.126 -0.0988 -0.0732  0.0430
 2414W        W18488   6.153   9.048   5.472 -0.2614  0.2228  0.2727
 2415W        W18489   3.800  16.165  13.440  0.0653 -0.3587  0.2145
 2416W        W18490  15.010   1.196   6.182  0.0044 -0.0108  0.1773
 2417W        W18491   2.515   3.489   3.433  0.1568 -0.0426 -0.0290
 2418W        W18492   3.306   4.786   4.715 -0.2772 -0.1255  0.0751
 2419W        W18493  16.727   4.856   4.832  0.1845 -0.0329  0.1591
 2420W        W18494  16.356   1.345   4.739  0.2977 -0.1667 -0.2679
 2421W        W18495   1.262   9.690  12.161 -0.0320 -0.0744 -0.0339
 2422W        W18496   8.425  11.363  13.633  0.0327  0.0062 -0.0087
 2423W        W18497  11.048   0.806   0.488  0.2402  0.1464  0.0454
 2424W        W18498   3.908   2.689  12.468  0.0060 -0.0389  0.1279
 2425W        W18499  17.970  18.096  15.464 -0.0410 -0.2507  0.1829
 2426W        W18500  13.464   3.818  13.434 -0.0115  0.3928  0.1809
 2427W        W18501  17.602   0.359   3.468 -0.2349 -0.4218  0.0756
 2428W        W18502   6.895   5.890   3.350 -0.2964 -0.1162  0.3489
 2429W        W18503   7.101  14.639  13.178 -0.0556 -0.0610  0.0432
 2430W        W18504  13.139  11.823   2.450  0.5303  0.1954  0.1121
 2431W        W18505   8.761  16.905  12.175 -0.0983  0.2747  0.2650
 2432W        W18506  12.973   5.214  15.318 -0.2315 -0.0492  0.0562
 2433W        W18507   9.530   0.288  12.526  0.0543  0.2962 -0.0166
 2434W        W18508  11.745  14.254  13.348  0.2195  0.0099  0.1396
 2435W        W18509  14.078   5.043   2.477 -0.2601  0.1442 -0.2358
 2436W        W18510   7.262  12.610   4.444  0.1171  0.2405  0.0190
 2437W        W18511  12.881   3.147   6.161  0.3411  0.1788 -0.0346
 2438W        W18512  17.797   2.576   4.466 -0.2664  0.3052 -0.0957
 2439W        W18513  10.560   8.977  15.077 -0.1941 -0.1653 -0.3319
 2440W        W18514   1.068   7.020  16.341  0.2454 -0.0765  0.2281
 2441W        W18515   2.126  17.304   2.436  0.1807  0.1074  0.0510
 2442W        W18516  11.411   9.134  13.385 -0.0373 -0.1493 -0.2336
 2443W        W18517   7.542  17.420  14.661 -0.3764 -0.0069 -0.3919
 2444W        W18518  14.446   9.471  10.876  0.2637 -0.4235 -0.1138
 2445W        W18519  16.905  14.213   5.224 -0.0881  0.1240  0.1499
 2446W        W18520   4.067   2.216   2.516  0.1863  0.2440  0.4630
 2447W        W18521  10.287   4.604   4.396 -0.0889  0.0080  0.2519
 2448W        W18522   5.779  12.447  12.326  0.0332  0.3537 -0.0251
 2449W        W18523   0.658   9.050   1.157  0.0099 -0.0739 -0.1162
 2450W        W18524   2.915   9.114   2.465  0.0327  0.1774  0.1310
 2451W        W18525   3.000   8.739  12.692 -0.0792  0.0364  0.1508
 2452W        W18526   6.092  17.364  11.786 -0.0338 -0.0757 -0.2327
 2453W        W18527  13.734   2.133   2.912  0.0442  0.1339 -0.0273
 2454W        W18528  12.043   7.076  15.996 -0.0562  0.3291  0.5031
 2455W        W18529   8.690  10.022   3.762 -0.2042 -0.0305 -0.0512
 2456W        W18530   8.655  14.504   1.729  0.1631 -0.0547  0.2663
 2457W        W18531   8.564   1.399  13.472  0.0338 -0.0512  0.0109
 2458W        W18532   4.429  17.578   3.400  0.0346 -0.0942 -0.0743
 2459W        W18533   9.174  12.676   4.869  0.0058 -0.0551 -0.1676
 2460W        W18534   1.945   6.962   2.082  0.1467  0.0951  0.2079
 2461W        W18535   4.040   1.640   2.170 -0.0800 -0.3160  0.0295
 2462W        W18536   3.873  16.164   2.207  0.2658 -0.0118  0.1129
 2463W        W18537   4.621  17.189   1.346 -0.0942  0.1934 -0.0683
 2464W        W18538  12.002  11.473  13.871 -0.0137  0.2641 -0.2003
 2465W        W18539  14.312   1.569  15.004 -0.0652  0.1951 -0.2443
 2466W        W18540  16.632   3.438   1.536 -0.1255 -0.0012 -0.0474
 2467W        W18541   8.486  10.336  15.294  0.1580 -0.1538 -0.1956
 2468W        W18542   1.428  12.533   2.496 -0.3902 -0.0101 -0.0387
 2469W        W18543   6.905   5.389   4.432 -0.2844  0.1280 -0.3077
 2470W        W18544   0.777  16.215  14.680  0.1583 -0.0061 -0.0586
 2471W        W18545  14.188  12.257   0.256  0.0678  0.3923 -0.2660
 2472W        W18546   7.475   9.740  15.229  0.0458 -0.1587  0.0082
 2473W        W18547   9.480  14.532   4.174 -0.2108 -0.0510 -0.0589
 2474W        W18548  17.259   1.482   4.216 -0.1280  0.2258  0.3236
 2475W        W18549   4.427   3.678   0.293  0.1115 -0.3304  0.1664
 2476W        W18550  10.952   6.887  14.794  0.0115  0.3320  0.0804
 2477W        W18551  14.579   6.625  14.935 -0.1870 -0.2755  0.0655
 2478W        W18552   5.841   7.990  12.722  0.1169  0.3651  0.1885
 2479W        W18553   0.981   4.912   3.240 -0.0603  0.4047 -0.2120
 2480W        W18554  13.207   5.608  12.234 -0.1745  0.0178 -0.2599
 2481W        W18555   2.928   2.435   4.464 -0.1922 -0.0462  0.2718
 2482W        W18556  11.005  13.577   2.815 -0.2658  0.1247 -0.0307
 2483W        W18557  10.717   8.512   5.516  0.0209  0.1042 -0.0610
 2484W        W18558   9.420   2.961   3.493  0.0065  0.0301  0.2063
 2485W        W18559  12.553   0.162  13.190 -0.2939  0.0922 -0.1986
 2486W        W18560  15.176  17.138  12.791  0.1023 -0.0922  0.1564
 2487W        W18561   9.565  13.889  13.753  0.0961 -0.2569 -0.1076
 2488W        W18562   4.969   3.359   3.716 -0.3521  0.0281  0.0033
 2489W        W18563  11.468   3.970   3.102  0.0311 -0.2294  0.0430
 2490W        W18564  12.722   4.020   1.511  0.1029 -0.2510  0.1846
 2491W        W18565  15.502  10.966  11.620  0.0074 -0.0751 -0.2208
 2492W        W18566   9.718  11.644   4.364  0.2353 -0.0085  0.2387
 2493W        W18567  14.629  14.348  11.075  0.0811  0.1672  0.1415
 2494W        W18568   0.132   7.392   4.394 -0.0777 -0.1020  0.0720
 2495W        W18569   5.423   4.951  15.308  0.0316 -0.0582  0.3515
 2496W        W18570   8.154   9.643   1.714 -0.0775  0.4272 -0.0097
 2497W        W18571  16.628  14.305  13.861  0.2631  0.2920  0.2081
 2498W        W18572  11.431  15.690   2.341 -0.0659 -0.3093  0.1726
 2499W        W18573   3.285  15.443  12.945  0.0684 -0.0710  0.2970
 2500W        W18574   7.655   3.096   4.429 -0.0397 -0.0942  0.0763
 2501W        W18575   2.325   2.965  13.002 -0.0789 -0.1021  0.1158
 2502W        W18576   3.108   5.715  12.472 -0.1559 -0.1797 -0.1511
 2503W        W18577   3.862  17.689  12.955  0.2785  0.1549  0.1215
 2504W        W18578   5.510  11.408   1.591  0.0497  0.0427 -0.1192
 2505W        W18579  17.327  11.627   5.292 -0.1563 -0.2010  0.0297
 2506W        W18580  10.311  16.478  13.422 -0.3172  0.2523 -0.0338
 2507W        W18581   2.352   7.187   3.674  0.1872 -0.3968 -0.3101
 2508W        W18582   7.142   8.083   1.947  0.0044 -0.0218  0.0806
 2509W        W18583  12.935   0.097   2.142 -0.0074 -0.0537  0.0733
 2510W        W18584  10.054   8.875  15.867  0.0825  0.2365  0.1878
 2511W        W18585  13.779   4.990  15.878  0.0043 -0.1518 -0.0318
 2512W        W18586   0.650  16.161  15.183  0.2017 -0.1862 -0.3073
 2513W        W18587   5.050  13.885   0.959 -0.0188 -0.0966 -0.0577
 2514W        W18588   8.424  13.969   5.377 -0.1670 -0.2202  0.0497
 2515W        W18589   6.020   2.376   0.526  0.1160 -0.5244 -0.3288
 2516W        W18590   4.788   5.778  14.021 -0.5528  0.1307 -0.0980
 2517W        W18591   2.147   5.358  11.869 -0.3341 -0.2768  0.0793
 2518W        W18592  14.943   3.992   1.682 -0.0349 -0.1347  0.1489
 2519W        W18593   0.642   0.648  12.142  0.2926  0.2724 -0.2469
 2520W        W18594   6.313  11.311  11.024 -0.1279 -0.1286  0.0102
 2521W        W18595   1.753  11.700  12.039  0.0130  0.1308 -0.0489
 2522W        W18596  10.284  14.659   4.537  0.0760 -0.1449  0.1708
 2523W        W18597  14.627   4.433   2.790  0.0873 -0.1496 -0.1669
 2524W        W18598   7.962  17.499   5.189  0.5603  0.0626 -0.1237
 2525W        W18599   0.885   9.119  16.392  0.2267  0.0176  0.2334
 2526W        W18600   1.644   7.397   1.752 -0.0730 -0.2863  0.2270
 2527W        W18601  15.789  17.151   4.039 -0.3417  0.0289  0.1406
 2528W        W18602  16.178   3.733  10.930 -0.2799 -0.0871 -0.4637
 2529W        W18603   0.301  11.195  11.349  0.0168  0.2812  0.0439
 2530W        W18604  14.502   5.154   4.511 -0.0913 -0.2888  0.0111
 2531W        W18605   6.676  16.724  11.361  0.0833  0.4207  0.0859
 2532W        W18606  10.810   6.350   4.475  0.2776 -0.0751  0.2429
 2533W        W18607  11.102   0.828  14.953  0.2290  0.1031 -0.1124
 2534W        W18608   6.250   4.175   0.548 -0.1431 -0.2307  0.1291
 2535W        W18609   2.426  16.588  15.155 -0.2419  0.0324  0.0545
 2536W        W18610  17.004   3.303   1.897 -0.0751  0.0647 -0.0856
 2537W        W18611   6.257   3.209  11.747  0.0139 -0.1341 -0.0318
 2538W        W18612  10.993   2.432   5.556  0.1222  0.1539  0.0906
 2539W        W18613  13.085   5.746   1.152 -0.1827 -0.0851  0.0294
 2540W        W18614  17.920   2.618   5.445 -0.0317  0.5815 -0.0694
 2541W        W18615  11.390  17.425  14.793 -0.0702 -0.0789 -0.1230
 2542W        W18616   0.258   1.801   0.729  0.1455  0.1945 -0.0233
 2543W        W18617   7.768   8.553  14.664 -0.0230  0.2042  0.2307
 2544W        W18618  14.432  15.036   5.788 -0.0593 -0.0138  0.0092
 2545W        W18619  10.534   2.256  14.379  0.1632  0.1320  0.1104
 2546W        W18620   8.104   0.063   3.498  0.0208  0.2337 -0.1644
 2547W        W18621   3.904  10.835  15.625  0.1672  0.2306 -0.1356
 2548W        W18622   5.569  18.061   3.810 -0.1429  0.2534  0.0581
 2549W        W18623   1.403   6.164  13.191  0.0169 -0.0137 -0.3798
 2550W        W18624  11.465   2.595   2.803 -0.0486  0.0879 -0.3291
 2551W        W18625  11.879   7.040  15.143 -0.0641  0.1178 -0.2255
 2552W        W18626   5.992   7.320   4.897  0.0007 -0.0630 -0.0420
 2553W        W18627   5.291   1.235  12.090  0.2816 -0.2289  0.2223
 2554W        W18628  11.204  15.477  11.777 -0.1366 -0.0133 -0.2073
 2555W        W18629  14.085   5.941   1.498  0.0605 -0.3092 -0.0674
 2556W        W18630  10.280   5.567   5.669 -0.0230  0.2226 -0.1987
 2557W        W18631   7.454   9.066   1.757 -0.2648  0.0918 -0.1427
 2558W        W18632   2.703   4.900   1.284  0.1108 -0.1576  0.0610
 2559W        W18633  11.454  10.970   1.938 -0.0040  0.2235  0.0131
 2560W        W18634  16.076  15.873  12.880  0.3091  0.1017 -0.0555
 2561W        W18635   0.361  11.019  15.481 -0.2093  0.2273  0.0084
 2562W        W18636   2.052  11.181   3.666  0.1147  0.1001  0.1053
 2563W        W18637   3.468  16.844   4.157 -0.1405 -0.2775 -0.3002
 2564W        W18638  11.864   8.276  14.744  0.1558  0.0376  0.1159
 2565W        W18639   2.595  13.725  15.951  0.0872 -0.1006 -0.0550
 2566W        W18640   9.198   7.963  15.223  0.0426  0.2127 -0.1632
 2567W        W18641  10.457  15.903  12.699 -0.1266  0.1154  0.0530
 2568W        W18642   8.241  12.033   0.988  0.0584 -0.1827  0.0864
 2569W        W18643   7.805  15.669   3.399 -0.1929  0.1242 -0.1466
 2570W        W18644  12.524  17.578  15.725  0.0739 -0.1121 -0.1867
 2571W        W18645  16.606  17.997   0.638 -0.4425  0.0343 -0.0385
 2572W        W18646   6.139  12.540  13.966  0.1588 -0.1458 -0.1046
 2573W        W18647  15.013  12.849   0.176  0.1824 -0.3370 -0.0462
 2574W        W18648   4.270   9.075  12.621  0.0468  0.0193 -0.1211
 2575W        W18649  18.214  10.687   0.182  0.0001 -0.0809 -0.0245
 2576W        W18650   5.882   3.710   1.467  0.1546  0.3482 -0.0256
 2577W        W18651   0.552   7.062   5.172  0.2375 -0.0610  0.0263
 2578W        W18652  17.316   3.400   5.730  0.1767  0.1064 -0.0992
 2579W        W18653  15.891   7.781   2.708  0.2799 -0.0519  0.4144
 2580W        W18654   3.056   7.168   2.852 -0.2284 -0.1094  0.0373
 2581W        W18655   5.316  18.146  14.478  0.1486  0.2377  0.0546
 2582W        W18656  11.975   1.109  16.053 -0.2116 -0.1970  0.1247
 2583W        W18657  11.495  16.565  14.836 -0.0290 -0.1412 -0.0180
 2584W        W18658  12.051   9.578   4.875 -0.2686 -0.0894 -0.0036
 2585W        W18659  16.212  12.215   0.989  0.0300  0.1472 -0.0731
 2586W        W18660   4.652  15.906  11.864  0.4618  0.0471 -0.3891
 2587W        W18661   0.322  12.528   0.013 -0.0598 -0.1274 -0.3826
 2588W        W18662   7.071   2.426   4.945  0.2176 -0.2372 -0.0463
 2589W        W18663   4.402  14.074  16.120 -0.0699  0.2771 -0.0208
 2590W        W18664  16.118   2.940   4.164  0.1514 -0.2765  0.1022
 2591W        W18665  10.674  12.573  12.622 -0.1186 -0.0507  0.2564
 2592W        W18666  13.987  14.149  11.644 -0.0321 -0.1608  0.0164
 2593W        W18667   1.397   6.215   4.371  0.2232 -0.0953 -0.0688
 2594W        W18668   0.444   9.949   0.236 -0.2008 -0.2341  0.0418
 2595W        W18669   6.563   0.280   4.412  0.0883 -0.2704 -0.2999
 2596W        W18670   9.729  14.374   6.217 -0.2316 -0.1995 -0.0673
 2597W        W18671   6.236   1.555   2.034  0.0205 -0.0769 -0.0081
 2598W        W18672   8.134   2.571  11.339 -0.1144 -0.0642  0.6414
 2599W        W18673  14.216  10.324  12.053  0.2514  0.0171  0.1764
 2600W        W18674   4.282   4.270   4.312  0.0468 -0.2275 -0.1742
 2601W        W18675   3.934  14.556   1.731  0.0334 -0.3851 -0.0900
 2602W        W18676   7.637  15.649   5.264 -0.1529 -0.1216 -0.3008
 2603W        W18677   2.032  15.637   5.640  0.0160 -0.0048  0.0051
 2604W        W18678  14.624  17.345   0.431  0.0807 -0.1562 -0.0195
 2605W        W18679   2.234   2.654   2.905 -0.2429  0.0745 -0.1109
 2606W        W18680   3.692   9.243  13.748 -0.2471 -0.1038 -0.2596
 2607W        W18681   6.563   4.074  16.230  0.1103  0.0590  0.0895
 2608W        W18682  12.573   9.828  11.743  0.0846  0.5392  0.1341
 2609W        W18683  11.075   8.057  16.222  0.0593 -0.1328  0.1451
 2610W        W18684  17.602   6.051   2.141  0.5291  0.1736 -0.1783
 2611W        W18685  13.140  12.319  15.653  0.1404  0.1447 -0.0332
 2612W        W18686   2.283  12.659   1.193  0.1272  0.0822 -0.1311
 2613W        W18687   8.620   0.101   4.902 -0.2558  0.1114  0.1165
 2614W        W18688  12.374  11.974   3.792 -0.1467  0.2544  0.0384
 2615W        W18689  10.862   0.661   0.925  0.1427 -0.0023 -0.0657
 2616W        W18690  12.480   9.837   4.852  0.0209  0.0969  0.1646
 2617W        W18691   9.626   5.945  15.577  0.1715 -0.1832  0.1274
 2618W        W18692   6.611  10.124  15.653  0.1180  0.0334 -0.2649
 2619W        W18693   3.987   4.543  11.537  0.0386 -0.6358 -0.0680
 2620W        W18694  12.242  15.263  12.569  0.2116 -0.4263  0.0016
 2621W        W18695  17.393   0.512   3.013  0.0055  0.1775  0.1600
 2622W        W18696  16.214  11.974  14.843 -0.1726 -0.0730  0.0003
 2623W        W18697   4.052  16.068   5.199  0.1974  0.0865 -0.0928
 2624W        W18698  10.409  13.412   3.715  0.1204 -0.0190  0.0684
 2625W        W18699   2.603   3.745   2.087 -0.0845  0.0081  0.0182
 2626W        W18700   9.852  14.317  15.551 -0.2711  0.2218  0.3241
 2627W        W18701   5.423   2.619  11.753 -0.1215  0.2200  0.1952
 2628W        W18702  12.582   5.968   1.278  0.2375 -0.3177  0.2647
 2629W        W18703   2.012   2.952   4.254 -0.0065 -0.0743  0.1955
 2630W        W18704   1.576  12.795  11.067 -0.1120 -0.4641  0.3019
 2631W        W18705   9.237   3.846  12.952  0.1174  0.1982 -0.0163
 2632W        W18706  12.458   8.204   4.556 -0.0165 -0.3197  0.2019
 2633W        W18707  13.917   1.296  12.002 -0.0085 -0.1263 -0.4448
 2634W        W18708   8.699   7.046  12.028  0.2564  0.0626  0.1833
 2635W        W18709  16.398   3.039   4.729  0.1453  0.0415 -0.0045
 2636W        W18710   2.535  16.662   4.175  0.3033  0.1374 -0.3271
 2637W        W18711  13.537   1.620   0.405 -0.1544 -0.0453  0.1160
 2638W        W18712   1.181  15.228   3.192  0.0419 -0.1831  0.1863
 2639W        W18713   3.584   1.148   5.413  0.1784 -0.1512  0.2523
 2640W        W18714  18.200   5.354  13.270 -0.0607  0.3308  0.0116
 2641W        W18715   8.994   2.435   4.373 -0.3527  0.1733  0.2303
 2642W        W18716   9.007   1.588  16.276  0.0185  0.0157 -0.0649
 2643W        W18717  16.172   9.109   4.566 -0.3944 -0.3049 -0.0704
 2644W        W18718  15.860  15.624   3.862  0.1061 -0.0611  0.1074
 2645W        W18719   3.965   1.073  15.288 -0.0159 -0.0788 -0.2684
 2646W        W18720   0.558  15.540  13.277 -0.0591 -0.1847  0.0301
 2647W        W18721  17.952   4.790   1.577  0.2570  0.0077 -0.1601
 2648W        W18722   7.079  14.841   2.039 -0.6755  0.4399  0.1169
 2649W        W18723   7.668  16.804  14.441 -0.0071  0.2008 -0.4526
 2650W        W18724  11.865   4.836  12.837 -0.0769 -0.0955  0.2005
 2651W        W18725  16.883  14.954   2.291 -0.0284 -0.2584  0.2106
 2652W        W18726  13.554   5.165  12.487 -0.2385 -0.0816  0.0219
 2653W        W18727  17.581   9.003   4.951 -0.0556 -0.2059  0.1353
 2654W        W18728   0.213   0.454   3.815  0.0183  0.1748  0.0580
 2655W        W18729   5.649   6.606  12.929 -0.0339 -0.0434 -0.0398
 2656W        W18730   3.356   8.435   1.024  0.0534 -0.0369 -0.0491
 2657W        W18731  17.462  16.009   5.148  0.0472 -0.0753 -0.2442
 2658W        W18732  18.165  15.292  11.565  0.0330 -0.0267  0.0084
 2659W        W18733  17.405   4.565  11.630  0.4764 -0.0328 -0.1513
 2660W        W18734  10.869  12.474  12.098  0.0077 -0.0680 -0.0662
 2661W        W18735   2.428   2.767   1.887  0.3542 -0.1949  0.1596
 2662W        W18736  11.092  14.330   4.071 -0.0282 -0.1810 -0.1969
 2663W        W18737   7.452   1.972   4.755 -0.3139 -0.0639  0.0068
 2664W        W18738  17.131   1.475   4.703 -0.0543 -0.2353  0.0765
 2665W        W18739   2.156   6.252   2.875  0.1204  0.4120  0.3000
 2666W        W18740   1.929   1.720  16.144 -0.1842  0.1250 -0.3052
 2667W        W18741  16.610   2.776   5.161 -0.3656  0.2093 -0.0875
 2668W        W18742   0.124   1.474  11.941 -0.1991  0.1186 -0.1011
 2669W        W18743   3.930  16.689   4.032 -0.2361  0.1286 -0.4212
 2670W        W18744   9.623   4.603   5.695 -0.0290 -0.1744  0.1979
 2671W        W18745  13.790  12.713  12.158  0.1694  0.1319 -0.0005
 2672W        W18746   3.557  12.024   2.518  0.0062  0.1019 -0.0779
 2673W        W18747  12.939   0.486   0.959  0.0409  0.2110  0.2349
 2674W        W18748  10.015   4.495   0.511 -0.1345  0.0687 -0.2347
 2675W        W18749  16.901   2.430   5.464  0.2569 -0.0606  0.3322
 2676W        W18750   6.352  12.421   4.832  0.0291  0.0401 -0.0928
 2677W        W18751   9.842   5.129  15.280 -0.1526 -0.0123 -0.0091
 2678W        W18752  15.754  12.632  14.792  0.2122 -0.0492  0.1332
 2679W        W18753  16.442  16.375   1.344  0.2717 -0.0704 -0.3019
 2680W        W18754  10.848  12.026  15.699 -0.1741  0.1802 -0.2672
 2681W        W18755  15.331  17.828   4.931  0.2379  0.2694  0.2370
 2682W        W18756  16.686   8.960   1.915 -0.2922  0.0483  0.0093
 2683W        W18757  12.047  15.326  15.178  0.1259  0.1042  0.0809
 2684W        W18758  16.625  13.838  15.780 -0.1135 -0.0869  0.2984
 2685W        W18759  14.640   9.409   1.722 -0.1787 -0.0993  0.0877
 2686W        W18760  10.825  16.348  14.400 -0.1161  0.3484 -0.0530
 2687W        W18761   3.000   0.265  14.621 -0.2723 -0.3692  0.0731
 2688W        W18762  13.507  11.536   2.823  0.3631  0.1836 -0.0450
 2689W        W18763   9.461   9.529   2.088 -0.2914 -0.2777 -0.3285
 2690W        W18764  16.689   7.175  13.503 -0.0359  0.1153 -0.1859
 2691W        W18765  12.102   7.888   3.750  0.0259 -0.0864 -0.2027
 2692W        W18766  15.258  13.665  15.595  0.2090 -0.1084  0.0577
 2693W        W18767   5.268   0.866  14.467  0.0270  0.2544  0.0183
 2694W        W18768   9.811  10.545   4.706  0.3275 -0.1599 -0.2275
 2695W        W18769  12.636   6.322   1.720 -0.0578 -0.3033  0.1950
 2696W        W18770   3.471   8.634   4.005  0.0692  0.1993 -0.0411
 2697W        W18771  13.136  12.508  16.486  0.2523  0.0131  0.0857
 2698W        W18772   9.090   1.073   5.749  0.2317 -0.1837 -0.0666
 2699W        W18773   1.701   4.068  14.345  0.7479  0.2754 -0.2913
 2700W        W18774   3.909   1.334   4.290 -0.0383  0.1193  0.1468
 2701W        W18775   4.694   2.586  14.045 -0.0306 -0.1509 -0.0382
 2702W        W18776   8.010   7.661   5.820  0.3452  0.0762  0.1857
 2703W        W18777  14.385  14.608   6.068 -0.0193  0.2041 -0.2354
 2704W        W18778   6.907   7.552  15.193  0.0964  0.2094 -0.2533
 2705W        W18779  11.363  14.346   2.762  0.1454  0.1376 -0.1317
 2706W        W18780   5.121  16.679   3.694 -0.1633 -0.0205 -0.0468
 2707W        W18781  16.761   8.059  14.131 -0.1958  0.1620 -0.1121
 2708W        W18782   7.205   7.729   0.638 -0.0767 -0.0620 -0.3562
 2709W        W18783   2.949   6.226   1.779  0.2075 -0.0469  0.0529
 2710W        W18784   2.111  13.797   4.811 -0.1257 -0.1353  0.2256
 2711W        W18785   1.916  15.658  16.451 -0.1164 -0.0272  0.3036
 2712W        W18786   7.783   0.838  12.654  0.2260  0.0145 -0.0605
 2713W        W18787  15.084   3.481   4.885 -0.2013  0.3385 -0.3365
 2714W        W18788   3.972   2.751   4.694 -0.1255 -0.2515  0.0610
 2715W        W18789   2.044   7.500  11.031  0.2596 -0.1864 -0.1506
 2716W        W18790   1.906  16.685   1.391 -0.1315  0.2469 -0.3093
 2717W        W18791   9.889   3.420  12.715 -0.0402 -0.2259 -0.0068
 2718W        W18792   5.015   5.204  12.986 -0.3333  0.1708  0.0841
 2719W        W18793   5.208   8.308   4.005 -0.0081  0.3576 -0.1880
 2720W        W18794   5.109  13.453  11.713 -0.0350  0.1997 -0.0199
 2721W        W18795   8.687   4.622   2.761 -0.0753  0.1646 -0.1880
 2722W        W18796  10.101  15.008  14.531 -0.1842  0.0352 -0.2487
 2723W        W18797   5.577  13.001  15.203 -0.1721  0.2460  0.1142
 2724W        W18798  12.841   3.657   3.301 -0.3344 -0.0278  0.0882
 2725W        W18799  16.690   2.720  12.299 -0.0067 -0.3373 -0.0652
 2726W        W18800  16.742  15.266  15.664 -0.2994 -0.2157 -0.1113
 2727W        W18801   0.607   2.138  12.251 -0.1510  0.0422  0.0934
 2728W        W18802   6.730   9.019  12.495  0.2852 -0.2768  0.1310
 2729W        W18803   1.028  14.423   0.955 -0.1415  0.2618  0.0444
 2730W        W18804  16.245   0.683  13.358  0.1749 -0.0199 -0.1534
 2731W        W18805   3.806   2.614  14.538  0.2081 -0.0027  0.2106
 2732W        W18806  10.969   8.445   3.331 -0.1103 -0.2626  0.0356
 2733W        W18807   5.397   3.708  15.901 -0.0267 -0.1607  0.4913
 2734W        W18808   0.481  15.776  14.721  0.1032  0.1015 -0.0969
 2735W        W18809   5.692   6.837  14.034  0.1333 -0.0812 -0.1321
 2736W        W18810  16.960  10.031  14.203  0.2118 -0.2332  0.1657
 2737W        W18811  11.693  10.034   2.282 -0.1794 -0.4917  0.1280
 2738W        W18812  16.838  15.710  15.988 -0.2799  0.1557 -0.3224
 2739W        W18813   6.240   1.524  14.846  0.0338 -0.0491 -0.1576
 2740W        W18814   1.205   8.590  14.310  0.0216 -0.2481 -0.0464
 2741W        W18815   9.941   8.486   4.138 -0.0987  0.1482 -0.4869
 2742W        W18816   4.229  15.358   0.615  0.3247 -0.1833 -0.0929
 2743W        W18817  13.719  16.100   1.105  0.0826  0.0449  0.1266
 2744W        W18818  14.864  18.017  11.446 -0.2082  0.0894 -0.2265
 2745W        W18819  17.766  15.908   0.303 -0.0157  0.1321 -0.1413
 2746W        W18820   7.449  13.975   3.025  0.0683  0.1493  0.3280
 2747W        W18821   6.590  14.840  11.382 -0.1723 -0.0039  0.0925
 2748W        W18822   3.064   7.857  14.162 -0.1280 -0.0221 -0.0964
 2749W        W18823  11.376   6.308   2.547  0.1185  0.1226  0.0211
 2750W        W18824   6.828   1.084   2.261 -0.0123  0.0339 -0.1993
 2751W        W18825  12.911   7.936  15.475  0.1218  0.1356  0.2331
 2752W        W18826  16.360   0.649  16.369 -0.1304  0.0701  0.0725
 2753W        W18827   2.689   6.606   1.590  0.1969  0.0576 -0.3224
 2754W        W18828  14.288   4.922   0.346 -0.1128 -0.0390 -0.3133
 2755W        W18829   4.390   6.963   2.474  0.1872  0.3170  0.1209
 2756W        W18830  17.687   1.874   1.866 -0.1431  0.0582 -0.2415
 2757W        W18831   2.524   6.043  14.645 -0.0436 -0.2375  0.5264
 2758W        W18832  13.264  12.791  15.639 -0.0445 -0.0790  0.0945
 2759W        W18833  12.955  17.398   4.049  0.0623  0.1039 -0.2566
 2760W        W18834   9.531   9.003   0.308  0.2927 -0.3319  0.0550
 2761W        W18835  16.158  17.244  13.528 -0.0469 -0.1897 -0.1554
 2762W        W18836   8.514  16.770   1.209  0.0097  0.1359  0.0487
 2763W        W18837  15.964   2.179   5.177  0.1421  0.0004 -0.2633
 2764W        W18838  10.736  18.181   1.545 -0.0216  0.1582 -0.1891
 2765W        W18839   0.657   7.998   2.845  0.0153  0.0188  0.3213
 2766W        W18840  10.277  14.453   1.831 -0.1145 -0.2366 -0.0705
 2767W        W18841   0.190   2.283  13.458  0.1282  0.2042  0.1743
 2768W        W18842   0.996   8.809  13.774 -0.1240  0.2012 -0.2531
 2769W        W18843  16.153   2.398   2.616  0.0972  0.0944  0.0132
 2770W        W18844   1.436   9.345  14.470  0.0071 -0.0073  0.1606
 2771W        W18845  11.772  13.191  16.358  0.1549 -0.1666  0.1557
 2772W        W18846   8.381  12.327   3.788 -0.0739  0.2332 -0.2696
 2773W        W18847  10.517  17.242   1.062  0.2812 -0.0342 -0.1347
 2774W        W18848   6.886   4.637  14.670 -0.1277 -0.2199 -0.1478
 2775W        W18849  13.800   1.691   2.115 -0.0996  0.2624 -0.0547
 2776W        W18850  10.282  14.131  12.091 -0.1142  0.3101  0.0682
 2777W        W18851   2.545  17.823   6.148  0.0922 -0.2457 -0.0958
 2778W        W18852   9.389   4.583   4.572 -0.3444 -0.2208  0.0498
 2779W        W18853   0.495  13.586  11.854 -0.2193 -0.2570  0.0410
 2780W        W18854   1.626   8.888   2.367  0.3920 -0.1361  0.0043
 2781W        W18855  11.322  14.498   3.629 -0.1770 -0.1802  0.0811
 2782W        W18856  14.092  14.614  14.071 -0.0242  0.1869 -0.1185
 2783W        W18857   4.399  13.241  12.290 -0.1964  0.0205  0.4539
 2784W        W18858   7.342   8.676  14.434 -0.0217 -0.0698  0.1139
 2785W        W18859  17.585   4.961   0.027  0.0872  0.0412  0.0702
 2786W        W18860  14.155  11.209   1.865  0.3034  0.1061 -0.1775
 2787W        W18861  16.097   0.118   2.818 -0.3695  0.2536 -0.5499
 2788W        W18862  12.548   0.688  13.155  0.2675 -0.0230  0.0715
 2789W        W18863   2.661   5.508   5.588 -0.0359 -0.1824 -0.2853
 2790W        W18864  13.171   2.797   4.334  0.2056 -0.0954 -0.1542
 2791W        W18865   0.487   5.623  14.033  0.2915 -0.2302 -0.2763
 2792W        W18866   9.107   6.392  16.183 -0.1642  0.1003 -0.1115
 2793W        W18867  12.911   1.168  15.973  0.1180  0.0429 -0.0508
 2794W        W18868   9.048   1.028  14.583  0.0919  0.1682 -0.0986
 2795W        W18869   7.821   2.059  13.585 -0.0501 -0.1070 -0.0337
 2796W        W18870   1.902  14.293  11.995  0.0923 -0.1490  0.0330
 2797W        W18871  16.473   9.511   0.886 -0.0869 -0.1469 -0.3283
 2798W        W18872   3.955  13.699   5.207 -0.0635 -0.1241 -0.1039
 2799W        W18873  16.136   6.114   2.355 -0.1150  0.0673  0.0603
 2800W        W18874   3.728   6.054   4.188 -0.2909 -0.1665 -0.3835
 2801W        W18875  10.059  10.945  15.022 -0.2084  0.1406 -0.2420
 2802W        W18876   9.083   3.420  15.574 -0.0619 -0.2226 -0.0383
 2803W        W18877   4.909   9.814   1.151 -0.0054 -0.0896  0.2715
 2804W        W18878   7.301   4.242   0.709  0.1585 -0.3851 -0.5087
 2805W        W18879   3.769   1.965  13.178 -0.3097  0.1488 -0.3032
 2806W        W18880  15.810  15.580   2.976 -0.5594 -0.1324  0.2151
 2807W        W18881  10.140   3.597   6.532 -0.0137 -0.0486 -0.1599
 2808W        W18882  13.549  13.580   0.413 -0.0975 -0.0917  0.1318
 2809W        W18883   0.155   9.800  12.544 -0.0777  0.1872  0.1732
 2810W        W18884   9.896   6.766  14.295  0.0673 -0.2299 -0.1316
 2811W        W18885   4.131  12.502   0.392 -0.2243  0.0640 -0.2914
 2812W        W18886   2.138  11.720  13.762  0.0214  0.4485 -0.1197
 2813W        W18887   2.081   5.165   5.593 -0.0857  0.2142 -0.0957
 2814W        W18888   2.629  16.953   3.205 -0.1959 -0.1054 -0.1852
 2815W        W18889   1.516  16.084   3.316 -0.1950  0.1008 -0.2109
 2816W        W18890   4.947   7.040   4.276 -0.0465  0.0674 -0.2733
 2817W        W18891  16.980   1.703   2.886  0.0702  0.0294 -0.0809
 2818W        W18892   4.051   6.405   3.217 -0.0865 -0.2355 -0.1715
 2819W        W18893  13.685   0.538   4.630  0.2165  0.0417  0.0584
 2820W        W18894   1.847   8.844   3.876 -0.1182 -0.1009  0.0261
 2821W        W18895   5.827  10.340   2.762  0.2663 -0.2228 -0.2750
 2822W        W18896  11.362   4.980  11.174  0.5170  0.0687  0.0410
 2823W        W18897  11.874  10.963   5.917  0.1276 -0.2251  0.0788
 2824W        W18898   8.918   7.022   6.452 -0.1480 -0.0231  0.3806
 2825W        W18899   1.044   1.125  15.986 -0.1251 -0.1425  0.0758
 2826W        W18900   2.110  15.549   2.320  0.0789  0.0915  0.1788
 2827W        W18901  11.437   7.997   5.615 -0.2869  0.1155  0.0785
 2828W        W18902  11.070   6.077  16.411  0.0577 -0.0859 -0.0258
 2829W        W18903   9.620   3.761  14.948 -0.0229  0.1017 -0.2091
 2830W        W18904   6.639  12.296   5.220 -0.2216  0.5553  0.1974
 2831W        W18905  15.256  17.914  16.245  0.1295 -0.1035 -0.0172
 2832W        W18906   8.097   8.348   1.990  0.1400 -0.0300 -0.0519
 2833W        W18907   6.377  16.762  15.537 -0.2450 -0.0978 -0.0658
 2834W        W18908   1.376   7.572  14.399  0.0039  0.2862 -0.0808
 2835W        W18909   1.680  11.698   0.418 -0.0404  0.1960  0.2985
 2836W        W18910   7.762  12.864  15.508 -0.3408 -0.0673  0.1845
 2837W        W18911  13.712  17.223   2.172 -0.4570  0.0088 -0.3412
 2838W        W18912   9.688   5.229   3.479 -0.1824  0.0485 -0.1374
 2839W        W18913   4.041  11.873   4.748  0.1887  0.2078  0.4002
 2840W        W18914   7.810   3.596  15.514 -0.1239 -0.0944  0.0097
 2841W        W18915  17.496  10.500  11.569  0.0485  0.1567 -0.2853
 2842W        W18916  12.346  13.228   1.621  0.2980  0.0095 -0.3208
 2843W        W18917   3.849  17.541   0.426 -0.0928 -0.1948  0.0031
 2844W        W18918  11.341  11.923   5.198  0.2528  0.0466 -0.0089
 2845W        W18919  11.570   1.145   4.612 -0.1182 -0.0609 -0.2437
 2846W        W18920  10.985   4.968   5.570 -0.0141 -0.0288  0.0758
 2847W        W18921   0.208   0.769  10.913 -0.1649 -0.0615 -0.2772
 2848W        W18922   7.328  12.736   5.706  0.0955 -0.5764 -0.1194
 2849W        W18923   3.927   8.652   3.700  0.1277 -0.1411 -0.0843
 2850W        W18924   2.067   9.250   1.654 -0.2344 -0.1826  0.0148
 2851W        W18925  13.526   5.738   3.622  0.0503 -0.2571 -0.0366
 2852W        W18926   5.376   6.558   2.469  0.2189 -0.0311  0.2730
 2853W        W18927   2.431   2.707   5.509 -0.1059  0.3950  0.1454
 2854W        W18928  11.461  13.142   0.294 -0.1638 -0.0364 -0.1350
 2855W        W18929  15.406  17.502  12.388  0.0575  0.0130 -0.0407
 2856W        W18930  15.584   7.401   1.448  0.0291 -0.0707 -0.2314
 2857W        W18931   7.246  15.164   2.522  0.0240  0.1143 -0.1287
 2858W        W18932   6.400  12.316   5.601 -0.1239 -0.0283  0.2968
 2859W        W18933  15.146   7.475  15.163 -0.0682  0.3114  0.0812
 2860W        W18934   8.565  16.693   0.060 -0.0938 -0.3450  0.1679
 2861W        W18935   9.068  10.180   6.083  0.0723  0.0018 -0.0557
 2862W        W18936   7.783   6.909   3.885 -0.3849 -0.0071 -0.3107
 2863W        W18937  12.595   4.720  14.623  0.2401 -0.1551 -0.0985
 2864W        W18938   0.530  12.835  12.354 -0.1396  0.2436  0.2670
 2865W        W18939  11.569   2.075   0.503 -0.0527  0.1519 -0.0019
 2866W        W18940  16.855  16.470   1.760  0.2418 -0.1086 -0.5005
 2867W        W18941  14.388  10.984   3.807 -0.2587 -0.1718  0.1223
 2868W        W18942   1.751  15.821   1.979 -0.0676 -0.1885 -0.3824
 2869W        W18943   4.038  18.089  13.182 -0.0970  0.1967 -0.0388
 2870W        W18944  10.493   2.834   3.015 -0.1724  0.1950  0.1197
 2871W        W18945  16.565  10.007   1.176  0.0950  0.3176  0.0346
 2872W        W18946  11.813  13.035   4.733 -0.0051  0.2435  0.1466
 2873W        W18947   4.253   5.468   0.007 -0.1818  0.0264  0.0965
 2874W        W18948   4.082  12.132   1.773  0.0410  0.2276 -0.0113
 2875W        W18949  18.021  13.649   4.845  0.0677 -0.0515  0.3543
 2876W        W18950   5.477   1.741   4.483  0.0964 -0.0026  0.0082
 2877W        W18951   1.380   4.856   4.954  0.1452  0.2863 -0.0256
 2878W        W18952   0.272   4.716   4.974 -0.1205 -0.1324  0.1336
 2879W        W18953  13.657  10.115   3.588  0.0350 -0.1085 -0.0305
 2880W        W18954  11.277   4.588   5.368 -0.1099 -0.3763 -0.0060
 2881W        W18955   9.678   5.069  13.261  0.1445 -0.0479 -0.3512
 2882W        W18956  12.697   3.933  13.955 -0.0525  0.0487 -0.1933
 2883W        W18957   2.627   0.065  11.962  0.0276 -0.0917  0.1811
 2884W        W18958  12.675  12.886   4.110 -0.0188  0.0184 -0.0311
 2885W        W18959  11.263   4.656   1.750  0.1115 -0.1027 -0.3580
 2886W        W18960   5.492   7.154   3.082 -0.0637  0.1121  0.3625
 2887W        W18961   5.866   5.251   6.332 -0.0841 -0.0013  0.0921
 2888W        W18962   2.620   7.757  12.081 -0.0635 -0.3425  0.1699
 2889W        W18963  14.932  16.654  14.181  0.2392  0.1254  0.1051
 2890W        W18964   0.472  17.212   5.686  0.4658  0.2011  0.0933
 2891W        W18965   6.516  12.594   0.450  0.2025  0.0080 -0.2349
 2892W        W18966   7.522  13.373  13.717  0.1140  0.2736 -0.0578
 2893W        W18967  13.098   2.073  13.003 -0.0133  0.0912  0.0120
 2894W        W18968   3.679  15.137   4.555  0.0183 -0.1500  0.0137
 2895W        W18969   9.008  14.417   0.877 -0.2847 -0.1637  0.2342
 2896W        W18970   7.351  16.665  12.610 -0.1863 -0.2553 -0.0600
 2897W        W18971   4.668   7.405   6.231  0.0981 -0.3227 -0.4436
 2898W        W18972   8.357  14.624  11.985  0.0728 -0.1499 -0.0510
 2899W        W18973   9.290   0.005  14.303  0.1967  0.0820 -0.1797
 2900W        W18974   6.167   8.712   0.495 -0.3650  0.1559  0.0090
 2901W        W18975  11.607  16.548  14.327 -0.2265  0.0998 -0.2377
 2902W        W18976   1.396   2.788   0.097  0.2290 -0.1661  0.0445
 2903W        W18977  16.531  18.067  12.826 -0.2886 -0.1581  0.1313
 2904W        W18978   4.938  16.221  15.014  0.1198  0.3020 -0.4133
 2905W        W18979   7.470  13.640  13.217  0.0859 -0.0137  0.1031
 2906W        W18980  14.830   3.200  16.255  0.1627 -0.1470  0.1216
 2907W        W18981  12.690   2.651   4.287 -0.0489  0.1809 -0.0988
 2908W        W18982  12.939   1.566  12.953  0.3213 -0.0570  0.0100
 2909W        W18983   9.387   8.453  13.625  0.0520  0.0867 -0.2378
 2910W        W18984   9.147   0.649   5.432 -0.2753 -0.3344  0.1796
 2911W        W18985   4.682   3.581  12.902 -0.0216 -0.2999  0.0938
 2912W        W18986  14.099   9.317   3.362  0.2428 -0.1834 -0.0798
 2913W        W18987  10.190   7.658  16.195  0.1307 -0.1181 -0.1239
 2914W        W18988   9.268  14.907  12.553  0.1743 -0.2741 -0.1222
 2915W        W18989  10.254   3.779   0.599  0.2522 -0.1823  0.2296
 2916W        W18990   6.500  15.113   0.570  0.3671 -0.0804 -0.3227
 2917W        W18991  15.260   4.302   2.572  0.0187  0.4921  0.3782
 2918W        W18992   0.003  12.922   0.064 -0.0055 -0.0070 -0.1494
 2919W        W18993   5.121  16.927   0.528 -0.3702  0.1579  0.5847
 2920W        W18994   5.837   7.226  16.188  0.4428  0.1487  0.0257
 2921W        W18995  14.141  12.555   3.976  0.0929  0.0610 -0.0494
 2922W        W18996  18.211   7.429   1.561 -0.0773 -0.1084  0.3144
 2923W        W18997   7.136  10.733   0.689  0.1981 -0.0103 -0.3712
 2924W        W18998   1.912   8.042   3.390  0.0102 -0.1802  0.3026
 2925W        W18999  10.237   4.767   2.228 -0.1214  0.1103 -0.2067
 2926W        W19000  11.234   6.595  12.870 -0.0989  0.0554  0.1571
 2927W        W19001  11.626   8.564  15.077  0.1206  0.1238  0.1090
 2928W        W19002   6.883  10.355   4.922  0.0627 -0.0723  0.1439
 2929W        W19003   4.168  10.176  11.581  0.3042 -0.0900 -0.0004
 2930W        W19004  14.750   7.043  12.759 -0.0681  0.0403 -0.3148
 2931W        W19005  12.088   6.492  13.020 -0.0223  0.0986  0.3903
 2932W        W19006  18.120   2.894  16.259  0.1964  0.0968  0.1388
 2933W        W19007   2.540   7.242   0.113 -0.0066  0.1884  0.2081
 2934W        W19008   8.053  14.193  14.456 -0.3528 -0.1272 -0.1711
 2935W        W19009  17.848   9.480  12.592 -0.0660 -0.0572 -0.0722
 2936W        W19010  14.302   5.738   4.048  0.1039 -0.0621 -0.3571
 2937W        W19011   5.815  17.801   3.417 -0.0236  0.2937  0.0598
 2938W        W19012   4.525   0.153   5.735  0.0039  0.1380  0.1386
 2939W        W19013  14.503  11.050  15.240  0.0234  0.2111 -0.1888
 2940W        W19014   9.582  13.181  14.077  0.3947  0.1473  0.1298
 2941W        W19015   1.428   5.311  15.066 -0.1722  0.1055 -0.2306
 2942W        W19016  17.339   3.963   0.307 -0.0968  0.0097  0.1661
 2943W        W19017   7.112  13.179  11.438  0.1662 -0.1885  0.1039
 2944W        W19018   3.287   1.169   3.595 -0.1141 -0.2053 -0.2191
 2945W        W19019   6.190  10.898   1.453  0.1182 -0.0780  0.2163
 2946W        W19020   2.353  17.121   5.524 -0.0824  0.1382  0.1618
 2947W        W19021   7.477  12.796  12.650 -0.0442 -0.3164 -0.1865
 2948W        W19022  13.385  11.008  11.594  0.0486  0.2347  0.3147
 2949W        W19023   2.224   5.362  12.355 -0.1543 -0.1530  0.1802
 2950W        W19024   8.595   0.599  16.354  0.2004 -0.1401 -0.2951
 2951W        W19025  13.036  15.980   3.634  0.0481 -0.2812  0.2372
 2952W        W19026  17.985  16.919  14.236 -0.0216 -0.0216  0.0244
 2953W        W19027  14.337   9.788  12.201 -0.1005 -0.3311 -0.1233
 2954W        W19028  13.146  13.548  16.142 -0.2098  0.2788 -0.0770
 2955W        W19029  10.983   8.801   5.057 -0.3717  0.4645 -0.0352
 2956W        W19030   1.909  16.262  16.323  0.2092 -0.0668 -0.4733
 2957W        W19031   3.351   1.580  11.190  0.0384  0.0861  0.1649
 2958W        W19032  15.852   8.163  13.715  0.1224  0.2201  0.1641
 2959W        W19033   5.772  12.809  11.888 -0.0559  0.2375  0.1834
 2960W        W19034   3.912  11.121   0.744  0.1627  0.0128 -0.1725
 2961W        W19035   9.832   1.327  13.735  0.5190 -0.1270 -0.4348
 2962W        W19036   0.901   1.959   4.461 -0.1890 -0.0663 -0.2977
 2963W        W19037  14.815  15.610  11.511  0.1593  0.4836 -0.2946
 2964W        W19038  16.533  15.798  16.395  0.1828 -0.1350  0.0288
 2965W        W19039  11.422   8.002   5.056  0.1040  0.0175  0.0107
 2966W        W19040   7.542  12.340  12.374  0.3320  0.1586 -0.1726
 2967W        W19041  16.666  16.579  15.156  0.0569  0.0467  0.1945
 2968W        W19042   6.168  11.767  12.598  0.1932 -0.0275  0.2975
 2969W        W19043   6.133   5.883  12.705 -0.0620  0.0072 -0.3870
 2970W        W19044   1.757  17.649   1.326  0.0040 -0.1209  0.0031
 2971W        W19045   7.977   5.709  16.460  0.1536  0.1109  0.0858
 2972W        W19046   0.109  16.437  12.551 -0.1682 -0.1745 -0.1101
 2973W        W19047   0.544   1.358  12.806 -0.0272 -0.1103  0.0648
 2974W        W19048  14.068   5.225  15.469 -0.1934 -0.1094 -0.1780
 2975W        W19049   8.974   7.334   3.382  0.0415 -0.0496 -0.0691
 2976W        W19050  14.931  14.755  11.664 -0.0943 -0.1323  0.3507
 2977W        W19051  13.620  15.973  12.810  0.1056  0.1159 -0.1480
 2978W        W19052   1.363   9.476   2.459 -0.3465  0.0881 -0.2395
 2979W        W19053   4.690   1.597  15.451  0.2517 -0.2630 -0.1570
 2980W        W19054   3.961   5.627  14.095 -0.1245 -0.0185  0.0624
 2981W        W19055   4.875  10.744  16.439  0.2541 -0.0731  0.0497
 2982W        W19056   7.313   2.672   1.615  0.1268 -0.0874 -0.1300
 2983W        W19057   7.512   8.601  15.093  0.1116  0.2065 -0.3095
 2984W        W19058   5.853  17.230  13.708  0.1102 -0.3343  0.3599
 2985W        W19059  16.177  12.262   3.931  0.0096 -0.1774  0.2562
 2986W        W19060  13.877   7.248  16.175  0.0262  0.6842  0.2568
 2987W        W19061  10.759  12.725   0.854  0.0763  0.2852 -0.1476
 2988W        W19062  17.712   8.894   4.234  0.0171 -0.0771 -0.1991
 2989W        W19063  16.986   1.910  12.524 -0.1228  0.2936 -0.0157
 2990W        W19064   0.136   2.906   5.196  0.1315  0.0185 -0.1488
 2991W        W19065   6.751  17.681   4.790 -0.1708  0.2834  0.0430
 2992W        W19066  11.933   6.568  14.887  0.0507  0.1131  0.0371
 2993W        W19067   2.144   6.737   3.830  0.1959  0.0926  0.0185
 2994W        W19068  16.088   7.763  11.594 -0.1691 -0.0099 -0.1643
 2995W        W19069   3.602   2.240  12.750 -0.0459  0.0573  0.1260
 2996W        W19070  12.103   5.147   2.599  0.2833 -0.2971  0.0725
 2997W        W19071  10.093   0.341  13.696 -0.3966 -0.0785 -0.0119
 2998W        W19072  16.377  17.661  13.085  0.5061 -0.3433  0.1266
 2999W        W19073   1.129   6.108   0.099  0.1579  0.0694 -0.0358
 3000W        W19074   9.662   4.332  14.882 -0.0220 -0.4343 -0.1237
 3001W        W19075   5.847   7.809   3.274 -0.1475 -0.2179 -0.1198
 3002W        W19076   8.220   3.282  15.605 -0.1779  0.5298 -0.0119
 3003W        W19077   2.489   5.387   3.958  0.0892 -0.1315  0.0125
 3004W        W19078  15.963   2.806   2.409  0.0065  0.1933 -0.1495
 3005W        W19079   0.814  18.100  13.416  0.0289  0.0855  0.4633
 3006W        W19080   1.321   3.525   2.449 -0.1748 -0.1765 -0.1868
 3007W        W19081   3.796   1.209  15.770  0.0760  0.3587 -0.2022
 3008W        W19082  14.556  16.733   1.039  0.3456  0.1473  0.1237
 3009W        W19083   1.541   0.781  14.699 -0.1116  0.1041  0.0921
 3010W        W19084   0.717  12.867  13.776 -0.1698 -0.1276 -0.0062
 3011W        W19085   9.478  12.918  13.595 -0.1253  0.0041 -0.0238
 3012W        W19086  16.913   3.477  11.352 -0.1514 -0.0881 -0.4023
 3013W        W19087  11.005   9.779   0.241 -0.1574 -0.2065  0.0807
 3014W        W19088  10.087  11.835   0.519 -0.0092 -0.0193 -0.1994
 3015W        W19089   1.842  13.413   3.039 -0.0837 -0.2861  0.0657
 3016W        W19090  14.520   3.802   1.427  0.0584 -0.0602 -0.2069
 3017W        W19091   0.517  16.361  12.939 -0.2760  0.0034  0.0654
 3018W        W19092   4.303   4.198   1.562 -0.1417  0.1341 -0.0727
 3019W        W19093   9.391   5.589  11.775 -0.2435  0.0570  0.0422
 3020W        W19094   7.680  14.314   0.676  0.1398  0.2522  0.2750
 3021W        W19095  10.571  11.431   2.692  0.1596 -0.1302  0.0064
 3022W        W19096   4.550   0.155  15.070  0.0735  0.1409  0.0493
 3023W        W19097   0.416  13.147   0.122 -0.1161  0.2073 -0.1207
 3024W        W19098  12.272  11.714   0.896 -0.1517  0.2048  0.2496
 3025W        W19099  15.604  17.223  13.519 -0.0429  0.5673 -0.0618
 3026W        W19100   5.810  14.250  15.766  0.1457 -0.0097 -0.0409
 3027W        W19101  11.266   1.012   1.136  0.0969 -0.1464  0.0711
 3028W        W19102   8.055   0.681  14.706  0.2638  0.0032  0.4127
 3029W        W19103   6.125  12.040   0.977  0.0523  0.1219  0.0856
 3030W        W19104   1.816  10.912   3.002 -0.0411  0.0684  0.1213
 3031W        W19105  10.184  16.934  15.311  0.0574 -0.0131  0.1421
 3032W        W19106   9.252   3.873   0.650 -0.3881  0.1861 -0.1257
 3033W        W19107   7.683   2.861   6.043  0.0553 -0.0819 -0.1427
 3034W        W19108   8.708  12.771  14.889  0.2472  0.0539 -0.0362
 3035W        W19109   9.715   2.332   5.428  0.1581 -0.2156 -0.1878
 3036W        W19110   6.467   6.906   2.362 -0.1146 -0.0650  0.0756
 3037W        W19111  17.742   7.182   0.874  0.3578  0.0046  0.0557
 3038W        W19112  16.070   9.048   2.078 -0.0843  0.1254  0.0005
 3039W        W19113   8.641   2.803  16.183  0.4267  0.3151  0.0511
 3040W        W19114  17.125   9.598  13.911  0.0567  0.0423  0.5580
 3041W        W19115  11.346   2.221  13.782  0.0687  0.1637 -0.3892
 3042W        W19116   8.332   5.733   3.369 -0.3072 -0.1618  0.1065
 3043W        W19117  10.687  14.182   4.376 -0.1796  0.0232 -0.2050
 3044W        W19118   6.959  13.040   4.755  0.0972  0.1432 -0.0494
 3045W        W19119  10.269   9.335  10.768  0.0130 -0.0564  0.0324
 3046W        W19120  17.258   2.899  13.166 -0.0243 -0.3042  0.0404
 3047W        W19121   8.021  15.761  10.575  0.1268 -0.0957  0.2905
 3048W        W19122   4.823   8.981  15.128 -0.2341 -0.1157  0.1688
 3049W        W19123  17.419  10.558  15.466 -0.0206  0.4332  0.2389
 3050W        W19124   8.249   0.558   3.438  0.1129  0.3581 -0.0651
 3051W        W19125   5.073  10.933   0.943 -0.4327  0.3066 -0.1526
 3052W        W19126  17.487  13.582  13.054  0.0412  0.1354  0.2262
 3053W        W19127   1.962  16.283   3.422 -0.3318 -0.1445 -0.0491
 3054W        W19128   6.150  11.857  13.068 -0.4063 -0.2801 -0.0829
 3055W        W19129   3.692   8.534  12.995 -0.1514 -0.0881 -0.3497
 3056W        W19130  11.247  12.624   5.716  0.0388 -0.3251  0.1149
 3057W        W19131   2.493   4.329  13.638  0.0536 -0.0705 -0.0107
 3058W        W19132   3.003   2.098  14.684  0.3681  0.1263 -0.1443
 3059W        W19133   9.364   8.112   4.903 -0.0865 -0.2500 -0.1507
 3060W        W19134  10.056   3.108   2.714 -0.0095 -0.0557  0.1537
 3061W        W19135   8.978  12.588  11.560  0.0251 -0.4191 -0.0111
 3062W        W19136   8.125  11.130   2.600 -0.1172  0.0247 -0.0353
 3063W        W19137   1.694   4.573   1.594 -0.1729 -0.1612  0.0483
 3064W        W19138  10.839   3.428   6.183 -0.0406  0.0224 -0.0977
 3065W        W19139   7.126  14.453  13.641 -0.4627 -0.0105  0.3773
 3066W        W19140  17.697  12.831  14.343 -0.1484  0.3028  0.0942
 3067W        W19141   0.319   0.124   0.124 -0.2263  0.3147 -0.0486
 3068W        W19142   4.447  18.218  14.641  0.2727 -0.3113  0.1418
 3069W        W19143   4.329   1.619  15.978  0.0081  0.2057 -0.3969
 3070W        W19144   1.754   6.358  12.343 -0.1978 -0.1056  0.0249
 3071W        W19145  10.379   1.182   2.397 -0.2748  0.2985  0.2111
 3072W        W19146   6.399   6.179  12.401  0.3909 -0.0043  0.0619
 3073W        W19147   8.290   4.469  14.581 -0.0096  0.0934  0.1452
 3074W        W19148  10.252   5.655   1.224 -0.0745 -0.1937  0.3914
 3075W        W19149  10.024  12.667  11.934 -0.0172 -0.1700  0.2121
 3076W        W19150   8.301   0.837   1.705 -0.2420 -0.0310  0.0125
 3077W        W19151   0.215  13.672  12.760 -0.2245  0.1032  0.2920
 3078W        W19152  14.476   5.149   3.874 -0.1661  0.4312  0.1843
 3079W        W19153  16.634  10.305  13.509  0.1663  0.0484  0.1617
 3080W        W19154   7.811   3.649  12.856  0.0641 -0.1561 -0.1344
 3081W        W19155   5.811   1.322  10.944  0.1440  0.2168 -0.2974
 3082W        W19156   5.445   0.635   4.848 -0.1672  0.1813 -0.0207
 3083W        W19157   1.935   3.938   5.230 -0.0948 -0.1032 -0.0406
 3084W        W19158   5.099  15.582  14.196 -0.1521  0.3197  0.1544
 3085W        W19159   8.842  15.336   0.136  0.1608  0.0771  0.0281
 3086W        W19160  12.738  11.440  12.713 -0.3025 -0.0849  0.0978
 3087W        W19161   3.206   0.630  13.666 -0.0497 -0.0585 -0.5110
 3088W        W19162   4.760   3.796   3.906  0.0831  0.0169  0.0293
 3089W        W19163   2.304   9.728   2.464  0.2285 -0.1294 -0.5330
 3090W        W19164  16.956   6.981  15.446 -0.2409  0.3246 -0.2212
 3091W        W19165   0.897   2.241   1.390  0.0458  0.1614  0.0345
 3092W        W19166   4.426   7.519  13.969 -0.0182  0.0863  0.1424
 3093W        W19167   5.175   9.624   2.153  0.1271 -0.0519  0.5298
 3094W        W19168   6.536   5.731   4.602 -0.0055 -0.0011  0.2166
 3095W        W19169  14.720   3.688   0.963  0.0735 -0.1385 -0.1507
 3096W        W19170   3.447   4.376  12.075 -0.1371 -0.0203  0.1950
 3097W        W19171   6.498   2.203   3.729  0.0219  0.3670 -0.0577
 3098W        W19172  15.189   3.762   5.253  0.0727 -0.2144  0.1001
 3099W        W19173  15.849  15.846   2.448  0.0168 -0.0000 -0.0629
 3100W        W19174   4.050  17.683   4.496  0.1039  0.0358  0.1151
 3101W        W19175   3.624  10.616   0.797  0.0921  0.1683 -0.3189
 3102W        W19176   9.170  17.200  12.421 -0.1888  0.1011 -0.0805
 3103W        W19177  16.498   9.701   2.595 -0.0604 -0.3491  0.0506
 3104W        W19178   0.780  16.615   4.515 -0.0335 -0.1028 -0.0947
 3105W        W19179   7.494   8.698  12.106  0.3780 -0.1538 -0.0616
 3106W        W19180  11.205   0.019   3.717 -0.0504  0.0126 -0.1090
 3107W        W19181  10.131  12.398  14.660  0.0490 -0.0614  0.0807
 3108W        W19182   8.207   2.002  12.965  0.1543 -0.1649  0.0179
 3109W        W19183   0.745   2.745   2.211 -0.3769  0.0528 -0.0217
 3110W        W19184  15.314   2.208  16.389 -0.3060 -0.1205 -0.1312
 3111W        W19185  12.379   9.748  14.696  0.3395  0.0433  0.1400
 3112W        W19186  16.070   4.552   1.950 -0.0995 -0.2692 -0.4036
 3113W        W19187  10.947   5.674  13.175  0.3666  0.1859 -0.0325
 3114W        W19188  13.010   1.918  16.013 -0.2848  0.2274 -0.1514
 3115W        W19189  14.591   7.596  12.730 -0.0506  0.0641  0.2281
 3116W        W19190  11.336   1.183   4.206 -0.1505  0.2641  0.0995
 3117W        W19191  14.148   4.598   2.676 -0.3205 -0.0540  0.0352
 3118W        W19192  14.060  12.738   3.360  0.1804  0.1634 -0.0897
 3119W        W19193   0.288   5.448   0.805 -0.3886 -0.3272  0.1766
 3120W        W19194  13.688   8.525  12.732 -0.1479  0.1321  0.1199
 3121W        W19195  10.100   6.098   1.407  0.2164 -0.0432 -0.0775
 3122W        W19196  15.946  13.536   2.475 -0.2340  0.0061  0.2570
 3123W        W19197  11.621   7.668   0.655 -0.0890  0.2460 -0.1417
 3124W        W19198   1.073  16.400  15.308  0.0241  0.1571  0.0139
 3125W        W19199   2.213   8.902  12.572  0.1566  0.0084  0.2987
 3126W        W19200   8.088   2.134  12.055  0.2928  0.0218 -0.1628
 3127W        W19201  10.204  17.581  15.715  0.0004  0.3102  0.3788
 3128W        W19202   3.427  13.907   2.573  0.0069  0.0282  0.0823
 3129W        W19203   2.815  16.604   5.038 -0.0565  0.1045  0.0368
 3130W        W19204   6.653  10.813   0.648  0.0256  0.2138 -0.2646
 3131W        W19205  13.126   0.852  15.265  0.0396 -0.0554  0.3055
 3132W        W19206  14.374   4.545  16.029 -0.1440  0.2926 -0.2536
 3133W        W19207  14.654  18.159  11.924  0.0669  0.0999  0.3810
 3134W        W19208  15.248   6.459   1.090  0.0991 -0.4276 -0.1413
 3135W        W19209  14.083  13.017  15.373  0.2502 -0.1213 -0.5057
 3136W        W19210  16.899   2.570   0.519 -0.0905  0.0836 -0.1758
 3137W        W19211   3.289   5.345  11.101 -0.1098 -0.2058  0.0635
 3138W        W19212  12.664   3.813   2.854  0.2436  0.0708  0.1560
 3139W        W19213  11.902  17.221  10.672  0.0401  0.0964  0.0685
 3140W        W19214   3.061  15.357  15.719  0.3448  0.0612 -0.2484
 3141W        W19215   7.977   0.046   1.335  0.2541  0.1746 -0.0258
 3142W        W19216  12.858  12.744  12.170  0.1768  0.0200  0.1359
 3143W        W19217   3.387  12.170  16.278  0.0209 -0.3057 -0.1848
 3144W        W19218   4.908   0.485  15.311  0.2149  0.1037  0.2021
 3145W        W19219  17.717   5.014   1.230 -0.0476 -0.3366  0.1713
 3146W        W19220  17.202   8.838  12.137 -0.1005 -0.0209 -0.1776
 3147W        W19221   7.951   7.189  13.376 -0.3748 -0.2126  0.0395
 3148W        W19222  15.237   4.702   3.145 -0.2526  0.1488  0.1928
 3149W        W19223   2.452   5.319  15.202 -0.1545 -0.2110  0.0415
 3150W        W19224   9.286  10.566  13.587  0.0574  0.2089 -0.1724
 3151W        W19225  16.700   1.138   0.787  0.0661 -0.3302  0.1484
 3152W        W19226   1.694   5.535  12.615  0.1019 -0.1253 -0.0951
 3153W        W19227   4.530  12.379  15.904  0.0274  0.0487 -0.5350
 3154W        W19228   9.250  12.496   3.343  0.2456  0.3117  0.3947
 3155W        W19229  15.204  11.694   3.554 -0.1180 -0.2286 -0.1797
 3156W        W19230   9.014   8.272   3.314 -0.0445  0.0584 -0.0816
 3157W        W19231   7.836   8.532   0.803  0.1747 -0.1288  0.2038
 3158W        W19232  16.850   8.495   2.955 -0.0048  0.0704  0.1048
 3159W        W19233  11.292   3.741   4.748 -0.2582 -0.0199 -0.0332
 3160W        W19234   4.875   9.277   0.304 -0.2452  0.4564 -0.1907
 3161W        W19235   8.824  17.906  15.062 -0.5126  0.0525 -0.1556
 3162W        W19236   5.095   3.859  14.373 -0.0570  0.0575 -0.0412
 3163W        W19237   1.721   6.626  13.787 -0.1700  0.0916  0.2392
 3164W        W19238   7.126  14.194  15.555  0.3160 -0.0044  0.2315
 3165W        W19239   7.879   0.539   1.505 -0.0330  0.1642 -0.1359
 3166W        W19240   1.420   0.706  12.746 -0.1172  0.1320 -0.1586
 3167W        W19241   7.018  15.379  15.450  0.2080 -0.2055 -0.2042
 3168W        W19242   5.376   4.953  13.889 -0.1505  0.1544  0.0358
 3169W        W19243   6.287  14.064   0.333  0.0222 -0.3892 -0.3108
 3170W        W19244  15.021  14.994  12.250 -0.1092  0.0594 -0.2058
 3171W        W19245   2.919   7.939  15.285 -0.1435 -0.0629  0.1289
 3172W        W19246  15.108  11.638   1.132  0.1614  0.3057  0.2069
 3173W        W19247  15.094  14.684   0.114  0.1201 -0.0955  0.0102
 3174W        W19248  16.861   6.543  11.803  0.1501 -0.2330  0.2688
 3175W        W19249   9.908  15.034   2.619 -0.0970  0.0268 -0.0515
 3176W        W19250   3.487  11.855   4.600 -0.2856  0.1621  0.3289
 3177W        W19251  12.994   6.225   3.364  0.0701  0.0219 -0.0664
 3178W        W19252  10.506   7.295  13.173 -0.0393 -0.0486 -0.0498
 3179W        W19253   8.962   8.273  11.791  0.1648 -0.2392  0.2155
 3180W        W19254   9.717  14.002   0.646 -0.0736  0.0976  0.0398
 3181W        W19255  12.554   6.927   6.182  0.0424  0.0908 -0.0449
 3182W        W19256   7.405  14.234   4.801  0.3957  0.0685  0.2691
 3183W        W19257   5.930   0.430   3.485  0.0560  0.1164  0.1488
 3184W        W19258   1.537  15.057   5.219 -0.1709  0.3710  0.1385
 3185W        W19259   5.073   2.712  16.200 -0.2018  0.0840  0.0066
 3186W        W19260   9.993   4.644   0.044  0.0812 -0.1132  0.2455
 3187W        W19261  15.479   8.776   2.753  0.3465 -0.1738 -0.0971
 3188W        W19262  15.691  16.505  14.804  0.0105 -0.5285  0.2142
 3189W        W19263   7.978  10.590  14.902  0.1404  0.2159  0.2674
 3190W        W19264   0.653   2.910  14.853 -0.4923 -0.0338 -0.2769
 3191W        W19265   0.191   2.929  12.193 -0.3143  0.0244 -0.1823
 3192W        W19266   8.596  12.003  12.620 -0.0558  0.0533  0.0095
 3193W        W19267   2.386   9.753  13.890 -0.1283  0.1544 -0.5058
 3194W        W19268   2.183  12.917   0.779  0.1503 -0.0260 -0.1570
 3195W        W19269   2.359  16.630   5.388  0.0382  0.3596 -0.0382
 3196W        W19270   7.170  12.004  12.393 -0.1180 -0.0085 -0.0395
 3197W        W19271  10.505   6.055   3.452 -0.0043  0.3064  0.0172
 3198W        W19272   4.778  15.542  14.567 -0.1164 -0.1206 -0.1132
 3199W        W19273  15.232  12.850   4.600 -0.2234  0.1354  0.0845
 3200W        W19274  17.639  14.815   5.595  0.3035  0.0334  0.3915
 3201W        W19275   8.970   5.259  11.867 -0.3125  0.0866 -0.0679
 3202W        W19276   1.278   5.035   5.848 -0.1595  0.4555 -0.0969
 3203W        W19277   6.184  12.749  13.190 -0.0712 -0.1733 -0.1528
 3204W        W19278   5.323   8.583  11.682  0.0510 -0.2112 -0.1443
 3205W        W19279  16.926  16.341  14.221 -0.0043 -0.1088  0.2030
 3206W        W19280   8.969   1.742   4.684  0.4252  0.4205 -0.2410
 3207W        W19281  14.946   5.903   1.006 -0.2191 -0.1384  0.1670
 3208W        W19282  12.989  14.549  12.161 -0.0990  0.1880  0.0558
 3209W        W19283   5.826   8.415  11.613  0.0881  0.0248 -0.0468
 3210W        W19284  14.860   1.215  10.640 -0.0658 -0.3789 -0.3629
 3211W        W19285  16.874  17.877  12.016  0.0827  0.0374  0.0442
 3212W        W19286   7.592   8.293   5.630 -0.1505 -0.2039  0.0601
 3213W        W19287   4.306   1.600   3.783  0.2182  0.0457 -0.2905
 3214W        W19288  17.679  15.286   1.472 -0.1136  0.3031 -0.1297
 3215W        W19289  16.753   3.125   2.771 -0.2200  0.0335  0.0566
 3216W        W19290   8.534   4.068  14.379 -0.1026 -0.3537  0.0247
 3217W        W19291   5.664  14.918  13.736  0.2401  0.1550 -0.3791
 3218W        W19292  11.495   6.538   0.856 -0.2859 -0.3033  0.1247
 3219W        W19293  10.343   4.272   2.935 -0.3382 -0.4079 -0.0995
 3220W        W19294  13.754   4.294   1.089  0.2979  0.1027  0.0021
 3221W        W19295   0.193  14.010   2.423  0.1764 -0.2194  0.0904
 3222W        W19296  15.268   8.537   1.863  0.1714 -0.0711 -0.0666
 3223W        W19297  14.411   8.713  14.271  0.0704 -0.1303 -0.3291
 3224W        W19298  15.262   4.428   0.430 -0.0599  0.2316 -0.1519
 3225W        W19299  14.682   8.333  15.838  0.1721  0.2100 -0.0764
 3226W        W19300   1.592   2.185  12.860  0.2097 -0.0009 -0.1095
 3227W        W19301  12.729   4.242   1.028 -0.1850  0.3200  0.2377
 3228W        W19302   3.648   2.226  14.826  0.0571 -0.1056 -0.4041
 3229W        W19303   6.705  12.522   2.067 -0.3472 -0.4023  0.0397
 3230W        W19304   6.439  13.448  11.400  0.0514  0.0898  0.3081
 3231W        W19305   4.860   5.783   4.717 -0.0343 -0.1883 -0.2652
 3232W        W19306  16.820   6.796   2.889  0.0703  0.0402 -0.0113
 3233W        W19307   7.370  10.839   3.411 -0.0908  0.4117 -0.0385
 3234W        W19308  15.750   6.669   1.945 -0.1953  0.0710 -0.0133
 3235W        W19309  15.143  10.770   2.623  0.2094 -0.0126  0.3041
 3236W        W19310   3.782  15.435  12.816 -0.0773 -0.2017 -0.0120
 3237W        W19311   9.710  10.552   1.777  0.0030  0.1325  0.1575
 3238W        W19312  13.239  16.978   5.075 -0.3389  0.0373  0.0991
 3239W        W19313   4.976  14.970  11.645  0.0067  0.1624 -0.1435
 3240W        W19314   5.947   7.046  13.637  0.3752  0.0253 -0.1127
 3241W        W19315   7.939  15.832  15.506 -0.3778  0.0084  0.1452
 3242W        W19316   9.288  15.986   5.197  0.2460  0.2957  0.0654
 3243W        W19317   5.552  10.343   1.576 -0.1979  0.0392  0.0005
 3244W        W19318   1.796   6.537   2.451 -0.0709 -0.1359 -0.1535
 3245W        W19319   7.845  12.993  13.601  0.2903  0.2064  0.1586
 3246W        W19320  11.956  11.114  12.635 -0.2310 -0.0987  0.0376
 3247W        W19321   0.565   2.321  16.209 -0.1698 -0.0595  0.0612
 3248W        W19322   4.683   8.141   0.836  0.1553 -0.2356 -0.1709
 3249W        W19323   1.374   7.446  12.131  0.2132  0.0118  0.0331
 3250W        W19324   0.442   4.577  15.295  0.1631 -0.1285 -0.1091
 3251W        W19325   5.677   3.834   4.101  0.1764  0.1958  0.1079
 3252W        W19326   6.549   8.026  16.020 -0.0796  0.0716  0.3849
 3253W        W19327   6.110   3.611  14.147  0.2602  0.0880 -0.3078
 3254W        W19328  14.763   7.704   4.919  0.0719  0.2792  0.0083
 3255W        W19329   1.340  10.126  15.327 -0.1199 -0.3263 -0.1383
 3256W        W19330   4.920   3.122  16.542 -0.1770  0.0503  0.0353
 3257W        W19331   9.216  18.033  14.794  0.0534  0.1492  0.1120
 3258W        W19332  13.500  13.633  14.589 -0.7089 -0.0649  0.2755
 3259W        W19333  18.077   4.607  13.172  0.1959  0.2091  0.0906
 3260W        W19334  14.175   5.604  14.041  0.0509 -0.1627 -0.2355
 3261W        W19335  16.335   2.338  15.433  0.1418 -0.2047  0.1662
 3262W        W19336   9.560   1.858   3.889  0.0918  0.1874 -0.1483
 3263W        W19337   7.378   3.420   4.778 -0.2438 -0.1999 -0.0179
 3264W        W19338  12.836  13.448  12.724 -0.0043  0.0383 -0.0943
 3265W        W19339   8.029   8.112   5.451 -0.1113  0.1005  0.2143
 3266W        W19340  14.442   1.191  14.606  0.3094  0.0731 -0.1130
 3267W        W19341   7.606  15.648  10.927  0.0320  0.1620 -0.0461
 3268W        W19342   8.953   3.261  16.198  0.0727  0.2090  0.0756
 3269W        W19343   8.289  15.802   3.176  0.0446 -0.1609  0.0597
 3270W        W19344   5.656   3.879   2.038  0.1294  0.2406  0.2206
 3271W        W19345  16.591  14.474   1.464  0.0161  0.1196 -0.2827
 3272W        W19346  17.063  10.377  14.540  0.4103  0.0131 -0.4379
 3273W        W19347  11.710  16.029   2.557  0.1931 -0.0110  0.0136
 3274W        W19348  12.545  13.479  13.794  0.3321 -0.0576 -0.2105
 3275W        W19349   4.418  12.258  14.568  0.0871 -0.1066  0.0231
 3276W        W19350  11.850   5.753   3.156 -0.1927  0.4352  0.2689
 3277W        W19351   7.588   0.565  14.779  0.0769  0.2274  0.0223
 3278W        W19352   1.537   2.161   1.758 -0.2243  0.0083  0.0490
 3279W        W19353   6.661  14.778   3.088  0.0442 -0.0256  0.4152
 3280W        W19354   9.316   6.245   2.036 -0.1095  0.1547 -0.0934
 3281W        W19355   3.313   2.814  12.892 -0.1769 -0.2240  0.0226
 3282W        W19356   8.158  13.200   1.858 -0.3517 -0.0514 -0.1281
 3283W        W19357   5.062  13.929  11.592  0.2910  0.0497  0.1285
 3284W        W19358   0.419   7.767   4.564  0.0496 -0.0456 -0.2305
 3285W        W19359   8.717   1.675   1.110  0.1879 -0.3536  0.2491
 3286W        W19360  16.397   0.882   0.428  0.0363 -0.2453  0.1754
 3287W        W19361  11.010  10.652   3.759  0.0455  0.0779 -0.1606
 3288W        W19362  17.261  13.408   1.383 -0.0282  0.0508 -0.1955
 3289W        W19363  14.924   7.235   3.785 -0.0381 -0.1039 -0.0587
 3290W        W19364  15.917  15.369  10.697 -0.1753  0.1175 -0.0191
 3291W        W19365   0.128  17.028  13.837 -0.2295  0.2290 -0.2184
 3292W        W19366  11.056   6.754  13.936 -0.0147 -0.0953 -0.2400
 3293W        W19367  14.382   0.017   4.177 -0.1442  0.3097  0.1266
 3294W        W19368   1.738  14.404   0.506 -0.1181  0.0823  0.1323
 3295W        W19369  18.194   2.805   3.081  0.1921 -0.0151 -0.1549
 3296W        W19370   1.454   0.528   2.740 -0.1630 -0.1434 -0.0687
 3297W        W19371  17.112   5.540   2.854  0.2473 -0.1832  0.1600
 3298W        W19372   4.800   8.355   2.170  0.1119  0.1167  0.2277
 3299W        W19373  14.317  18.195   2.490 -0.0272  0.0007 -0.1485
 3300W        W19374   5.306  16.414   0.492  0.0648 -0.1572 -0.1173
 3301W        W19375   0.429  14.482   4.580  0.2263 -0.0366 -0.2779
 3302W        W19376   1.831   9.475  14.095  0.0072  0.2115 -0.1099
 3303W        W19377   9.301  11.536   0.785  0.0509  0.0901 -0.0022
 3304W        W19378  11.385  14.803   2.871  0.0485  0.0258 -0.0742
 3305W        W19379  13.818   5.372  12.971 -0.2973 -0.6400 -0.0793
 3306W        W19380  14.096   7.511   5.238  0.1519  0.0499  0.0254
 3307W        W19381   2.596   5.592   3.501  0.2379  0.2297 -0.1421
 3308W        W19382   0.151   2.658  10.975 -0.5452 -0.0386 -0.2172
 3309W        W19383  13.018   3.229  14.517 -0.1011  0.2211 -0.0453
 3310W        W19384  11.933  17.226  13.533 -0.3450 -0.1178 -0.1164
 3311W        W19385   6.719   5.161  13.718 -0.0500 -0.0246  0.3864
 3312W        W19386   8.509   6.658  15.447  0.2729  0.0355  0.1135
 3313W        W19387  11.786  13.255   4.142 -0.4901 -0.0645 -0.0292
 3314W        W19388  15.251   0.697  12.694  0.0471  0.0104 -0.0772
 3315W        W19389   0.520  16.245   1.017  0.0153 -0.4897 -0.0163
 3316W        W19390   3.380   3.891   5.526 -0.0217 -0.1091 -0.1008
 3317W        W19391   4.851   2.070   4.969 -0.1538  0.1540  0.0665
 3318W        W19392  15.742   0.958   5.280  0.0543  0.2612 -0.3749
 3319W        W19393   6.975  13.516  13.693  0.0134  0.0773  0.0709
 3320W        W19394  14.360   1.776  14.146  0.0372 -0.0447 -0.0652
 3321W        W19395   9.922   2.264  13.751 -0.1336 -0.0850  0.0997
 3322W        W19396  17.889  14.591  15.228  0.1300  0.1050  0.1901
 3323W        W19397  13.405   7.453  15.824 -0.0077  0.1900 -0.1846
 3324W        W19398   9.599   6.757   5.571  0.0678 -0.1275 -0.5000
 3325W        W19399   6.500   7.338   6.609 -0.1737  0.0376 -0.1840
 3326W        W19400   1.065  12.633  13.223  0.2533  0.0683 -0.1167
 3327W        W19401   4.730   6.903  14.766  0.5473  0.2507  0.0428
 3328W        W19402  17.991  12.798  15.077 -0.0622  0.1849 -0.3051
 3329W        W19403  14.180   9.880   3.437  0.0414  0.1746 -0.3494
 3330W        W19404   4.402   1.756  14.639  0.0643  0.1433  0.1580
 3331W        W19405  15.133  14.694   2.988  0.0528 -0.1671 -0.1964
 3332W        W19406  15.054  17.062  16.281  0.0114  0.1579  0.3185
 3333W        W19407   6.665  17.780  12.248 -0.3184 -0.0145 -0.0223
 3334W        W19408  16.792   2.685   9.549 -0.3129  0.1516  0.0852
 3335W        W19409   3.745   5.524   0.842  0.0399 -0.1035  0.4508
 3336W        W19410   2.794  14.350  15.697  0.0520 -0.0570  0.0823
 3337W        W19411   6.388   2.336  11.871 -0.0675  0.0546 -0.2506
 3338W        W19412  11.683   4.394  14.883 -0.0439  0.0500  0.0226
 3339W        W19413  16.828   0.956  12.189 -0.1331  0.0392 -0.3210
 3340W        W19414  15.966   7.266   1.096 -0.0537 -0.0751 -0.1106
 3341W        W19415   9.515  13.414   0.317  0.2110  0.4123 -0.1318
 3342W        W19416   0.007  13.257   5.124 -0.2184 -0.4151 -0.2057
 3343W        W19417   0.494  13.638  16.040 -0.3660 -0.1706 -0.2430
 3344W        W19418   5.732   1.534  15.864 -0.2696  0.2002  0.3467
 3345W        W19419   5.315  11.130  13.315  0.3665 -0.0010 -0.1330
 3346W        W19420   7.042   3.025   5.568 -0.1562  0.2352 -0.1461
 3347W        W19421  14.052   0.094  13.650 -0.1205 -0.1512 -0.0322
 3348W        W19422  13.727   6.123  13.413  0.0418 -0.0417  0.1311
 3349W        W19423   7.468   5.509  12.216 -0.2901 -0.2152  0.1179
 3350W        W19424   0.486   3.799  11.729  0.1263  0.1128 -0.1927
 3351W        W19425   0.889   5.935  13.890  0.0645 -0.1811  0.0041
 3352W        W19426   5.967   6.276  13.321  0.1099  0.0421 -0.1036
 3353W        W19427  13.690   2.614   4.249 -0.0263  0.0308 -0.0594
 3354W        W19428   9.566  12.762  15.440 -0.2140  0.2282 -0.0414
 3355W        W19429   0.294   8.558  14.619  0.0926  0.0285  0.0829
 3356W        W19430  17.790  12.919   1.835  0.0745  0.0765 -0.0326
 3357W        W19431   8.600   8.416   4.654 -0.3161 -0.0217 -0.1211
 3358W        W19432  17.245  16.277   0.614 -0.0024  0.4445 -0.2015
 3359W        W19433   3.153   0.734  12.906  0.1765  0.0635  0.0441
 3360W        W19434   1.694  13.092  14.589  0.0344  0.0685 -0.0139
 3361W        W19435  15.735   2.023   0.460  0.1431  0.1862  0.0603
 3362W        W19436  17.784  13.286   2.626  0.1677 -0.0899  0.0012
 3363W        W19437   6.209   6.036  13.766 -0.0051  0.2784 -0.0151
 3364W        W19438   1.820  11.061  12.701 -0.0841 -0.0751 -0.1100
 3365W        W19439  14.607   6.918  13.425  0.2629  0.1006  0.2486
 3366W        W19440   7.005  18.104   3.880 -0.1960  0.0672  0.1279
 3367W        W19441  11.216   7.142   0.957 -0.0649  0.2930  0.2500
 3368W        W19442   7.881   4.825  12.424 -0.3548  0.3178  0.3174
 3369W        W19443  13.091   8.909  15.071 -0.1569  0.2691  0.1054
 3370W        W19444   7.850  18.025   2.197 -0.1285  0.0532  0.1533
 3371W        W19445   1.603  17.830  16.275 -0.0971  0.1171  0.3739
 3372W        W19446   5.154   5.950   6.324  0.2505 -0.1092 -0.2017
 3373W        W19447   0.111   7.318  11.381  0.1977 -0.4728  0.0889
 3374W        W19448   0.638  14.710  13.789  0.1639 -0.1511  0.1604
 3375W        W19449   9.792   7.579  14.522 -0.2330 -0.2051  0.0062
 3376W        W19450   4.316   6.189  13.304 -0.2352  0.0416  0.2733
 3377W        W19451   1.131  11.829  13.923 -0.2397  0.0867  0.0557
 3378W        W19452   2.096   8.276  15.164  0.3673  0.1644 -0.0574
 3379W        W19453  12.858  15.687  13.026  0.1230  0.1787 -0.2093
 3380W        W19454   3.929   7.698  14.496 -0.1576  0.1775  0.2376
 3381W        W19455   4.865   7.582   3.289  0.3369 -0.5153  0.1444
 3382W        W19456   2.387   4.350   1.993 -0.4072 -0.4148 -0.1281
 3383W        W19457   0.557  10.959   1.251  0.0681  0.1765  0.1960
 3384W        W19458   6.316  16.879   3.000  0.1729 -0.1947  0.0901
 3385W        W19459   2.488   7.088   2.397  0.2288  0.2553 -0.1294
 3386W        W19460   3.526   7.742  11.859 -0.2059 -0.2012  0.0469
 3387W        W19461  14.667  12.516   0.931  0.1179 -0.0214 -0.1604
 3388W        W19462   9.905  10.150   0.915  0.1156  0.0352 -0.0479
 3389W        W19463   6.027  17.856  13.016 -0.3997  0.1124 -0.0832
 3390W        W19464   6.201   1.908  13.614 -0.2948  0.0821 -0.2878
 3391W        W19465  13.320   7.331   0.344  0.3576 -0.1193 -0.0746
 3392W        W19466  14.511  13.536  12.894 -0.0037 -0.0845  0.1068
 3393W        W19467   4.546   7.235   4.641  0.2968 -0.2647  0.0252
 3394W        W19468  11.820   5.699   1.021  0.2350 -0.0026 -0.2538
 3395W        W19469  14.158   6.259  13.188 -0.0036 -0.0561  0.1073
 3396W        W19470  15.558   0.206   2.853  0.2553  0.1059  0.2554
 3397W        W19471   4.477   5.989   4.246  0.0570  0.2318  0.1301
 3398W        W19472  15.179   2.660  13.501 -0.2075 -0.0301 -0.2677
 3399W        W19473   3.084   4.157  16.306 -0.1203 -0.1901 -0.2067
 3400W        W19474   7.966   4.088  14.630  0.2531 -0.1677 -0.0155
 3401W        W19475  16.816   7.992   5.306 -0.2638  0.0339 -0.1383
 3402W        W19476  11.860   4.873  16.140 -0.2317  0.0671 -0.4235
 3403W        W19477  18.022   5.777   5.156  0.1233 -0.0186  0.2474
 3404W        W19478   3.751   7.704  13.485  0.0462 -0.1402  0.1407
 3405W        W19479   1.265  10.213  14.013 -0.0113  0.3402 -0.2066
 3406W        W19480   2.739  16.125   1.841 -0.0296 -0.2315 -0.1447
 3407W        W19481  12.125   0.008   2.628  0.1398  0.0406  0.0471
 3408W        W19482   1.472   3.564  15.445  0.4078 -0.0868  0.2656
 3409W        W19483   0.554   7.236  11.139 -0.1209  0.2551 -0.4058
 3410W        W19484  15.787   5.276   3.830 -0.0247 -0.1318  0.0727
 3411W        W19485  14.405  16.230  14.874 -0.0556  0.0024  0.0780
 3412W        W19486   9.423   9.589   4.904 -0.0782 -0.2683 -0.0790
 3413W        W19487   9.517  16.980  13.746 -0.1124 -0.0578  0.0311
 3414W        W19488   2.326  17.674   0.703 -0.0047  0.2460  0.0380
 3415W        W19489   5.803   3.792  15.133  0.0159 -0.0110  0.0846
 3416W        W19490  16.097   0.397  14.755 -0.1103  0.2231 -0.0665
 3417W        W19491   3.774   3.729  13.865  0.0672 -0.1775 -0.0182
 3418W        W19492   7.361  17.109   3.516 -0.0493 -0.3113 -0.2184
 3419W        W19493   2.865   2.886  14.378  0.0382  0.1209 -0.1619
 3420W        W19494   8.034  14.320  11.624  0.2499 -0.4119 -0.2306
 3421W        W19495  16.346   4.644   1.584  0.1657 -0.0693 -0.0265
 3422W        W19496   7.191   4.804   5.469  0.2044  0.1415  0.1458
 3423W        W19497   7.266   5.921   0.170  0.0597  0.1380  0.1821
 3424W        W19498  11.003   6.844   1.336 -0.0354 -0.1509 -0.3379
 3425W        W19499   9.533   8.129   3.286  0.1353  0.0266 -0.0062
 3426W        W19500  15.322  16.496   4.024  0.3640  0.0666 -0.4090
 3427W        W19501   0.519   6.990   1.010  0.0870  0.0061  0.1910
 3428W        W19502   9.008  16.526   1.338 -0.1280 -0.1489 -0.1865
 3429W        W19503   3.046   4.562  14.822  0.0483  0.0528 -0.2129
 3430W        W19504  11.685   2.144   4.443  0.1785  0.0421 -0.1453
 3431W        W19505   6.030  11.869  15.641 -0.0327 -0.1194 -0.1483
 3432W        W19506   7.585   4.365  15.246 -0.1115  0.1893  0.0910
 3433W        W19507  17.226  10.615   3.809  0.2352  0.1266  0.1891
 3434W        W19508  12.126  16.985   1.458  0.1582 -0.0226 -0.1744
 3435W        W19509   2.583  14.843  12.845  0.0352  0.0734 -0.1763
 3436W        W19510  10.118   2.778  13.182 -0.0456  0.0194  0.0205
 3437W        W19511   9.394  14.339  11.817 -0.3449  0.0476 -0.1209
 3438W        W19512  10.522   0.215  14.640  0.1486  0.0248 -0.2470
 3439W        W19513  17.613   7.586   4.872  0.0177  0.0638  0.2935
 3440W        W19514  11.464   3.854   1.204  0.0475  0.0380 -0.3190
 3441W        W19515  17.903   6.643  14.412 -0.1668  0.1951 -0.2318
 3442W        W19516   4.510   1.952   2.381  0.0278  0.0945  0.0886
 3443W        W19517   8.063  16.468   1.438  0.4512  0.1593  0.2453
 3444W        W19518  12.546   5.819  13.450 -0.0668 -0.2760 -0.2541
 3445W        W19519  14.294   9.672  13.889  0.1012  0.1428 -0.4774
 3446W        W19520  12.934  16.549  13.062 -0.1337  0.0702 -0.1104
 3447W        W19521  12.816  17.602  13.835  0.5450 -0.2253  0.0001
 3448W        W19522   4.163   8.196   4.372 -0.0067  0.1400 -0.0466
 3449W        W19523  16.251   3.463   0.253 -0.1635 -0.4856  0.3187
 3450W        W19524   0.265   0.801   4.658 -0.2703  0.3914 -0.0469
 3451W        W19525   0.224  17.870   3.328 -0.0023  0.2035 -0.1065
 3452W        W19526   6.193  10.108   3.038  0.0389 -0.1175  0.0147
 3453W        W19527  12.728  10.502   0.221 -0.0317  0.0976  0.0568
 3454W        W19528  17.258  16.677  13.800  0.1354 -0.1157 -0.1414
 3455W        W19529   2.544   6.284   0.820  0.1678  0.3098 -0.0272
 3456W        W19530   5.212   3.118   4.168 -0.0792 -0.0270 -0.3310
 3457W        W19531   7.376   2.601   4.228  0.0010 -0.3769 -0.0388
 3458W        W19532   8.752   6.977   1.980  0.1081  0.1832 -0.2541
 3459W        W19533   7.884  12.573   3.573 -0.0948 -0.0027  0.2049
 3460W        W19534   9.604  11.781  14.640 -0.0824  0.0806  0.2484
 3461W        W19535   9.258   3.820  15.935 -0.1419  0.2799  0.0432
 3462W        W19536  17.489  16.853  10.857 -0.2583  0.0101 -0.1337
 3463W        W19537   6.516   9.836   5.635  0.3418 -0.0459 -0.1609
 3464W        W19538   2.339  15.446   3.178 -0.0287 -0.0599 -0.3410
 3465W        W19539   0.366   3.762   2.823  0.0622 -0.3705  0.0171
 3466W        W19540  15.864  17.695  11.694 -0.3050  0.0193 -0.1593
 3467W        W19541   3.986   8.137  11.298  0.0806 -0.1631 -0.2557
 3468W        W19542  14.789   1.306   2.486  0.0957  0.0041  0.0290
 3469W        W19543   4.175   2.258  16.534  0.3961 -0.0371  0.3485
 3470W        W19544  15.130  11.626   2.602 -0.2371 -0.0658  0.1196
 3471W        W19545   8.646   0.748   5.520 -0.0383  0.1330  0.4451
 3472W        W19546  16.300   8.789   1.613  0.3195  0.0310  0.1662
 3473W        W19547  17.070   9.221  11.825 -0.1263 -0.1679 -0.2099
 3474W        W19548   2.775  17.404  15.499 -0.0242  0.0097 -0.5460
 3475W        W19549  11.933   9.171   5.911 -0.1767  0.2072  0.0351
 3476W        W19550   0.101   4.303  13.944  0.0188 -0.0013  0.4390
 3477W        W19551  11.937  17.802   0.593  0.0813 -0.1597  0.0605
 3478W        W19552   3.816  16.060   3.569 -0.0608  0.1864 -0.0470
 3479W        W19553  12.087  11.645  13.379 -0.1824  0.0200 -0.0838
 3480W        W19554   0.296  12.251   0.531  0.0981  0.1352 -0.2826
 3481W        W19555  16.785   1.127   2.945 -0.1423 -0.2141  0.3752
 3482W        W19556  11.103  12.554   3.081  0.2069  0.0553 -0.2625
 3483W        W19557  16.859  17.089   2.257  0.2154  0.1253 -0.4521
 3484W        W19558   9.920   9.088   1.996  0.0305 -0.0067  0.4900
 3485W        W19559   7.914  15.122   1.818  0.0722 -0.0225 -0.3606
 3486W        W19560  10.773  12.495  14.785 -0.2050  0.3041  0.1757
 3487W        W19561  15.155  12.890  14.096  0.0704 -0.0166 -0.0068
 3488W        W19562   3.153  10.083   1.961  0.1378 -0.2276  0.3443
 3489W        W19563   0.128  12.528   0.969 -0.0635 -0.0309  0.0897
 3490W        W19564  17.675   5.303  13.005 -0.0370 -0.3344  0.0888
 3491W        W19565  13.846   7.311   0.613  0.0091 -0.0128  0.0343
 3492W        W19566  15.528   7.402   0.902 -0.2958  0.2850  0.0852
 3493W        W19567   8.527   0.648   4.992  0.0433  0.2615 -0.0792
 3494W        W19568   7.215  11.326  14.218 -0.1167  0.3416 -0.1579
 3495W        W19569  17.703  14.476  16.085  0.0363  0.1200  0.0341
 3496W        W19570  16.141   3.501   1.760  0.0859 -0.1885  0.1729
 3497W        W19571  11.720   0.044  15.137 -0.0208  0.0496  0.0878
 3498W        W19572   9.417   4.977  11.729  0.0817  0.5973 -0.0417
 3499W        W19573  10.095  16.331   1.757 -0.0637  0.0102  0.2489
 3500W        W19574   0.937   8.341   2.369  0.2479  0.1089  0.0547
 3501W        W19575   5.122  17.671  14.374 -0.3046  0.1539 -0.3855
 3502W        W19576  12.195  15.508  13.984  0.4731  0.1467  0.1040
 3503W        W19577   8.480  17.232   2.605 -0.2095 -0.2057  0.1378
 3504W        W19578   3.772  18.161  11.708  0.1834  0.0460  0.0123
 3505W        W19579  12.542   5.420   3.384 -0.1704  0.5222  0.1512
 3506W        W19580   2.128   1.304   4.666 -0.3577  0.1884 -0.0418
 3507W        W19581  17.855   3.898   4.850  0.0911  0.1500 -0.1991
 3508W        W19582  14.920  16.544  16.004  0.0922  0.4581  0.1901
 3509W        W19583  12.675   2.136   3.287  0.3790 -0.0948 -0.3799
 3510W        W19584  10.819  12.234  15.240 -0.3417 -0.4783  0.1900
 3511W        W19585  10.767   2.397  16.546  0.2428  0.2113  0.1544
 3512W        W19586  11.948   0.374   2.356 -0.0260 -0.0534  0.2398
 3513W        W19587   7.371   1.355   1.343 -0.2003  0.3597  0.0459
 3514W        W19588  17.047   8.909  15.059 -0.0986 -0.1861 -0.0418
 3515W        W19589  14.778   1.148   4.595 -0.4741 -0.2247  0.1182
 3516W        W19590   2.830  13.461  12.099  0.1836 -0.0077  0.2542
 3517W        W19591  12.165  12.493  12.874 -0.0105  0.1792  0.3401
 3518W        W19592  13.203   9.645  12.656  0.1233 -0.2475 -0.1422
 3519W        W19593   1.354   9.991   2.375 -0.0581  0.1035  0.2575
 3520W        W19594   5.072   4.944  14.267  0.0129  0.1191 -0.1003
 3521W        W19595   7.120   1.851  12.201  0.0485  0.1666 -0.1044
 3522W        W19596   3.647  17.059  12.307  0.1017 -0.1043 -0.0141
 3523W        W19597  17.493  13.665   0.133 -0.0062 -0.2142  0.0440
 3524W        W19598  10.497   7.171  15.293 -0.0303  0.1262  0.3367
 3525W        W19599   9.276   4.394   6.087 -0.2023 -0.1749 -0.1733
 3526W        W19600  13.721   7.382  13.957 -0.1930 -0.1147 -0.2241
 3527W        W19601   7.910  14.014   2.314 -0.2261 -0.2616  0.1357
 3528W        W19602   9.117   7.780   3.089 -0.1797  0.0483 -0.1514
 3529W        W19603   8.886   2.396  13.672 -0.0074 -0.0211 -0.1274
 3530W        W19604  16.197  14.294  13.124 -0.0062  0.1994  0.1266
 3531W        W19605   7.804   5.445   4.672  0.0475 -0.2371 -0.3792
 3532W        W19606   8.928   5.440  13.926 -0.2219  0.1235 -0.0591
 3533W        W19607  17.856  12.076   4.941 -0.2697  0.0547  0.1256
 3534W        W19608   7.147   8.509   2.279  0.1592  0.2748 -0.0506
 3535W        W19609  16.798  15.401   4.727 -0.2819 -0.1272 -0.0757
 3536W        W19610   5.074   0.740  16.131  0.2931  0.2312  0.0758
 3537W        W19611   4.659  14.410  15.718 -0.0012 -0.2880  0.1492
 3538W        W19612   3.778  14.582   3.381 -0.1387  0.2358 -0.2309
 3539W        W19613   5.517   7.586  15.321  0.2484 -0.1729  0.2539
 3540W        W19614  13.667   8.520   1.364 -0.1458  0.1734 -0.2001
 3541W        W19615  12.035  16.578   1.143 -0.1437  0.3160  0.0097
 3542W        W19616  11.837   9.578   3.227  0.1810 -0.0760 -0.1620
 3543W        W19617  16.933   3.513  14.464  0.0786  0.1857  0.1344
 3544W        W19618   1.744  18.163   0.345  0.1933  0.1599 -0.3022
 3545W        W19619   9.905   1.068   4.483  0.2470  0.1033  0.0780
 3546W        W19620  15.649   8.573  13.938 -0.1989  0.1251  0.1405
 3547W        W19621  13.268   2.083   0.397 -0.2999  0.1483 -0.0454
 3548W        W19622   5.884  16.180  14.993  0.2274 -0.0965  0.1350
 3549W        W19623   6.632  17.823   2.155 -0.2319 -0.2487 -0.2628
 3550W        W19624   3.595   5.675   2.112  0.0336  0.0856 -0.1912
 3551W        W19625  17.748  13.995  11.209  0.1301 -0.2317  0.2042
 3552W        W19626   1.304  13.333   1.875 -0.4011  0.1974  0.1195
 3553W        W19627  12.050   4.294   2.090  0.1013 -0.1006  0.0618
 3554W        W19628   9.347   9.244  16.394 -0.0798  0.0481  0.3317
 3555W        W19629   4.748   5.813   0.033 -0.0171 -0.0218 -0.0912
 3556W        W19630   5.659   2.903   1.671 -0.0584 -0.5570 -0.0656
 3557W        W19631   9.261   4.703   2.177  0.0220  0.2127 -0.2079
 3558W        W19632   8.521  14.149   3.880 -0.0179 -0.6309  0.0955
 3559W        W19633  11.953  12.285   1.838 -0.4199  0.0374 -0.2189
 3560W        W19634   8.816  11.892  13.475  0.0515  0.3457 -0.1811
 3561W        W19635   8.650  16.724   1.697  0.0036 -0.1570  0.0454
 3562W        W19636  12.374   8.271  11.721 -0.0539 -0.3328  0.0187
 3563W        W19637  11.105  15.943  13.127  0.2691  0.0949 -0.2734
 3564W        W19638   3.998   4.321   3.398 -0.0082  0.1645 -0.0917
 3565W        W19639   2.489   9.738  11.710  0.0787 -0.0349  0.1052
 3566W        W19640   4.585   3.575   1.897  0.1032  0.1710 -0.3466
 3567W        W19641  14.062  16.290  11.573  0.1027 -0.0161  0.0625
 3568W        W19642   8.034   3.122  12.816 -0.2656  0.0162  0.2906
 3569W        W19643   1.738   4.496  16.221 -0.1838  0.0291 -0.3189
 3570W        W19644   8.922  11.544   2.157 -0.3009 -0.0284 -0.1190
 3571W        W19645   1.062   2.146   2.025 -0.0276  0.3308 -0.0030
 3572W        W19646   3.690   6.475  15.357  0.2022  0.1866 -0.0460
 3573W        W19647  10.577  16.988   4.130 -0.1527  0.0069 -0.2887
 3574W        W19648  18.072   0.404   4.454  0.1387 -0.4316  0.1649
 3575W        W19649   3.743   1.149  13.536  0.3603 -0.2291 -0.1970
 3576W        W19650  10.318   3.199  12.980 -0.0906 -0.0716  0.1079
 3577W        W19651   2.788  16.308  15.461 -0.0182  0.2167 -0.2016
 3578W        W19652   9.986   7.609   5.146 -0.1721  0.0570 -0.0526
 3579W        W19653   1.239   4.679  15.274  0.0075  0.0883  0.2388
 3580W        W19654  14.163   9.694  15.734 -0.0151  0.0758  0.0799
 3581W        W19655  12.494   7.927  12.706 -0.1556  0.1060 -0.1392
 3582W        W19656  10.496  15.861  12.155 -0.2577 -0.1862 -0.0621
 3583W        W19657   0.751   0.561   2.739 -0.0112  0.2126  0.2603
 3584W        W19658  17.318   3.327   3.379 -0.0102  0.2816  0.1177
 3585W        W19659   6.731   5.931  15.447 -0.2587  0.0611  0.0913
 3586W        W19660  13.820   8.447   0.746 -0.0190 -0.0171 -0.1220
 3587W        W19661   5.991   0.363   2.945 -0.2669  0.1702 -0.0509
 3588W        W19662  13.550   5.150   1.634 -0.1265 -0.0823 -0.1161
 3589W        W19663  16.445  11.376  15.451  0.0101  0.0875  0.0248
 3590W        W19664  16.468  17.004  14.970 -0.2353 -0.1668  0.0465
 3591W        W19665   2.446  17.962  11.510  0.0960 -0.4086 -0.0446
 3592W        W19666  17.801  15.834  12.162 -0.2029  0.2119 -0.0790
 3593W        W19667   9.556   3.465   5.143  0.1622 -0.0103  0.2697
 3594W        W19668  11.488   5.107   5.479 -0.1838 -0.1173 -0.3247
 3595W        W19669   5.539  10.895  15.640  0.1860 -0.2203  0.0508
 3596W        W19670  14.734   6.594   3.129  0.1169  0.2255 -0.2204
 3597W        W19671   6.032   9.877  14.443  0.0147 -0.1417  0.2383
 3598W        W19672   9.902   1.170   0.142 -0.1118 -0.1949  0.0408
 3599W        W19673   1.877   7.074  11.818  0.0203 -0.2134  0.1279
 3600W        W19674  13.614   5.100   5.509 -0.2748 -0.4916  0.1135
 3601W        W19675  15.352  11.640  15.987 -0.2958  0.1354 -0.0431
 3602W        W19676  15.829   2.367  13.342  0.1889 -0.1131  0.1345
 3603W        W19677  14.930  15.982  15.984  0.0358  0.0747  0.1510
 3604W        W19678   1.945   0.973  12.399  0.0592  0.0858  0.2031
 3605W        W19679  13.377   2.925   3.470 -0.1103  0.1570 -0.1496
 3606W        W19680  10.344  18.089   3.782  0.0482 -0.0964 -0.1191
 3607W        W19681  10.699  17.283  14.034 -0.0277 -0.1699  0.0029
 3608W        W19682   0.733  15.161   1.566 -0.1251 -0.0918 -0.1969
 3609W        W19683   5.478   4.718   1.029  0.2130 -0.3681  0.0937
 3610W        W19684   6.646   3.251   2.752  0.1380  0.0568  0.1752
 3611W        W19685  11.892   2.349   0.865 -0.0925  0.1112  0.3929
 3612W        W19686  14.445  11.472   2.197 -0.1375  0.0137  0.2645
 3613W        W19687   1.330   0.605   0.824  0.0494 -0.0444  0.2339
 3614W        W19688   2.640   7.987   0.651  0.1089  0.1210  0.1527
 3615W        W19689   1.157   7.327   1.642 -0.1113 -0.2113  0.1906
 3616W        W19690   2.451   3.485  15.841  0.1693 -0.1700  0.2541
 3617W        W19691  10.595  18.115   5.315  0.1103  0.1616  0.0551
 3618W        W19692   9.805   8.155  12.289 -0.1261  0.0881  0.0532
 3619W        W19693   4.758   9.815  14.582  0.2243 -0.1407  0.0272
 3620W        W19694  14.460   7.193   2.829  0.1998  0.0593  0.2605
 3621W        W19695  17.415  14.866   1.282  0.1193 -0.0820  0.1117
 3622W        W19696   8.053  16.619   1.930  0.0393 -0.0578 -0.0110
 3623W        W19697   1.587  10.660  12.557  0.2215 -0.2560 -0.0302
 3624W        W19698   1.300  10.469   1.180 -0.0099  0.1403  0.0911
 3625W        W19699  11.471   9.637  13.476 -0.0067  0.3305  0.0868
 3626W        W19700   2.981   7.833   4.977 -0.0985  0.0457 -0.0711
 3627W        W19701   9.919   5.864   0.900 -0.2031 -0.1691 -0.1685
 3628W        W19702   9.405  17.606  11.766 -0.1757 -0.0191 -0.0592
 3629W        W19703  13.398   6.649  13.935  0.1136  0.2025 -0.0498
 3630W        W19704  16.871   8.109  14.602  0.0057 -0.2872 -0.0805
 3631W        W19705   1.248  10.626  15.533 -0.2103 -0.1396  0.2933
 3632W        W19706   5.439   8.089   4.803 -0.2655 -0.3858 -0.0049
 3633W        W19707   2.936  10.868  13.203  0.0473 -0.1322 -0.0492
 3634W        W19708   8.252   1.734  14.370  0.3688 -0.3117  0.1200
 3635W        W19709   4.157  11.030   2.156 -0.3221  0.0990  0.3573
 3636W        W19710  17.222  15.926   0.299 -0.2133 -0.1789  0.3717
 3637W        W19711  14.487   6.375  16.170 -0.0331  0.1104 -0.0923
 3638W        W19712   7.765   7.929  14.334  0.0827  0.4627  0.0811
 3639W        W19713   5.292  16.966  14.399 -0.4259  0.4038  0.1610
 3640W        W19714   2.301   3.511  12.840  0.3341 -0.2624 -0.0434
 3641W        W19715   3.116  12.198   1.382 -0.0895 -0.2535  0.0897
 3642W        W19716   6.269   1.205   1.366 -0.1109 -0.2814  0.5566
 3643W        W19717  11.057  13.170   1.598 -0.2749  0.1273 -0.0479
 3644W        W19718   0.286  14.448  12.356 -0.0320  0.1472  0.0827
 3645W        W19719  10.596   5.151  11.636 -0.1072  0.0564  0.0130
 3646W        W19720  11.148   3.588   0.998  0.1047  0.1641  0.0590
 3647W        W19721  16.442  11.106   1.579 -0.0800 -0.3183  0.3389
 3648W        W19722   5.653   1.671  12.594  0.2006 -0.2623 -0.0331
 3649W        W19723  11.642   8.034  12.808 -0.0658  0.1751  0.1669
 3650W        W19724  10.635  17.791  11.756 -0.1848  0.0222  0.1150
 3651W        W19725   6.754  15.920   0.540 -0.1141  0.1853 -0.1198
 3652W        W19726   4.559   8.814   0.373 -0.1125  0.0087  0.1766
 3653W        W19727   3.102   3.768   2.092  0.3031 -0.3789  0.0608
 3654W        W19728  10.982  16.337  13.432  0.2382  0.0875  0.1335
 3655W        W19729  18.010   5.676   2.915 -0.3852 -0.0714 -0.3227
 3656W        W19730   1.602   3.937   2.140 -0.2623 -0.0586  0.1781
 3657W        W19731   5.803   6.452   4.427 -0.1236  0.2964 -0.0999
 3658W        W19732   7.205   8.944   6.095 -0.0599 -0.0393 -0.0414
 3659W        W19733  10.967  18.150  15.004  0.0952 -0.2300 -0.0051
 3660W        W19734  16.116   4.002   4.025  0.0637 -0.3467 -0.3255
 3661W        W19735   3.441  17.177  11.886 -0.2566 -0.2691  0.2700
 3662W        W19736   1.978  13.760   2.354 -0.0281  0.0148 -0.0953
 3663W        W19737  10.556  16.983  14.787 -0.1438  0.1569 -0.1191
 3664W        W19738   6.542  15.536  16.009 -0.4101 -0.1731 -0.1938
 3665W        W19739  10.605  10.399  14.624 -0.2396 -0.4528 -0.0675
 3666W        W19740   6.059   9.709   5.871 -0.1614 -0.4082 -0.0467
 3667W        W19741  11.471   6.190   4.324 -0.3762  0.2236  0.2357
 3668W        W19742  14.844   8.526   1.521 -0.0445  0.0766 -0.1774
 3669W        W19743  15.959  16.916  13.839 -0.0938 -0.0869 -0.0106
 3670W        W19744   7.137   4.937  15.965 -0.4223  0.2697 -0.0618
 3671W        W19745  14.096  11.513   0.103  0.1814  0.0901 -0.1687
 3672W        W19746   2.256  14.396  13.179 -0.2376  0.0166  0.0219
 3673W        W19747  16.312   0.232   3.898  0.3007  0.0451  0.0643
 3674W        W19748   3.509   3.127   3.214  0.0017 -0.0693  0.2841
 3675W        W19749  11.516   3.897  15.953 -0.2640  0.0440 -0.1799
 3676W        W19750  15.652  17.155  16.020  0.3045  0.0060 -0.2695
 3677W        W19751   6.764   2.759  14.042 -0.0512  0.0803  0.1128
 3678W        W19752   0.923   0.201  12.002 -0.3738  0.0168 -0.0747
 3679W        W19753   1.084  15.568  13.430 -0.1468  0.3712 -0.1686
 3680W        W19754   8.049  15.483  15.115  0.3303 -0.0799 -0.0863
 3681W        W19755  16.699   1.632  15.735  0.1064 -0.0650  0.0368
 3682W        W19756  11.404  10.058   0.536 -0.0113 -0.0136  0.0703
 3683W        W19757   9.895   0.804   2.994  0.1441 -0.3297  0.0363
 3684W        W19758   7.638  15.469   2.603 -0.2509 -0.0017  0.1769
 3685W        W19759  14.674   0.300   0.833  0.1465  0.1371  0.2047
 3686W        W19760   3.097  18.056  11.017 -0.3986  0.1202 -0.3070
 3687W        W19761  12.762   5.477   4.436  0.0302 -0.0873 -0.0288
 3688W        W19762   5.329   2.714  15.350 -0.0912 -0.5746  0.2791
 3689W        W19763   6.161  13.187   2.333  0.0540  0.2957  0.1772
 3690W        W19764   6.134  14.979   4.758 -0.3103 -0.0504  0.1369
 3691W        W19765   5.916   4.049  13.060 -0.0544  0.1924 -0.0733
 3692W        W19766  14.365   5.934   1.049  0.1056 -0.2154  0.3609
 3693W        W19767  12.276  15.199  13.614  0.5597  0.3520  0.1110
 3694W        W19768   9.026   1.536  15.370  0.0078  0.4409 -0.0790
 3695W        W19769  15.749   3.925   2.493 -0.0386  0.1975  0.4969
 3696W        W19770   9.253   3.723  13.572 -0.1206 -0.2522  0.0252
 3697W        W19771   9.558  12.613  11.811 -0.1541  0.0202 -0.1505
 3698W        W19772   9.547  16.652   0.615  0.0679 -0.1049 -0.0198
 3699W        W19773   4.021  13.308  14.511 -0.2417  0.1340 -0.0635
 3700W        W19774   2.920  14.816   2.683  0.0791 -0.1529 -0.0818
 3701W        W19775  15.477   4.700   1.365 -0.1446  0.1359  0.1163
 3702W        W19776   7.119  17.570  13.208 -0.2837 -0.2038 -0.0389
 3703W        W19777   7.250   4.684  11.747 -0.2088 -0.2751 -0.2821
 3704W        W19778   0.629   5.855  15.089 -0.2713  0.1928  0.1022
 3705W        W19779  14.519  12.881   3.938 -0.3873 -0.0267 -0.2571
 3706W        W19780   7.610  11.665  15.039 -0.1666  0.0805 -0.1658
 3707W        W19781   8.965  10.185   0.175 -0.2601  0.0113 -0.0391
 3708W        W19782   9.728   4.740   3.534 -0.0692  0.2111  0.0052
 3709W        W19783   8.980   7.822  14.074  0.1205  0.1536 -0.1385
 3710W        W19784  10.987   6.587   4.034 -0.1661  0.3110 -0.0464
 3711W        W19785  14.481  15.486   1.356 -0.0921 -0.1102 -0.0739
 3712W        W19786  17.120  10.552  13.614 -0.1354  0.0843 -0.1328
 3713W        W19787  17.116   7.307   4.732  0.0103  0.2804  0.0625
 3714W        W19788  11.770  17.121   5.419 -0.0351  0.2313  0.1428
 3715W        W19789  17.088  15.635  11.375  0.0180 -0.0799 -0.1549
 3716W        W19790   2.063   5.034   2.452  0.4777  0.3058  0.3418
 3717W        W19791  11.760   7.702  13.172 -0.1064  0.1705  0.0794
 3718W        W19792   6.275  17.644  11.414 -0.1459  0.2257  0.0557
 3719W        W19793  12.723   9.650  15.213 -0.1822 -0.0797  0.0703
 3720W        W19794   0.214  11.335   0.213  0.4057 -0.0099 -0.1686
 3721W        W19795   3.976   2.759   3.290 -0.0244 -0.1477  0.0017
 3722W        W19796  17.238  10.462  14.083 -0.1182 -0.0738 -0.2469
 3723W        W19797  14.925  15.507  12.858 -0.0515 -0.0345  0.1137
 3724W        W19798  15.351   4.348   1.721 -0.2379  0.2989 -0.2257
 3725W        W19799   6.555  10.578  14.879  0.1617 -0.5154  0.2099
 3726W        W19800   9.945  12.945   3.109 -0.4960  0.2729 -0.2417
 3727W        W19801  15.326   5.874  16.422  0.0868  0.2834 -0.1211
 3728W        W19802   2.376   6.027   3.331 -0.0007  0.1588 -0.1501
 3729W        W19803   0.905   1.627  14.027 -0.1908  0.3062  0.5148
 3730W        W19804  13.391  13.366  12.292 -0.0278  0.2322 -0.2842
 3731W        W19805  15.884   9.248  12.450  0.0806  0.0023  0.2452
 3732W        W19806   8.576  13.211   6.181  0.1775 -0.1097 -0.0472
 3733W        W19807  15.661  17.414  15.546 -0.0822 -0.4625 -0.1636
 3734W        W19808   3.612   7.698  12.927 -0.0958 -0.1330  0.0704
 3735W        W19809   0.101  18.074   1.285 -0.2218 -0.0281 -0.2408
 3736W        W19810   1.577  10.795   0.370 -0.2893  0.1100  0.1188
 3737W        W19811  15.878   4.193  12.576 -0.1894 -0.1245 -0.0743
 3738W        W19812  10.154  14.792   5.403  0.1793 -0.0554  0.1436
 3739W        W19813  13.022   6.013  13.372 -0.1498  0.0141 -0.0299
 3740W        W19814   4.776  16.839  14.339 -0.5427  0.1040 -0.0315
 3741W        W19815  17.352  11.508   3.359  0.4227 -0.0421 -0.2179
 3742W        W19816   9.765   9.221   4.806 -0.0403  0.1445  0.1628
 3743W        W19817  13.044   1.162  11.838  0.1646  0.0155  0.2667
 3744W        W19818   3.123   1.164   4.347 -0.0341 -0.1712  0.0939
 3745W        W19819   6.431  12.620   1.669  0.0254  0.1644 -0.0772
 3746W        W19820   4.188  17.017   2.746  0.0012 -0.0827  0.1222
 3747W        W19821  12.241  13.058   2.922 -0.3665 -0.2314 -0.1873
 3748W        W19822   9.441   9.723   2.724 -0.0728 -0.2009 -0.1064
 3749W        W19823   0.239   3.148  14.615 -0.0415  0.0138  0.1605
 3750W        W19824  14.215   9.322  14.877 -0.1212  0.0159  0.5042
 3751W        W19825  17.981   9.026   2.730 -0.0154  0.1478  0.0072
 3752W        W19826   5.364  14.167  15.398  0.1782 -0.0566 -0.2654
 3753W        W19827   6.951  14.752   0.599 -0.2265  0.1402  0.0816
 3754W        W19828  15.978  17.391   2.272 -0.1167 -0.2064 -0.0282
 3755W        W19829   7.141  11.691  13.868 -0.1178 -0.0543  0.2691
 3756W        W19830  13.627   4.436  13.314 -0.2468 -0.1820 -0.0183
 3757W        W19831   2.170  10.807   0.707 -0.1798  0.1443 -0.0917
 3758W        W19832  13.507  10.725   0.387 -0.1681 -0.1217 -0.2875
 3759W        W19833   3.222  12.276  11.282 -0.0399  0.0281  0.1332
 3760W        W19834   9.770  12.987   3.921  0.2104 -0.1068  0.2544
 3761W        W19835  14.527  10.653  13.710 -0.0585 -0.2693 -0.0247
 3762W        W19836  13.726   9.199   0.659 -0.1219  0.0680  0.0658
 3763W        W19837   9.725   9.551  11.921  0.0347  0.1311  0.1687
 3764W        W19838   4.336  18.092   1.754  0.0389 -0.0369  0.1678
 3765W        W19839   1.951  10.933  15.777  0.2431  0.2418  0.0271
 3766W        W19840  10.231   7.725  12.966 -0.1902 -0.0300  0.0082
 3767W        W19841  12.461  13.824  12.452 -0.1892 -0.1860  0.1541
 3768W        W19842  16.699   0.818  14.719 -0.0559 -0.0140 -0.0953
 3769W        W19843   0.036   2.655   1.396 -0.0059 -0.1173 -0.0447
 3770W        W19844  18.222   1.641  11.400  0.0455 -0.1586  0.0649
 3771W        W19845   4.084  17.060   3.225 -0.0215  0.2486 -0.0217
 3772W        W19846   6.481   7.737   1.837  0.1212 -0.0084  0.0454
 3773W        W19847   9.558   8.653   1.191  0.1651 -0.0703  0.4294
 3774W        W19848   7.703   1.399   5.872 -0.0156 -0.0151  0.1107
 3775W        W19849  12.354   8.786  11.665  0.2618  0.2271  0.0507
 3776W        W19850  16.358   1.788   5.315  0.0034  0.1827 -0.1113
 3777W        W19851  15.645   3.053   0.937  0.0233  0.1090 -0.1974
 3778W        W19852   6.037  13.885   1.102 -0.1431 -0.1053 -0.4565
 3779W        W19853  11.038  12.936   0.107 -0.1448 -0.4640  0.1141
 3780W        W19854   8.692   6.194  15.843  0.1199  0.0630 -0.3715
 3781W        W19855  17.494   7.066  15.403  0.1875 -0.1406  0.1500
 3782W        W19856   2.936   9.438  16.135  0.2326  0.0213 -0.1863
 3783W        W19857  12.096   7.827  14.928  0.0628 -0.2279 -0.3168
 3784W        W19858   9.320   5.484   1.296 -0.0136  0.0925 -0.1543
 3785W        W19859  14.073   1.712   3.122  0.0337 -0.3357 -0.1309
 3786W        W19860   3.071   7.477  12.835  0.2052  0.0108 -0.2651
 3787W        W19861  11.251  14.776  11.316 -0.0889  0.1424  0.1927
 3788W        W19862   6.261  14.505   1.884  0.1834  0.2548 -0.1417
 3789W        W19863   7.447  14.912   5.109 -0.0361  0.3575  0.3025
 3790W        W19864   8.204  11.618   1.304  0.1923 -0.0945 -0.0697
 3791W        W19865  12.348   5.562   2.943  0.1094 -0.0347 -0.0677
 3792W        W19866  13.364   5.661  13.592  0.0704  0.2821  0.1729
 3793W        W19867   5.497   1.798  14.335 -0.1120 -0.2315 -0.1582
 3794W        W19868  17.762   6.623   4.088  0.0625 -0.2940 -0.4030
 3795W        W19869   6.872   0.463  12.380  0.0710 -0.0402 -0.0443
 3796W        W19870  13.470   6.417  15.539  0.0028 -0.1495  0.0981
 3797W        W19871  14.920   1.402   5.042  0.2570  0.1600 -0.1204
 3798W        W19872  15.674   9.958   0.468  0.0729 -0.0205  0.1273
 3799W        W19873   7.084  10.226  12.375  0.3262  0.0919  0.0015
 3800W        W19874  10.937  14.071   2.732 -0.1312  0.3811  0.0138
 3801W        W19875   6.128   1.756  12.370 -0.2790 -0.1154 -0.0741
 3802W        W19876  13.161  16.085  14.809  0.0100 -0.0584 -0.2615
 3803W        W19877  12.903  12.557   3.420  0.0466  0.3708 -0.0448
 3804W        W19878  12.410   4.164   5.526 -0.0222  0.2186 -0.0607
 3805W        W19879   1.636  16.014   0.091 -0.4221  0.0319  0.0083
 3806W        W19880  17.095   1.283  14.281 -0.4699 -0.0422 -0.1170
 3807W        W19881   4.582  14.483   0.436  0.0282 -0.3234 -0.0512
 3808W        W19882  17.146  12.839  13.479 -0.2171  0.4469 -0.1348
 3809W        W19883   3.524  17.998  13.324 -0.2715  0.1306  0.0551
 3810W        W19884   2.144   0.995   0.951 -0.0325 -0.1244 -0.0640
 3811W        W19885  15.209  12.600   1.200 -0.0746  0.0775 -0.4181
 3812W        W19886  17.003   7.592  11.595 -0.2581 -0.3072  0.1216
 3813W        W19887   3.685   0.325   4.858 -0.1657 -0.1871 -0.1549
 3814W        W19888   1.807  15.382  13.986 -0.3302 -0.0291  0.3246
 3815W        W19889   4.151   4.204   5.096 -0.2955 -0.2308 -0.3172
 3816W        W19890   4.869   7.033  15.255 -0.0374  0.3132 -0.0094
 3817W        W19891  17.391  12.851   1.515  0.1289  0.3590 -0.2853
 3818W        W19892   5.581   0.949   3.554  0.1059 -0.1122  0.3017
 3819W        W19893  15.271  16.269  12.033 -0.1306  0.1381 -0.0052
 3820W        W19894   7.550   9.291   5.097 -0.2782 -0.1427  0.0589
 3821W        W19895  16.515  11.030  15.070 -0.1464 -0.0161  0.1672
 3822W        W19896  16.615  13.681   0.660  0.1422 -0.1069  0.1839
 3823W        W19897  10.919   9.335   4.270 -0.0533  0.1228 -0.0062
 3824W        W19898   2.480  13.937   2.367 -0.1444 -0.1248 -0.1512
 3825W        W19899  11.335   8.643   0.714  0.3994 -0.1480  0.1088
 3826W        W19900  12.523   7.837   1.994 -0.3226  0.1467  0.1634
 3827W        W19901   6.398  13.612   0.065 -0.1165 -0.0454 -0.1086
 3828W        W19902   1.011  17.690  15.612  0.0518 -0.2645  0.0174
 3829W        W19903   0.020  14.481  11.828  0.1260  0.1117 -0.2768
 3830W        W19904   7.022   6.882  13.616  0.0967  0.0311 -0.6846
 3831W        W19905  11.841   4.767   0.882  0.0731 -0.0582 -0.0766
 3832W        W19906   4.878  11.349  11.859 -0.3115  0.2922  0.0583
 3833W        W19907   0.893  10.596   0.263  0.0786  0.0947  0.1860
 3834W        W19908   7.624   2.964  13.465 -0.0758 -0.0037  0.0415
 3835W        W19909   2.224  16.117  11.396  0.1272 -0.5095  0.0040
 3836W        W19910  10.750   5.332  15.484  0.0820 -0.1444 -0.2599
 3837W        W19911   1.287  14.219   4.703  0.0485 -0.0014  0.1786
 3838W        W19912   3.246  10.417   4.786  0.2733 -0.2134  0.1390
 3839W        W19913   4.117  15.608   0.141 -0.1154  0.0499  0.0076
 3840W        W19914   7.628   4.908   0.133  0.1959  0.0229 -0.0259
 3841W        W19915   6.771   8.507   1.922 -0.0228 -0.2071  0.1719
 3842W        W19916   4.721   8.125   4.055 -0.2479 -0.0451 -0.1277
 3843W        W19917   6.656  14.144   1.165 -0.2969  0.4001 -0.0783
 3844W        W19918   9.030  17.608  14.112  0.1176  0.2912  0.4796
 3845W        W19919   8.094  13.077  15.876  0.3318 -0.4791 -0.2740
 3846W        W19920  13.560  17.647   3.637 -0.1503 -0.1723  0.1759
 3847W        W19921  12.904  10.097  13.103  0.0218  0.1708 -0.0377
 3848W        W19922   8.309  16.125   5.577  0.0824  0.5043  0.0067
 3849W        W19923   9.062  14.707   4.502 -0.0008 -0.0589 -0.3808
 3850W        W19924  15.871   8.229   3.999  0.2621 -0.2468 -0.3692
 3851W        W19925  11.343  15.440  15.395 -0.2261  0.2939  0.0828
 3852W        W19926   4.532  14.461  11.996 -0.3404  0.0825 -0.0759
 3853W        W19927   9.979   4.896   5.790 -0.0395 -0.3465  0.2322
 3854W        W19928  14.494  17.041  14.921  0.0078  0.3173  0.1945
 3855W        W19929  17.394  17.598   5.129  0.2800  0.0108 -0.0283
 3856W        W19930  11.447  17.526  12.751  0.1886 -0.0519 -0.1424
 3857W        W19931   0.014   9.781   2.424 -0.0286  0.1348  0.0457
 3858W        W19932  12.374   0.270   5.262 -0.3815  0.0483 -0.0296
 3859W        W19933  17.926   7.236   2.246 -0.1453 -0.3430  0.0063
 3860W        W19934   2.621  12.882   1.441  0.3820 -0.0849 -0.4322
 3861W        W19935  16.150  18.076   0.299 -0.1236 -0.0819 -0.3706
 3862W        W19936  12.028  13.623   3.160 -0.2324  0.0666 -0.0409
 3863W        W19937  10.629   0.722  16.242  0.1815 -0.1505  0.1273
 3864W        W19938   1.381   6.604  15.127 -0.1043 -0.0937  0.1163
 3865W        W19939  17.325  15.694  12.511  0.0945 -0.3085 -0.1428
 3866W        W19940  11.951  10.759   1.071 -0.0974 -0.1760 -0.0038
 3867W        W19941   8.474   9.239   4.971  0.3670  0.0109  0.1038
 3868W        W19942  16.039  14.035   2.568 -0.1877 -0.0934  0.1277
 3869W        W19943  11.196   5.819   1.160 -0.0054  0.2428 -0.0437
 3870W        W19944  10.390  17.554   2.284  0.1645  0.3779 -0.2830
 3871W        W19945  17.993  14.243  14.154  0.2242 -0.0629 -0.0382
 3872W        W19946  16.443   1.161   4.019  0.1604  0.1090 -0.0225
 3873W        W19947   4.228   4.729  12.824 -0.4491  0.1241  0.0855
 3874W        W19948  12.500   0.009   1.952 -0.0324  0.1433 -0.0636
 3875W        W19949  16.190  16.798   1.394  0.1533 -0.2034 -0.1545
 3876W        W19950   6.164   3.905  15.453 -0.0121  0.0258  0.1186
 3877W        W19951   6.862  12.733   1.223  0.0144 -0.0019  0.0460
 3878W        W19952  11.326   9.181  14.108  0.1884 -0.1431  0.0634
 3879W        W19953  17.273  14.751   5.974 -0.2102 -0.0105 -0.1363
 3880W        W19954   7.237  11.125   1.423  0.0823 -0.0622 -0.0491
 3881W        W19955   3.846  17.063  11.618  0.0738 -0.1327  0.2816
 3882W        W19956  17.730  11.749   4.260  0.3129  0.2100 -0.1321
 3883W        W19957  11.330  10.037  12.797 -0.1737 -0.2849  0.0764
 3884W        W19958  10.004  11.271  10.861 -0.3356 -0.1158  0.0366
 3885W        W19959  10.511   5.936   4.298  0.0551 -0.0085 -0.1552
 3886W        W19960  12.838   4.777   3.201 -0.2025 -0.1136  0.2096
 3887W        W19961  11.470  14.697  13.504  0.2005  0.2236  0.3978
 3888W        W19962   1.865   2.103   3.536 -0.0908 -0.1925 -0.1399
 3889W        W19963  15.493   4.218   5.217  0.0264  0.1137  0.1151
 3890W        W19964  10.239   0.828  14.404 -0.1249 -0.0304  0.3015
 3891W        W19965  14.933  15.978   0.372 -0.0770 -0.1212 -0.0007
 3892W        W19966   3.357   3.215  13.202 -0.1324 -0.0319  0.0305
 3893W        W19967  10.885   1.756   4.923 -0.1603 -0.1754 -0.0134
 3894W        W19968   0.475  13.984  15.692 -0.1438 -0.0724  0.2090
 3895W        W19969   4.684  16.811   0.302 -0.4867 -0.1463 -0.0858
 3896W        W19970   6.229   1.593  10.805 -0.1506  0.1426 -0.1082
 3897W        W19971  11.698   4.093   0.157 -0.0335  0.0621  0.0822
 3898W        W19972   3.805   9.712   3.650 -0.0486  0.0131  0.1647
 3899W        W19973   4.242  15.879   1.290 -0.1606 -0.1983  0.1937
 3900W        W19974  10.413   8.089  12.632  0.1513 -0.0744 -0.1966
 3901W        W19975  17.997   4.435  11.646 -0.3298  0.0185  0.0025
 3902W        W19976  11.666   6.705  13.121  0.1007 -0.0592 -0.2609
 3903W        W19977  16.349  11.261   2.848  0.2108  0.1053  0.3109
 3904W        W19978   5.687   8.318   1.748  0.0354 -0.2207  0.1534
 3905W        W19979   1.257   7.058  14.495  0.1457 -0.0395  0.0199
 3906W        W19980   2.935  13.178   1.130 -0.2787  0.3889 -0.2287
 3907W        W19981  10.386   8.295   1.567 -0.1724 -0.2945  0.1860
 3908W        W19982   8.796   2.565   6.512 -0.0368  0.0291  0.1224
 3909W        W19983   1.847   3.614  13.656 -0.4876 -0.2008 -0.2176
 3910W        W19984  16.636   0.151  11.187 -0.2700  0.1475 -0.0460
 3911W        W19985  18.051   0.278   2.600 -0.1324 -0.0965  0.0320
 3912W        W19986   8.547   3.470  16.460  0.0859 -0.0414 -0.1986
 3913W        W19987  11.720  16.147   5.443  0.0578  0.1566  0.1026
 3914W        W19988   6.816  12.460   2.539 -0.2502 -0.0375 -0.2090
 3915W        W19989   9.802  14.215  16.048  0.0335  0.4204  0.3976
 3916W        W19990  13.202   6.528  11.766  0.1147  0.0879  0.2678
 3917W        W19991   7.218   1.785   1.943  0.1880 -0.0810  0.1201
 3918W        W19992   6.196  12.839  12.236  0.0829 -0.1018  0.2972
 3919W        W19993  14.470  15.707  13.693  0.1345  0.0603 -0.2099
 3920W        W19994  17.255  13.599   4.362  0.5968  0.1334  0.2378
 3921W        W19995  11.917  11.478   2.688 -0.2802 -0.0112 -0.1907
 3922W        W19996  10.421   1.419  12.932 -0.1483 -0.0913 -0.1246
 3923W        W19997  13.193   6.858  15.168 -0.0207  0.0314  0.1246
 3924W        W19998  14.655   2.067   1.876  0.0342  0.0076  0.1132
 3925W        W19999  11.265   8.922   6.502 -0.0475 -0.0845  0.1252
 3926W        W20000   0.289  15.745  15.205 -0.2549  0.0166  0.0426
 3927W        W20001   7.572   7.428   3.922 -0.0480 -0.1847  0.1427
 3928W        W20002  18.144  18.197  13.179 -0.0939  0.2819 -0.0518
 3929W        W20003  15.024  11.141  12.716 -0.1350 -0.0644 -0.0374
 3930W        W20004   5.800   5.688  14.995 -0.0366 -0.0243 -0.0963
 3931W        W20005  11.923  17.701  12.809 -0.1048  0.0315  0.2602
 3932W        W20006   6.937   3.631  14.216  0.1686  0.1048 -0.2217
 3933W        W20007   5.589  16.852   0.223 -0.2084  0.0451  0.0831
 3934W        W20008   6.076  15.647  13.700  0.4312 -0.1118 -0.3589
 3935W        W20009   4.514   5.836   0.464  0.4160  0.0265  0.2037
 3936W        W20010   5.229   5.197   2.917  0.0278 -0.1364 -0.0276
 3937W        W20011  13.075  12.603   4.397  0.1668 -0.1085  0.0326
 3938W        W20012  17.204   7.692  15.158  0.0649 -0.0253 -0.0744
 3939W        W20013   5.574  14.137   0.139 -0.0693 -0.0598 -0.2942
 3940W        W20014  16.887  12.804  14.098 -0.0589  0.2344  0.0191
 3941W        W20015  14.025  17.183  11.711  0.1355  0.2318  0.3193
 3942W        W20016   5.076  13.184   5.825 -0.1101  0.0860  0.0113
 3943W        W20017   2.457   0.086  15.346 -0.0985 -0.1996  0.1898
 3944W        W20018   9.050  12.898   3.504 -0.3236  0.3090 -0.4096
 3945W        W20019   2.433   2.273   1.795  0.1428  0.2203 -0.0269
 3946W        W20020  10.539  11.156  12.975  0.0351  0.3883 -0.0678
 3947W        W20021   0.907   9.869  14.567  0.2061  0.0673  0.1398
 3948W        W20022   8.997  15.958  12.941  0.0694 -0.3638 -0.1124
 3949W        W20023  13.636  12.387  16.485  0.0631  0.2617  0.1918
 3950W        W20024  12.850  14.185   4.293  0.2445  0.2003  0.3521
 3951W        W20025  14.343  17.548  13.320 -0.2070  0.1135 -0.1324
 3952W        W20026  16.100  18.019   3.669 -0.1057 -0.2449  0.5090
 3953W        W20027  18.009   5.259   3.191 -0.0256  0.0802  0.0021
 3954W        W20028   3.993  10.106  12.481 -0.1043  0.4076  0.0472
 3955W        W20029   9.313  11.129   6.333 -0.0239 -0.1422 -0.0054
 3956W        W20030  12.454  14.478   1.920 -0.2084  0.2264  0.0745
 3957W        W20031   6.282   1.997   0.179 -0.0654 -0.0786 -0.0187
 3958W        W20032   4.077  14.480   5.345  0.0949 -0.2388  0.0661
 3959W        W20033   6.751  14.613   1.390 -0.2582  0.3123  0.3364
 3960W        W20034   8.562  14.662   5.444 -0.0657  0.0203 -0.1041
 3961W        W20035   1.825   8.221  12.277 -0.0596 -0.0479 -0.1322
 3962W        W20036   5.501  10.725  13.637 -0.1783 -0.1528 -0.0307
 3963W        W20037   4.936   0.597   0.723  0.1517  0.1348  0.0967
 3964W        W20038   5.120  13.409   0.733  0.1194  0.0431  0.0182
 3965W        W20039  10.903   2.419   2.054 -0.1271  0.1703 -0.0690
 3966W        W20040  10.732  15.687  15.879  0.0045  0.3022  0.1243
 3967W        W20041   6.149  12.594   2.067 -0.1036  0.1077 -0.1774
 3968W        W20042   0.229  12.962  13.947  0.1589 -0.2725 -0.2886
 3969W        W20043   7.681   3.345  12.389 -0.1022 -0.2211  0.1211
 3970W        W20044  15.587   4.918   6.329  0.1596  0.4931  0.0357
 3971W        W20045  12.766  15.528   1.756 -0.0438  0.0868 -0.1325
 3972W        W20046   2.622   9.128  11.507 -0.0096 -0.0800 -0.0462
 3973W        W20047  11.400   1.396  13.335  0.3501  0.1616  0.5411
 3974W        W20048  17.489   9.947   1.889  0.0911 -0.2497  0.2275
 3975W        W20049   4.393   8.471   5.794  0.0864  0.1043  0.1514
 3976W        W20050  16.279   7.893   6.015  0.0979  0.4230 -0.2156
 3977W        W20051   6.192   1.912   5.357  0.0290  0.0131 -0.0137
 3978W        W20052   4.252  12.196  15.547  0.0923  0.1740 -0.0442
 3979W        W20053  14.682  10.962  13.092 -0.1212  0.0881  0.0983
 3980W        W20054  17.406  13.666   2.805  0.1454  0.0745 -0.0284
 3981W        W20055  14.397   5.054  14.186  0.0753  0.5141  0.0567
 3982W        W20056   5.856   9.892  12.766  0.3697 -0.0922 -0.2018
 3983W        W20057   6.887   4.525   3.730  0.2964  0.1523  0.2215
 3984W        W20058  15.807   6.256   3.882  0.0601 -0.0125  0.0858
 3985W        W20059  14.362   1.410  13.360  0.0436 -0.0291  0.3521
 3986W        W20060   4.831  17.966   3.358 -0.1319 -0.0093  0.1513
 3987W        W20061   5.518   7.312   1.650  0.2134  0.0265  0.1060
 3988W        W20062   5.988  17.802   1.413 -0.0885 -0.2131 -0.0235
 3989W        W20063  15.343   5.011   3.928  0.0748  0.0116 -0.0737
 3990W        W20064   9.045   6.119  13.542 -0.1416 -0.0721 -0.0774
 3991W        W20065  17.858  17.255   0.622  0.2956  0.1162  0.0522
 3992W        W20066   7.841   8.005   1.276  0.3486 -0.1014 -0.1238
 3993W        W20067  11.976  13.797  11.814  0.1875  0.0164  0.4014
 3994W        W20068   4.262   1.419   1.647  0.1325 -0.1679 -0.1641
 3995W        W20069  10.708   6.921   0.362 -0.0879  0.2704 -0.1109
 3996W        W20070  10.754  15.558  11.266  0.0875  0.3371  0.0056
 3997W        W20071  14.594   4.828  11.812 -0.0020  0.3599  0.0750
 3998W        W20072  13.875  11.943   0.055 -0.0260  0.0648 -0.0682
 3999W        W20073   6.871  12.454   5.644 -0.2558  0.1746  0.2353
 4000W        W20074   3.426  16.341   5.907  0.1203 -0.1601 -0.1566
 4001W        W20075  17.836   4.194   4.444 -0.2288  0.3478 -0.2850
 4002W        W20076  10.573   6.419   1.031 -0.3013  0.3648  0.0310
 4003W        W20077   3.896   9.396  13.331 -0.1518 -0.1714  0.0283
 4004W        W20078   1.897   9.572   0.992 -0.2673  0.2082  0.0277
 4005W        W20079  13.556   0.896   0.947 -0.3067 -0.2237  0.1446
 4006W        W20080   6.720   5.031  15.634 -0.0878 -0.2448 -0.2578
 4007W        W20081   7.551   6.883   1.381 -0.1751  0.0456 -0.2813
 4008W        W20082  17.366   5.946  12.134 -0.2057  0.1574 -0.0677
 4009W        W20083   5.231   2.251  12.772 -0.0766 -0.0913 -0.1219
 4010W        W20084   8.658   7.491   3.708  0.0748  0.1378 -0.2430
 4011W        W20085  13.408  10.944   4.034  0.1181  0.0159 -0.1008
 4012W        W20086  11.604   9.455   0.525  0.1334 -0.0887  0.1592
 4013W        W20087  15.496  16.880   4.400 -0.1458  0.3264 -0.0137
 4014W        W20088  14.807  15.797  13.253 -0.2645  0.2429  0.0171
 4015W        W20089  16.691   0.317  12.707 -0.2522 -0.1194 -0.1722
 4016W        W20090  17.163  12.684   0.344 -0.0728 -0.2889 -0.0199
 4017W        W20091  15.298  11.464   1.587  0.0195 -0.1165  0.0789
 4018W        W20092  11.968   0.704   0.502  0.2193 -0.3613  0.1616
 4019W        W20093   8.772   6.649   6.172  0.0128 -0.0412  0.2040
 4020W        W20094   0.084   8.821   4.879 -0.2573 -0.0047 -0.2662
 4021W        W20095  15.312   3.940   4.785  0.0253  0.2615 -0.0557
 4022W        W20096   7.114  11.531  12.856 -0.1612  0.0239 -0.2687
 4023W        W20097   3.732  16.404   5.058  0.4046 -0.1596 -0.1522
 4024W        W20098   0.966  14.360   2.565 -0.1581  0.1587 -0.0462
 4025W        W20099   7.840  17.911   1.703 -0.0610 -0.0358  0.4657
 4026W        W20100   7.015  16.636   4.939 -0.5187  0.0610 -0.4626
 4027W        W20101   0.967   9.604  12.821  0.3884  0.3177 -0.3123
 4028W        W20102   2.778   3.130  15.537  0.1591  0.0350 -0.2283
 4029W        W20103   2.139  14.643  12.779  0.1122 -0.2168  0.0839
 4030W        W20104   6.892  11.980   1.001  0.0679  0.1786  0.2379
 4031W        W20105   5.725   3.493   2.371 -0.1645 -0.2439  0.2765
 4032W        W20106  13.622   6.320   2.106 -0.0433  0.2007 -0.1262
 4033W        W20107  15.350  14.844   4.561 -0.3621  0.4399 -0.1358
 4034W        W20108   1.953  14.156  13.913  0.1035 -0.0137  0.1335
 4035W        W20109  12.370  14.122  12.810  0.0468 -0.1082 -0.0574
 4036W        W20110  13.830   1.684  15.196  0.1426  0.0203 -0.0692
 4037W        W20111   2.747   7.457   0.584  0.0234 -0.1709  0.2336
 4038W        W20112   2.058   9.512   2.995 -0.0225  0.1260  0.0160
 4039W        W20113  11.459   0.262   3.236  0.1322  0.0462 -0.0533
 4040W        W20114   2.389   4.835   1.734 -0.4312  0.2017 -0.2668
 4041W        W20115   9.873   7.117   3.835  0.0457  0.0513  0.2350
 4042W        W20116  15.328   5.029  14.563  0.1433 -0.2545 -0.4653
 4043W        W20117  18.159  17.630  15.248  0.3955  0.2010  0.0610
 4044W        W20118  13.310  15.885   0.196 -0.0540  0.5301 -0.0870
 4045W        W20119   3.184   2.004   3.396  0.0828  0.2930 -0.0631
 4046W        W20120   7.483  17.599  15.250 -0.1987 -0.2769  0.0878
 4047W        W20121   8.793  12.993   4.787 -0.0551 -0.0628 -0.0144
 4048W        W20122   9.749  16.697   1.682 -0.2265 -0.1508 -0.0255
 4049W        W20123  15.754  10.253   1.710  0.0529 -0.3267  0.1822
 4050W        W20124   3.278  17.981  16.261 -0.0545 -0.2642  0.1019
 4051W        W20125   6.193   9.140   0.726  0.0178 -0.1589  0.2141
 4052W        W20126   4.046   5.216  11.529 -0.1935  0.0650 -0.0004
 4053W        W20127   6.598  15.139   2.343  0.4058 -0.1493  0.1335
 4054W        W20128   6.219   4.187   4.791 -0.3689  0.0967 -0.2882
 4055W        W20129   7.769   8.445   3.823 -0.1673  0.1168 -0.1350
 4056W        W20130   0.125   7.860   5.234 -0.0348  0.0292  0.1647
 4057W        W20131   4.901   5.292  13.926  0.1324  0.2016  0.3109
 4058W        W20132   9.192  10.797   3.273  0.0545  0.0416  0.1311
 4059W        W20133  15.424   2.051   5.993  0.1064 -0.1862 -0.1579
 4060W        W20134  16.739   6.171   0.975  0.4337  0.0275  0.1113
 4061W        W20135  10.282   2.846  15.967  0.0923 -0.4209 -0.0252
 4062W        W20136   4.221  14.546  15.500  0.3238  0.1584  0.2726
 4063W        W20137   4.914  13.791   1.880  0.0947  0.2999 -0.2087
 4064W        W20138  15.764   5.401   2.581  0.3972  0.0024 -0.1628
 4065W        W20139   6.314   0.251   0.866  0.1300  0.0608 -0.0612
 4066W        W20140   8.494  11.494   2.603  0.1518  0.1499  0.0981
 4067W        W20141   1.474   7.492   5.086  0.0795 -0.1945  0.2195
 4068W        W20142   2.871   8.072   2.686  0.0771  0.0147  0.0717
 4069W        W20143   4.453  15.427   3.833 -0.0955 -0.1755 -0.1271
 4070W        W20144  17.358  16.249   3.118  0.2534 -0.1746 -0.0965
 4071W        W20145  17.569  13.917  14.190 -0.0201  0.2050 -0.1055
 4072W        W20146  15.876  10.924  14.791  0.0350 -0.0768  0.0026
 4073W        W20147   5.556   9.556  15.499  0.0997  0.1063  0.1881
 4074W        W20148   1.098   1.958  14.531  0.1607  0.1438 -0.1851
 4075W        W20149   9.311   1.913  15.203 -0.3639 -0.1516 -0.0948
 4076W        W20150   9.383  14.263   3.672  0.1395  0.0013  0.1379
 4077W        W20151   2.540   1.302  15.146  0.2961 -0.0098 -0.0080
 4078W        W20152   4.884  14.782   0.096 -0.2981 -0.1551  0.1523
 4079W        W20153  12.767  11.549   3.678  0.0988  0.0364 -0.0138
 4080W        W20154  13.299  18.097   0.210  0.1273 -0.1735 -0.1446
 4081W        W20155  12.834   0.056  11.413  0.2205  0.4074  0.0614
 4082W        W20156  12.684   6.357  11.796  0.1303  0.0285 -0.0760
 4083W        W20157  10.197   4.711   5.399  0.2303  0.0417  0.0465
 4084W        W20158  16.199   9.382  16.216  0.1073  0.2342  0.0998
 4085W        W20159  11.351   2.949  13.632  0.0112 -0.2380  0.0410
 4086W        W20160  10.134  13.694   6.326  0.2035  0.3105  0.1026
 4087W        W20161  12.525  10.732  15.174  0.3220 -0.1089  0.2102
 4088W        W20162  14.827  17.554   1.552  0.1402 -0.4228  0.0168
 4089W        W20163   3.439   5.704   4.531  0.1358  0.0886 -0.2946
 4090W        W20164   3.238   3.773   0.156 -0.3644 -0.5240 -0.0779
 4091W        W20165  17.940  17.920  13.732 -0.0767 -0.0625  0.1148
 4092W        W20166  17.661   7.815   4.007  0.0202  0.2846 -0.3958
 4093W        W20167  10.927  13.918  15.198 -0.0875 -0.2126 -0.0212
 4094W        W20168   0.865  13.310  11.498  0.4009 -0.1173  0.2108
 4095W        W20169   7.976   8.337   4.687 -0.1913 -0.0330  0.0450
 4096W        W20170  15.877  11.587  12.900  0.0720 -0.0683  0.0179
 4097W        W20171  16.034   6.448   1.599  0.2198  0.0762  0.0518
 4098W        W20172  12.462   8.680   4.840  0.1877 -0.1011  0.0526
 4099W        W20173  17.685  13.457  14.398 -0.2535 -0.0299  0.2335
 4100W        W20174  18.106   0.971   3.168 -0.0712  0.0121  0.0627
 4101W        W20175   9.931  17.753  11.826  0.0531  0.0373  0.0328
 4102W        W20176   8.759  12.692  13.893 -0.0814 -0.1639  0.0048
 4103W        W20177  10.777   5.214  12.934  0.4093  0.0746  0.0854
 4104W        W20178   3.574  11.511   2.756  0.2409  0.2212 -0.0308
 4105W        W20179  11.116   0.167   0.426 -0.1227 -0.0600 -0.0588
 4106W        W20180  13.945   2.680   3.803  0.0107 -0.1072  0.0686
 4107W        W20181   8.078   3.519  13.269  0.0284  0.0290  0.2601
 4108W        W20182  10.709   1.018   3.169  0.3526  0.2230 -0.3213
 4109W        W20183   9.556  13.950   1.492  0.1215  0.1411  0.0549
 4110W        W20184  17.701   3.103   0.546 -0.0618 -0.1586 -0.2246
 4111W        W20185  13.269   1.691  15.377  0.0280 -0.3603  0.0877
 4112W        W20186  12.533   1.146   4.982  0.1884  0.0066  0.0773
 4113W        W20187   3.872   3.942   1.526 -0.0100 -0.0181 -0.5928
 4114W        W20188   4.437   7.677  12.900 -0.1015 -0.3330  0.0706
 4115W        W20189  14.925   2.420   0.370 -0.0742  0.0182 -0.1000
 4116W        W20190  11.625   4.471   4.649 -0.1544  0.2720 -0.0305
 4117W        W20191   6.746   4.529   1.235 -0.0868 -0.1598 -0.0454
 4118W        W20192  17.358   2.846  10.723 -0.1451  0.2934  0.1325
 4119W        W20193  10.286   7.314  12.667 -0.1896 -0.3432  0.1597
 4120W        W20194   3.167   1.665  14.878  0.1020 -0.3184  0.2083
 4121W        W20195  15.631  10.452  15.664  0.2901 -0.1252  0.1560
 4122W        W20196   2.017   3.708  12.472  0.0406  0.1837  0.2793
 4123W        W20197  16.579   9.880   1.679  0.3173  0.0149  0.1476
 4124W        W20198   3.981  16.610   3.037 -0.0806  0.2286 -0.1763
 4125W        W20199  15.524   2.688   4.362 -0.0669 -0.3938  0.1858
 4126W        W20200   4.018  11.470  12.847 -0.0567 -0.0475  0.2672
 4127W        W20201   3.398   9.826  11.762  0.0475  0.0695 -0.2985
 4128W        W20202   3.034  10.226  12.447 -0.1070 -0.2977 -0.1627
 4129W        W20203   7.719   4.949  13.107  0.0474  0.0828 -0.1626
 4130W        W20204   9.789  13.405  13.079  0.1723 -0.0551  0.2377
 4131W        W20205   8.965   6.351   3.265  0.2232 -0.3041 -0.0106
 4132W        W20206   8.247   2.250  14.319  0.1126 -0.3735  0.2227
 4133W        W20207   1.288  18.077  14.057 -0.1620 -0.2079 -0.1116
 4134W        W20208   7.683   8.403   2.275 -0.1952 -0.2884 -0.1422
 4135W        W20209   2.863   1.972   2.216  0.2244  0.0153  0.1631
 4136W        W20210  10.896  12.380   5.471  0.2149 -0.0277  0.0849
 4137W        W20211   1.643   9.274   1.291  0.1609 -0.0867 -0.2124
 4138W        W20212  13.223   4.502   3.056 -0.1840  0.3371 -0.0086
 4139W        W20213   9.803  12.725   2.067 -0.0559  0.0029 -0.0077
 4140W        W20214   7.624  17.830   0.577 -0.0453 -0.2092  0.0619
 4141W        W20215  17.652   4.778  15.907  0.0328 -0.1612  0.4035
 4142W        W20216  10.423  14.371   2.996 -0.0318 -0.1554 -0.0057
 4143W        W20217  14.776   7.800   5.598  0.0044 -0.1411  0.1178
 4144W        W20218   0.639   2.453   0.282 -0.0557  0.0566 -0.0297
 4145W        W20219  17.669   2.681   0.137 -0.1020 -0.0029 -0.0434
 4146W        W20220  10.602   9.116  13.339 -0.1225  0.1239  0.1094
 4147W        W20221  11.677   2.217  12.097 -0.1246  0.0520  0.0258
 4148W        W20222  17.131   7.454   2.137  0.2328  0.0026  0.1661
 4149W        W20223  12.546   9.334   4.988  0.0580 -0.2991 -0.1809
 4150W        W20224   2.996  11.356  13.382  0.0538 -0.1488  0.0282
 4151W        W20225  18.158  17.780  12.798 -0.0121  0.1381  0.0014
 4152W        W20226  13.063   0.377   0.182  0.1987 -0.0382 -0.2494
 4153W        W20227  10.603   8.573  12.797  0.1846  0.1911 -0.1734
 4154W        W20228   4.815   1.143   1.014 -0.1760 -0.3053  0.2971
 4155W        W20229   6.368  11.546  15.786 -0.0372  0.0327 -0.2970
 4156W        W20230  10.858  10.507  16.051 -0.3394  0.0439  0.1036
 4157W        W20231   1.283   3.257   0.079 -0.0142 -0.2971 -0.0530
 4158W        W20232   0.949  13.426  13.573 -0.0444  0.0057  0.0203
 4159W        W20233  11.593   7.098   3.980  0.0610 -0.0103  0.2867
 4160W        W20234   9.945  14.737   4.164  0.1553 -0.0186 -0.2137
 4161W        W20235   5.713  13.582   3.615  0.0985 -0.0792 -0.0083
 4162W        W20236  10.590  11.258   3.187 -0.1809  0.4504 -0.2719
 4163W        W20237  13.517  17.118  12.891 -0.1548 -0.1349  0.0146
 4164W        W20238  14.120   4.310  12.419 -0.0966 -0.0120  0.0901
 4165W        W20239   4.664   9.514   0.848 -0.1282 -0.2761 -0.1786
 4166W        W20240   1.926   0.834  11.504  0.2779  0.0541 -0.1366
 4167W        W20241   3.830  18.082   4.697 -0.1234  0.0478 -0.0156
 4168W        W20242  16.743  15.411  15.181 -0.0819 -0.1204  0.3789
 4169W        W20243  13.182  17.221   1.073  0.1513  0.3132  0.0575
 4170W        W20244  17.760   5.698  11.937 -0.1549  0.2190 -0.0254
 4171W        W20245   2.869  13.089   3.248 -0.1536  0.0846  0.1453
 4172W        W20246   5.034  15.022  12.486 -0.0370 -0.0587 -0.3812
 4173W        W20247   6.642  14.877   0.187  0.0472  0.0736 -0.0026
 4174W        W20248   9.685   7.086   4.387  0.2064  0.1927  0.1425
 4175W        W20249   3.949  10.235   0.854  0.0662 -0.1142  0.0215
 4176W        W20250  10.050  10.660   3.546 -0.3258 -0.1606  0.2604
 4177W        W20251  14.444  14.091  12.021 -0.0536 -0.1115 -0.1536
 4178W        W20252   4.190   7.179   0.378  0.0703  0.1154  0.1957
 4179W        W20253  14.523  12.854   4.476  0.4036  0.1224 -0.0029
 4180W        W20254   2.637  17.442  11.607  0.0171 -0.0492 -0.0274
 4181W        W20255   5.133  16.203  12.143  0.4438 -0.0176  0.0804
 4182W        W20256   4.036  14.094  12.246 -0.1221 -0.0246  0.0831
 4183W        W20257  16.871   3.096   0.586  0.2736 -0.0507  0.5000
 4184W        W20258  11.630  14.863   2.477  0.2466  0.1174  0.3033
 4185W        W20259   5.012   9.097  13.209  0.2890 -0.0351 -0.0994
 4186W        W20260  17.565   8.780  14.581 -0.0351 -0.3404  0.0229
 4187W        W20261   4.594   9.284  14.350 -0.1584 -0.1480  0.0974
 4188W        W20262   9.800   5.953  13.850  0.2196  0.2148  0.0026
 4189W        W20263   2.888   2.983   0.447  0.0250 -0.2149  0.1301
 4190W        W20264  11.613   7.432  14.398  0.0747  0.2157  0.1207
 4191W        W20265   4.482   3.975   5.889  0.3510  0.1699  0.1345
 4192W        W20266  13.752   4.639   2.408 -0.1422  0.3397  0.1136
 4193W        W20267  17.034   3.199  12.768 -0.1564 -0.0484 -0.1819
 4194W        W20268   1.670  13.849   4.610 -0.2318 -0.1899  0.0411
 4195W        W20269   9.302   9.713   5.362  0.2897  0.2318  0.1790
 4196W        W20270   0.508   0.680   0.135  0.0928  0.0514  0.1746
 4197W        W20271   1.641  15.604   2.478 -0.3884 -0.2339 -0.2900
 4198W        W20272   1.014   8.182  15.026  0.3443 -0.1010  0.1536
 4199W        W20273  13.219   1.426  11.420 -0.1538  0.0401  0.0730
 4200W        W20274  13.091   4.542   1.696  0.1446  0.1250  0.2293
 4201W        W20275   9.731  14.937  12.208  0.0474  0.0721 -0.1581
 4202W        W20276   3.769  16.454   5.593 -0.2019  0.1360  0.1961
 4203W        W20277   9.773  10.023   5.483 -0.3319  0.1275 -0.3982
 4204W        W20278   1.809   6.380   1.943  0.1069  0.2309  0.1033
 4205W        W20279  16.177  12.447  11.234  0.1278  0.0496 -0.2290
 4206W        W20280  12.159   7.427   4.121 -0.0607  0.1278  0.1953
 4207W        W20281   9.872  12.915   1.068 -0.3196 -0.3219  0.2837
 4208W        W20282   7.721   6.272   3.694 -0.1930  0.0036 -0.1798
 4209W        W20283   3.164  13.028  12.836  0.0413 -0.0174 -0.0834
 4210W        W20284  17.670   5.693  15.848  0.0052  0.2426  0.0166
 4211W        W20285   3.201  10.777  13.633  0.1483 -0.0943  0.1443
 4212W        W20286  11.137   8.777   4.045 -0.0618 -0.0650  0.2931
 4213W        W20287  16.250  13.288   5.823 -0.1154 -0.0655  0.1993
 4214W        W20288  12.086   2.058   4.973 -0.0339  0.0996 -0.1181
 4215W        W20289   0.007   9.717   4.493  0.4777 -0.0117 -0.1921
 4216W        W20290  14.674   6.381   0.093 -0.2101  0.1460 -0.0030
 4217W        W20291   5.134  15.992  10.201 -0.1134  0.0466  0.0402
 4218W        W20292  14.520  11.452  16.302 -0.2086  0.0270  0.2715
 4219W        W20293  13.742  16.880   5.091 -0.0963 -0.0821  0.1606
 4220W        W20294   7.559  16.161  15.754  0.0074 -0.0652 -0.2878
 4221W        W20295  17.337   3.832  15.452  0.0743  0.2256  0.1581
 4222W        W20296   4.795   3.736  12.423  0.0928  0.1836  0.0628
 4223W        W20297   8.200  13.323  16.509 -0.0849 -0.5130 -0.0529
 4224W        W20298  14.707  10.273  14.525 -0.1199  0.0074  0.0954
 4225W        W20299   2.068   8.409   3.735  0.2239 -0.0765 -0.1100
 4226W        W20300  11.061  10.352  15.602 -0.1880  0.0338  0.0815
 4227W        W20301  13.397  16.542  16.081 -0.2141  0.0433  0.1360
 4228W        W20302   9.241  10.413   2.939  0.0344 -0.0359  0.2742
 4229W        W20303   9.428  13.781  16.002 -0.0648 -0.1482 -0.0950
 4230W        W20304  11.471  16.371   2.857  0.1637  0.0775 -0.3214
 4231W        W20305   3.251   9.890   5.326 -0.1159 -0.4554  0.2597
 4232W        W20306   4.748  10.539   5.659 -0.1550  0.2508  0.2574
 4233W        W20307  12.890   8.380   3.407 -0.0624 -0.0634 -0.0321
 4234W        W20308   6.105   6.251   3.518  0.2484  0.1160  0.2173
 4235W        W20309  15.818   2.273  14.311 -0.1183 -0.5917  0.2509
 4236W        W20310   8.588  11.764   0.713  0.0490  0.2826 -0.2482
 4237W        W20311   5.955   5.280  12.498  0.0392  0.0602 -0.0441
 4238W        W20312  16.213   0.333   0.202  0.0529 -0.1983  0.2965
 4239W        W20313   9.576  17.901  11.413  0.0764  0.1038  0.0653
 4240W        W20314   0.392  13.113   1.806 -0.0175  0.1172  0.0030
 4241W        W20315   2.602  17.484  13.024 -0.2477  0.0976 -0.2493
 4242W        W20316  17.537  15.657   4.385 -0.0906 -0.0618 -0.2449
 4243W        W20317  17.481   6.946  12.810 -0.2637 -0.1368  0.1844
 4244W        W20318   1.505  13.558   3.549  0.0177  0.3950  0.0231
 4245W        W20319   6.921   0.103   5.720  0.2208  0.1999  0.0365
 4246W        W20320  15.736   4.829   4.753 -0.3411 -0.0684 -0.2333
 4247W        W20321  15.257  12.637   3.308  0.0668  0.2431 -0.1484
 4248W        W20322  11.451  17.609   1.649 -0.3112  0.0930 -0.0116
 4249W        W20323   6.479   6.155  15.959 -0.0913  0.3580  0.1248
 4250W        W20324   2.092   3.774   2.094 -0.3535  0.3043  0.0216
 4251W        W20325  17.738   4.730  15.350 -0.0045  0.1100 -0.1868
 4252W        W20326   9.523   9.619  12.361 -0.1964  0.0519 -0.0321
 4253W        W20327   8.602  10.816   1.027 -0.1622  0.1157 -0.0717
 4254W        W20328  17.408   3.252   4.471  0.2349  0.2178  0.0766
 4255W        W20329  10.011   6.754   1.649 -0.1701 -0.0639  0.1974
 4256W        W20330  16.859   1.798  11.821 -0.0116  0.1650  0.2673
 4257W        W20331   7.504   0.262  15.167  0.1224  0.2640  0.1013
 4258W        W20332  13.333  15.341   0.044 -0.2374  0.1321 -0.1893
 4259W        W20333   4.891  14.007  15.414  0.3257  0.2423 -0.1148
 4260W        W20334   1.919   1.006   1.966  0.1950 -0.0858 -0.0269
 4261W        W20335  14.589  15.573   0.790  0.1485  0.0661  0.2918
 4262W        W20336   9.215  16.309   4.768 -0.0159  0.1633  0.1360
 4263W        W20337   0.415  13.563   2.229  0.1732  0.3448 -0.1825
 4264W        W20338   2.572   2.373   2.277 -0.3741 -0.2303  0.1080
 4265W        W20339   7.743  10.843  15.721  0.2674  0.2559 -0.1790
 4266W        W20340   4.123   3.828   3.452 -0.0437  0.0296 -0.2204
 4267W        W20341   1.484   9.908  11.747  0.1609  0.2012  0.0337
 4268W        W20342  14.533   4.548   0.720 -0.4307  0.0080 -0.4004
 4269W        W20343   7.151  14.981  12.458  0.1145 -0.4391  0.0463
 4270W        W20344  12.982  16.067   0.491  0.5666  0.1318 -0.1593
 4271W        W20345  10.607   1.534   6.013  0.2348  0.1602  0.0325
 4272W        W20346   9.384   2.318   3.626 -0.0241  0.1812  0.0003
 4273W        W20347  17.435   0.271  10.148 -0.1328 -0.2994 -0.0499
 4274W        W20348  12.585  10.879  15.893 -0.1722 -0.0947 -0.2840
 4275W        W20349  10.916   0.254   6.166 -0.1401  0.0817  0.0962
 4276W        W20350  10.707  13.115  11.667  0.0781 -0.2212  0.0318
 4277W        W20351   7.069  17.424   2.142 -0.0168  0.0395  0.1502
 4278W        W20352   2.444   0.566   2.687 -0.0538 -0.1661  0.0808
 4279W        W20353   6.425   0.872  11.586  0.1780 -0.0833 -0.2199
 4280W        W20354   7.038   0.297   0.539  0.1620  0.1157 -0.0729
 4281W        W20355  11.385   6.474   1.602  0.3794 -0.1710 -0.1531
 4282W        W20356  16.630  18.078   5.374  0.3354  0.3197 -0.1076
 4283W        W20357  11.500   5.080   4.076  0.1762 -0.1560 -0.3264
 4284W        W20358   7.912   0.953   5.687 -0.1257 -0.0730 -0.1025
 4285W        W20359   4.056   4.785   3.511  0.0317 -0.0095 -0.0333
 4286W        W20360  10.877   1.823   5.707  0.0718  0.1876 -0.1629
 4287W        W20361  13.582   2.893   5.120  0.0239 -0.1648  0.2519
 4288W        W20362  16.196  15.672  11.004  0.3388 -0.0107 -0.0534
 4289W        W20363   8.232   0.968  11.884 -0.2189  0.3264  0.0072
 4290W        W20364  13.059   1.690  14.887 -0.3462  0.2710 -0.0683
 4291W        W20365  10.677   8.475  14.288  0.1040  0.0785 -0.4598
 4292W        W20366  15.867  16.939  15.597 -0.1475  0.1518 -0.1549
 4293W        W20367   8.304  18.120   1.971  0.0745  0.1103 -0.0044
 4294W        W20368  11.748  11.313   5.559 -0.2505  0.0867  0.0117
 4295W        W20369  11.221   1.581  16.265  0.0129 -0.0826 -0.0361
 4296W        W20370   5.024   1.170  15.262  0.1264  0.1351 -0.0364
 4297W        W20371  10.059   8.545  12.527 -0.1647  0.2616  0.2175
 4298W        W20372  10.340   4.993  15.407 -0.1446 -0.0625 -0.1234
 4299W        W20373   0.795   5.337   0.969 -0.0890 -0.0959 -0.0210
 4300W        W20374  14.645  16.406   5.995  0.2425 -0.3762 -0.1474
 4301W        W20375  14.381   7.940   5.303  0.3956  0.1846  0.4107
 4302W        W20376  16.800   9.330  16.174 -0.0065 -0.2853  0.0895
 4303W        W20377  16.774  14.836   3.606  0.2551  0.0578  0.1659
 4304W        W20378  15.014  16.672  13.062  0.0218  0.0029 -0.0274
 4305W        W20379   6.914  12.996   3.784  0.2835  0.2118  0.2078
 4306W        W20380   4.560  18.035   5.174 -0.1968  0.0974  0.2579
 4307W        W20381  14.373   0.983   2.654  0.1695  0.2367 -0.0504
 4308W        W20382   4.095  11.673   5.491  0.2211  0.0921  0.3124
 4309W        W20383  10.402  11.356   3.793 -0.2427  0.2770 -0.0390
 4310W        W20384  12.821   9.064   4.024 -0.0132  0.1005  0.0180
 4311W        W20385   8.145   7.473  12.056 -0.2323 -0.0560 -0.3237
 4312W        W20386  13.844   8.509  10.625 -0.0793  0.2742 -0.1558
 4313W        W20387   2.312  15.257  11.907 -0.1201 -0.0366  0.2985
 4314W        W20388   2.344   6.367  15.032 -0.1466  0.0093  0.0196
 4315W        W20389   4.716  13.655  11.981  0.0936 -0.1698  0.1853
 4316W        W20390  13.937   3.672  14.522  0.0458 -0.3210 -0.2129
 4317W        W20391   7.127  13.889   3.866  0.0871  0.1065  0.2379
 4318W        W20392   8.223  17.568  11.524 -0.1740  0.3854  0.0594
 4319W        W20393   1.420  13.521  12.255  0.0740 -0.2596  0.2778
 4320W        W20394   6.526   7.582   5.526  0.1795  0.1021 -0.3066
 4321W        W20395  10.808  16.783   1.795 -0.2244 -0.1168 -0.1540
 4322W        W20396   9.113   2.374   5.649 -0.4191  0.2990 -0.2856
 4323W        W20397   5.080   7.874   1.084  0.0892  0.1242 -0.0235
 4324W        W20398   0.432   0.291   1.045 -0.0872 -0.2907  0.0524
 4325W        W20399   6.520  12.100   2.362 -0.2229  0.2232 -0.0266
 4326W        W20400   3.825   6.664  14.138  0.0119  0.0440 -0.2736
 4327W        W20401  14.566  17.809   5.174 -0.1202  0.3139 -0.2272
 4328W        W20402   2.952   4.511   2.581 -0.0059 -0.1504  0.3762
 4329W        W20403   4.994   1.228  14.694 -0.2494 -0.1772  0.0079
 4330W        W20404   0.594  15.064   3.810 -0.2443 -0.0396 -0.0732
 4331W        W20405  16.440  12.844  16.462  0.3979 -0.0916 -0.0061
 4332W        W20406  12.469   2.108   1.006  0.0510 -0.0823  0.0618
 4333W        W20407   1.041  15.846   3.257 -0.0171 -0.0798 -0.2165
 4334W        W20408   4.484  14.929  11.810  0.0653 -0.1133 -0.1660
 4335W        W20409  12.353  14.953   2.178  0.0702 -0.1112  0.2161
 4336W        W20410   1.132   5.247   2.372 -0.1065  0.0248 -0.2382
 4337W        W20411   4.391   0.997  12.919  0.1975 -0.3085 -0.0344
 4338W        W20412   9.390  14.252  15.724 -0.0684 -0.2155  0.1230
 4339W        W20413   6.258   4.579   1.443 -0.3698  0.2487  0.3545
 4340W        W20414  15.613   6.557  11.564 -0.2395  0.0591  0.3271
 4341W        W20415   6.429   5.348  13.215  0.1581 -0.1075 -0.3268
 4342W        W20416   3.297  15.321  14.614  0.2440  0.1796 -0.0043
 4343W        W20417   1.562   2.698   0.591  0.0982 -0.1556 -0.1907
 4344W        W20418  11.702  16.377  11.748 -0.2076  0.1246  0.1821
 4345W        W20419   4.439   4.763  13.295  0.0092 -0.0522 -0.0538
 4346W        W20420  18.113  15.819  15.572  0.1391 -0.2377 -0.2432
 4347W        W20421   4.650   2.959   3.867 -0.0775 -0.3806 -0.2228
 4348W        W20422  13.353   1.092  16.226 -0.1900 -0.0078 -0.0844
 4349W        W20423   4.069  11.841   0.607  0.1881 -0.1134 -0.2142
 4350W        W20424   9.327  14.320  13.359 -0.0014  0.0783 -0.1524
 4351W        W20425  10.066   9.886  13.214 -0.3627  0.0473 -0.0322
 4352W        W20426  16.376  11.237  12.064  0.3158 -0.0853  0.0255
 4353W        W20427  10.592  14.681   4.955  0.3770  0.1691 -0.0865
 4354W        W20428   9.873  13.589   1.433 -0.4801  0.2510 -0.1264
 4355W        W20429   3.780  13.442   6.516  0.0671 -0.2685 -0.2893
 4356W        W20430  11.075  16.990   2.176 -0.0345 -0.1637 -0.0686
 4357W        W20431   1.869   8.810  15.943  0.1205  0.0186  0.0508
 4358W        W20432   5.477  12.530  12.725  0.2027  0.0260 -0.0250
 4359W        W20433   7.443   1.081   6.226  0.3907 -0.1155  0.0511
 4360W        W20434   1.451  12.690   3.482 -0.1199 -0.4061 -0.2122
 4361W        W20435  14.517  10.474   2.182 -0.1290  0.0790  0.0332
 4362W        W20436   3.574   6.287  14.833 -0.3478 -0.2842  0.1157
 4363W        W20437  16.876   0.763  16.005  0.0366 -0.3259  0.0166
 4364W        W20438   2.250  10.766   1.281 -0.1806  0.1873  0.1870
 4365W        W20439   3.333   0.065   1.516 -0.2780 -0.2634 -0.0645
 4366W        W20440  12.645   4.231   1.973  0.1502 -0.1746 -0.1899
 4367W        W20441  16.810   7.345  12.068 -0.1751 -0.1937  0.4707
 4368W        W20442   9.026   6.613  12.112 -0.1698  0.1300  0.0501
 4369W        W20443   5.552  16.896  13.909  0.4332 -0.0477 -0.3362
 4370W        W20444  16.830   5.300   0.069 -0.2206  0.0494  0.1508
 4371W        W20445   8.304   7.764  15.753 -0.2040 -0.2815  0.2593
 4372W        W20446   6.010  16.971  14.122 -0.3942  0.1464  0.1505
 4373W        W20447   4.211  13.375  11.556 -0.2344  0.0671  0.0285
 4374W        W20448   1.314   1.642   5.000  0.3684 -0.1247  0.1347
 4375W        W20449  13.247  14.886   2.299 -0.3582  0.0271 -0.1453
 4376W        W20450   2.688  14.199  16.188 -0.0581  0.0629 -0.3889
 4377W        W20451  17.543  11.589  12.579 -0.0018 -0.0426 -0.1449
 4378W        W20452   3.441   3.757  13.464 -0.3842  0.3227 -0.0706
 4379W        W20453   2.756  14.663   4.429  0.1894  0.0418 -0.2605
 4380W        W20454  11.037   5.969   4.242  0.4563  0.1915  0.0045
 4381W        W20455  11.460   7.719  13.564 -0.0527 -0.5578  0.0289
 4382W        W20456   1.556   6.956   5.011 -0.0190 -0.2231  0.0266
 4383W        W20457  17.009   7.113   5.197 -0.2088  0.0136 -0.1021
 4384W        W20458   0.487   3.834   5.194 -0.0771  0.2952 -0.0427
 4385W        W20459  10.221  16.942  12.908  0.2988 -0.3247  0.1355
 4386W        W20460  11.341   4.910  13.073  0.1815 -0.2669  0.1273
 4387W        W20461  10.524  13.842   5.189 -0.2496  0.0575 -0.2414
 4388W        W20462  17.396  14.061   5.254  0.2035  0.1604 -0.3172
 4389W        W20463   2.384   4.980  14.214 -0.0768 -0.2647  0.0710
 4390W        W20464  14.437  11.524   1.650 -0.1158 -0.2282  0.2874
 4391W        W20465  17.550   1.056  10.974 -0.0238  0.1131  0.1630
 4392W        W20466   0.197   6.383   2.431  0.1719 -0.2074 -0.2185
 4393W        W20467  12.223   3.772  13.842 -0.1436  0.0302  0.0804
 4394W        W20468   8.792  13.104  11.637 -0.0725  0.1492  0.0844
 4395W        W20469   2.340   5.778  16.029  0.2494  0.0134  0.5275
 4396W        W20470   6.739   8.511   1.386 -0.1890 -0.0779 -0.1043
 4397W        W20471   0.969   7.479  12.405 -0.0797  0.0716  0.0635
 4398W        W20472  17.011   9.167  12.989 -0.0337  0.0528  0.2054
 4399W        W20473   9.388   8.863   2.109 -0.1925 -0.0775  0.2744
 4400W        W20474   3.925   0.963   0.499  0.0150  0.0602  0.2232
 4401W        W20475   1.705  10.523  16.514 -0.0498  0.0603 -0.1607
 4402W        W20476   9.912   9.816  12.696 -0.0195 -0.0631 -0.2468
 4403W        W20477  15.841  11.048   4.009  0.2560 -0.3006  0.0731
 4404W        W20478  12.720   2.557  15.351  0.1672  0.0897  0.1653
 4405W        W20479   3.535   4.996   3.893 -0.0407 -0.3251 -0.0445
 4406W        W20480  10.364  14.766   2.595  0.1395 -0.0732 -0.2539
 4407W        W20481   3.759   0.904  10.733 -0.0866  0.0862 -0.1504
 4408W        W20482   5.330  18.106   0.181 -0.1659  0.3779  0.1021
 4409W        W20483  14.496  16.658  12.855  0.1094 -0.0671  0.2886
 4410W        W20484   2.290  17.794   1.153  0.2555 -0.1250 -0.0136
 4411W        W20485  16.744   8.069   1.536  0.0490 -0.3802 -0.4259
 4412W        W20486  17.161  16.347   5.909 -0.0405 -0.0867  0.0913
 4413W        W20487   0.000   7.493  13.491  0.3087  0.1366  0.1284
 4414W        W20488   6.780   4.249   2.188 -0.2517 -0.0587 -0.0346
 4415W        W20489   9.597   5.036  15.995 -0.0347 -0.1584  0.0293
 4416W        W20490  12.086   2.391   3.943  0.5297  0.1475  0.1564
 4417W        W20491  15.745  12.111  15.014  0.0239 -0.2595 -0.0999
 4418W        W20492  12.434   7.180  13.314 -0.0184 -0.2168  0.0357
 4419W        W20493  12.985   3.584   3.896  0.1676  0.1810  0.1498
 4420W        W20494  10.240   5.541   2.042 -0.2571  0.0100  0.0837
 4421W        W20495   7.845  11.252   0.657 -0.0747  0.3293 -0.4186
 4422W        W20496   6.900  11.080   3.439  0.1225 -0.2093 -0.1611
 4423W        W20497   4.060   0.267   5.600  0.0886  0.0699  0.3226
 4424W        W20498   9.795   9.994  14.330 -0.2331 -0.1497  0.2957
 4425W        W20499  16.258  14.616  15.646 -0.0413 -0.2986 -0.0187
 4426W        W20500  14.251  13.117   1.483  0.0208  0.0139  0.0176
 4427W        W20501   7.102   6.751   0.484 -0.1287  0.2011  0.1823
 4428W        W20502   9.456  13.497   1.737 -0.1726 -0.1117  0.0452
 4429W        W20503   1.301  14.040   2.356 -0.2963 -0.2242 -0.1801
 4430W        W20504   7.845   9.764   2.617  0.1283  0.0790 -0.0964
 4431W        W20505  11.711   3.804   6.133  0.1660  0.0049  0.1220
 4432W        W20506   4.939   9.949  13.150 -0.0818 -0.2424 -0.0562
 4433W        W20507   1.415  11.125  15.585 -0.2226 -0.0912  0.3862
 4434W        W20508  13.920   0.758  11.395 -0.1796 -0.0131 -0.3862
 4435W        W20509  16.611  15.055  12.639 -0.3398  0.2646  0.0381
 4436W        W20510   1.546  18.157   6.146  0.0553 -0.2901 -0.2173
 4437W        W20511  10.612  17.609  12.654  0.0590 -0.0432  0.1864
 4438W        W20512   8.620   0.770   0.907  0.5770  0.1677  0.2652
 4439W        W20513   7.810  16.732  16.314  0.0662 -0.1118  0.0481
 4440W        W20514   6.918   8.694  16.103 -0.0474 -0.0262 -0.0053
 4441W        W20515  10.567   1.964   0.276  0.1201 -0.0557  0.0234
 4442W        W20516  17.804   2.102   3.320  0.0099  0.0010 -0.1877
 4443W        W20517  13.061   7.842   1.144  0.0890  0.1789  0.1986
 4444W        W20518   9.261  15.275  12.238 -0.1003  0.1766  0.0385
 4445W        W20519  17.868   4.865  14.555  0.1433  0.5072  0.4034
 4446W        W20520   5.224  15.390   3.166 -0.4534 -0.1243 -0.1261
 4447W        W20521  17.098  17.221  14.535  0.0240 -0.0262 -0.1293
 4448W        W20522  15.649   0.497  11.710 -0.1668 -0.2142 -0.3363
 4449W        W20523  18.068   1.093  11.761  0.2859 -0.2290  0.3433
 4450W        W20524  15.525   8.436  11.930 -0.0758 -0.0328 -0.2552
 4451W        W20525   1.898   9.510  14.704 -0.0569 -0.0790  0.0789
 4452W        W20526  12.723  11.209  14.965 -0.0212  0.1093  0.0966
 4453W        W20527   7.872  16.146   1.897 -0.3142  0.0084  0.0073
 4454W        W20528  12.423   1.545  12.541  0.3060 -0.2574  0.0709
 4455W        W20529  14.938   4.196   0.780 -0.0093  0.2170  0.0402
 4456W        W20530   6.167  15.835   5.025 -0.2468  0.0358 -0.0128
 4457W        W20531   6.436   9.459  12.650 -0.1113 -0.1624 -0.1283
 4458W        W20532  12.812   7.106  12.933  0.0003 -0.0049 -0.0035
 4459W        W20533   6.566  11.481   5.912  0.5247  0.3898  0.2104
 4460W        W20534   2.979  15.756  13.742  0.0113  0.0030 -0.1416
 4461W        W20535   3.014   6.013  16.031  0.2305  0.1391 -0.2075
 4462W        W20536   6.417  13.564  12.656 -0.0759 -0.0017  0.0105
 4463W        W20537   1.737  12.655  13.886 -0.1531  0.0724  0.0546
 4464W        W20538   7.844  12.545   0.650 -0.0809  0.0136  0.0948
 4465W        W20539  11.359  15.765   6.139  0.0201 -0.0444 -0.0639
 4466W        W20540   0.779   7.128  13.140 -0.2225  0.0082 -0.3012
 4467W        W20541   7.127  16.168   4.786  0.2145 -0.0870  0.1411
 4468W        W20542  16.275   5.766   3.369 -0.1131 -0.0415 -0.0627
 4469W        W20543   2.719  11.954  11.938  0.0458 -0.1640 -0.4430
 4470W        W20544   6.183   8.001  14.243 -0.5314  0.5231  0.0213
 4471W        W20545   3.937  13.447  13.029  0.1341 -0.0165  0.0152
 4472W        W20546   2.643   5.486  13.302  0.3786  0.2281 -0.2918
 4473W        W20547  17.013  12.356  16.174 -0.3521  0.0331  0.1185
 4474W        W20548   0.473   2.590  11.417  0.1037 -0.0308 -0.0195
 4475W        W20549   5.174  16.286  15.452  0.1732  0.0499 -0.0543
 4476W        W20550  17.235   4.043  16.309  0.1842  0.1776 -0.3466
 4477W        W20551  15.493   1.856  13.935 -0.1582 -0.0020 -0.3153
 4478W        W20552   3.491   5.915   1.041 -0.2954  0.2913 -0.1680
 4479W        W20553   9.066  11.999   0.861 -0.0323  0.1002 -0.3338
 4480W        W20554  15.342  12.236  15.286 -0.0858  0.0372  0.0073
 4481W        W20555   0.720  10.968   0.712  0.0803  0.0830  0.1874
 4482W        W20556   5.772   5.920   3.730  0.2949  0.0044  0.2708
 4483W        W20557   9.785   7.087  14.654 -0.0736 -0.0151  0.1877
 4484W        W20558   5.272   1.695   1.866  0.1831  0.0489  0.1146
 4485W        W20559   9.271  13.898   6.221 -0.2813 -0.1057 -0.0369
 4486W        W20560   1.971  14.123  10.990 -0.3101 -0.0282  0.0601
 4487W        W20561   4.769   9.325  11.678 -0.1958  0.1015 -0.0516
 4488W        W20562   0.548  16.771  12.400 -0.3897  0.0457 -0.1023
 4489W        W20563  11.633   5.278  13.362  0.1677  0.1591 -0.2898
 4490W        W20564  13.217  11.933   5.241 -0.0358  0.2691 -0.0870
 4491W        W20565  16.993   0.930   3.982 -0.0771  0.1413 -0.0462
 4492W        W20566   9.830   1.095  14.143 -0.0640  0.2401  0.1050
 4493W        W20567   7.757   7.572  13.672 -0.1596 -0.3091  0.0351
 4494W        W20568   3.487  15.478  15.480  0.4183  0.0127 -0.1676
 4495W        W20569   6.513  11.573   0.988  0.0623 -0.1917 -0.1484
 4496W        W20570   3.136   0.771   2.702 -0.1233 -0.0713  0.1425
 4497W        W20571  14.248  16.245   2.614  0.0253  0.0685 -0.3051
 4498W        W20572  14.181  11.453  11.874  0.0407 -0.1255  0.1870
 4499W        W20573   7.777   6.007   0.286  0.0387 -0.1787 -0.0319
 4500W        W20574   2.586  14.582   5.402 -0.1746 -0.1467  0.2389
 4501W        W20575  15.736  15.794   3.426  0.0622  0.1105  0.4147
 4502W        W20576  15.125  16.973   2.254  0.5218 -0.0156  0.2648
 4503W        W20577  10.115   3.383  15.301 -0.1758  0.0211 -0.1347
 4504W        W20578   6.093   3.279   4.665  0.0691  0.2856 -0.1651
 4505W        W20579   1.424  13.464  16.408  0.0475 -0.2825 -0.2938
 4506W        W20580   0.380  11.327   0.844 -0.0137  0.1792  0.0284
 4507W        W20581  18.174  10.251   2.209  0.1365  0.0087 -0.1163
 4508W        W20582  15.427   3.388   1.308  0.0539  0.0594 -0.0328
 4509W        W20583   3.450   5.753   3.483  0.1175  0.2237  0.3637
 4510W        W20584  12.616  14.425  15.929  0.0750 -0.0533 -0.0035
 4511W        W20585   3.124   8.841   0.043 -0.2679  0.1654 -0.0632
 4512W        W20586  14.405   8.728   5.859 -0.1253  0.0338 -0.2144
 4513W        W20587   3.875   7.098   1.405  0.1398 -0.3146 -0.0428
 4514W        W20588   7.236  16.244   1.161  0.0461 -0.1745  0.4263
 4515W        W20589  13.630   9.631  12.278  0.0011  0.1800 -0.0367
 4516W        W20590   5.998   6.220  16.267 -0.1082  0.3349 -0.0860
 4517W        W20591  12.722   5.367   1.203 -0.3785 -0.0011 -0.1752
 4518W        W20592   7.481   9.970   4.274  0.0480 -0.1719  0.4691
 4519W        W20593  12.810   3.802  15.879  0.0272  0.0413 -0.0123
 4520W        W20594   3.201   0.862   5.185 -0.1164  0.1065  0.1979
 4521W        W20595  15.735   8.254   2.749  0.0772 -0.2050  0.1561
 4522W        W20596   5.552  12.196  11.393  0.0033  0.3808  0.0728
 4523W        W20597  15.393  10.900   5.701 -0.0968 -0.2455  0.3647
 4524W        W20598  17.123   5.475  13.804 -0.0643 -0.3098  0.1646
 4525W        W20599  14.979   1.756  11.426 -0.0375 -0.1158 -0.2538
 4526W        W20600  13.176   0.854   2.716 -0.3021 -0.0035 -0.0644
 4527W        W20601  17.617   4.216  14.084  0.0821  0.0864  0.1047
 4528W        W20602  16.689  14.985  11.732  0.2217  0.2191 -0.1956
 4529W        W20603  16.161   1.837   0.832 -0.0163 -0.0051 -0.0877
 4530W        W20604   7.218   9.246  13.292 -0.0917 -0.0161  0.3360
 4531W        W20605  12.145  17.042  12.155  0.0064  0.1319 -0.1072
 4532W        W20606  14.115  13.785  12.752  0.0630  0.2166  0.3741
 4533W        W20607   1.193  11.338  11.376  0.0723  0.2999 -0.1292
 4534W        W20608   8.546   3.107  13.952  0.2063 -0.2084 -0.2426
 4535W        W20609  10.491   7.943   2.023 -0.0221  0.0648 -0.2513
 4536W        W20610   0.935   1.112   5.362  0.3317  0.1727  0.1015
 4537W        W20611  16.968   8.509   0.951  0.2520  0.1382 -0.1059
 4538W        W20612  12.529   3.148  14.555  0.1563  0.0716  0.1754
 4539W        W20613  13.520   7.598   5.469  0.0808  0.0825 -0.0787
 4540W        W20614  14.477  13.170  14.849  0.0460 -0.1589 -0.1479
 4541W        W20615  15.226  13.435  11.854 -0.0103  0.0913  0.0812
 4542W        W20616  15.053  13.632  11.118 -0.2161 -0.2361 -0.3127
 4543W        W20617   2.175   7.435   2.603 -0.3452  0.4288 -0.2680
 4544W        W20618   9.242  14.997  14.102  0.0909  0.3258  0.0526
 4545W        W20619  12.381   5.607   1.539  0.0030  0.2721  0.0510
 4546W        W20620   6.370  11.292   5.007 -0.0769  0.1435 -0.5286
 4547W        W20621  15.290  10.417   3.275 -0.3169  0.0341 -0.1760
 4548W        W20622   7.103   5.225  11.875 -0.1498 -0.0432  0.1017
 4549W        W20623   2.278   6.303  12.672  0.1898  0.0008 -0.1031
 4550W        W20624  14.036  10.048   0.240  0.2353 -0.1696  0.0545
 4551W        W20625  16.259  17.421  13.990  0.2274 -0.0416 -0.0615
 4552W        W20626   1.013  12.106   1.993  0.2723 -0.1549  0.0323
 4553W        W20627   9.480   8.153  11.825 -0.2633  0.0013 -0.0487
 4554W        W20628   4.616   1.423  16.331 -0.1302  0.0351 -0.1867
 4555W        W20629  10.900  12.946  13.934  0.1979 -0.2076  0.0140
 4556W        W20630  12.371   7.023   5.729 -0.0037 -0.0669  0.3240
 4557W        W20631  12.049  11.712   4.632 -0.1597 -0.2439 -0.0650
 4558W        W20632  16.395   7.245   4.383 -0.0870  0.1613 -0.0334
 4559W        W20633  13.303  17.526  13.920  0.3729 -0.0529 -0.2531
 4560W        W20634   6.552   0.234  15.294 -0.1018  0.0196  0.2114
 4561W        W20635   2.418   5.028  13.482 -0.0005  0.1742 -0.0074
 4562W        W20636   6.146  12.673   5.249 -0.0542 -0.4971 -0.1122
 4563W        W20637   0.744   7.445  15.387 -0.6469  0.1524  0.2747
 4564W        W20638   2.555   3.600   1.318  0.2528 -0.0018  0.0404
 4565W        W20639  13.709   0.110   0.055  0.4669  0.0031 -0.0078
 4566W        W20640  14.963   4.126  12.564  0.1858  0.2831  0.0298
 4567W        W20641   0.547  10.569  15.180 -0.1906  0.4072  0.1908
 4568W        W20642  12.502   9.564  16.289  0.0428 -0.0156  0.0657
 4569W        W20643   3.382   7.500   1.225 -0.1378 -0.1089 -0.0191
 4570W        W20644  13.086  16.881   2.347  0.2956  0.2186 -0.0928
 4571W        W20645  18.051  15.777   0.727 -0.0201  0.2561  0.0010
 4572W        W20646   5.575  14.241   3.819  0.2603  0.2672 -0.1947
 4573W        W20647   7.250  14.202   0.462  0.1135 -0.2993  0.4720
 4574W        W20648  17.801   4.979  13.413 -0.1719  0.3534  0.0282
 4575W        W20649   0.627  16.747   2.250  0.0069  0.3417  0.1054
 4576W        W20650   4.130   8.453   0.080  0.3336  0.1831  0.0463
 4577W        W20651   4.063   7.988  13.115 -0.0759 -0.1069 -0.0567
 4578W        W20652  11.868   3.587  13.496 -0.0801  0.1739 -0.0121
 4579W        W20653   7.033  10.620   6.991  0.2172  0.2150 -0.2339
 4580W        W20654   5.012   9.979   3.644  0.2035 -0.0830  0.2863
 4581W        W20655   9.638   0.601   0.956  0.1261  0.4083  0.0430
 4582W        W20656   1.651  14.772  15.403  0.0130 -0.0549  0.2589
 4583W        W20657  17.758   5.395  16.289 -0.1320  0.1281  0.0337
 4584W        W20658   1.335   8.292  11.367 -0.2463  0.0628 -0.2195
 4585W        W20659   0.679  18.028   3.388  0.1077  0.2078 -0.0688
 4586W        W20660   0.894  12.875  12.711 -0.1617 -0.0693  0.3790
 4587W        W20661   5.706   9.020   1.403  0.2677 -0.0858 -0.0048
 4588W        W20662   2.928  16.919  12.917 -0.0659  0.2114  0.0090
 4589W        W20663   9.689   3.721  13.086  0.2143 -0.0394  0.2343
 4590W        W20664   1.174  13.205   5.013 -0.1205  0.0515 -0.2626
 4591W        W20665   1.482   3.484  11.654 -0.2376 -0.0840  0.3068
 4592W        W20666  11.026   5.000   2.630 -0.4711  0.0995  0.2338
 4593W        W20667   9.416   0.270  13.894  0.0146 -0.0482  0.0486
 4594W        W20668  15.929   9.928   1.245  0.0429 -0.2533 -0.0045
 4595W        W20669  11.568   2.290   1.342 -0.2031  0.3197  0.0464
 4596W        W20670   1.541  10.214  12.899 -0.0509  0.1783  0.0393
 4597W        W20671   8.620   9.813  16.445 -0.0224 -0.2431 -0.0303
 4598W        W20672   1.066   9.398   4.109  0.4033  0.2131 -0.1329
 4599W        W20673   0.411   9.319   3.643  0.2466  0.0093  0.2221
 4600W        W20674   0.789  18.034  16.318 -0.2251  0.1203 -0.0552
 4601W        W20675   1.646   2.457   4.976  0.3026  0.1058  0.0553
 4602W        W20676  12.568   3.558  16.259 -0.2284 -0.0786  0.3149
 4603W        W20677  14.987  16.604  12.541  0.0955 -0.2830 -0.0864
 4604W        W20678   8.416   0.035   5.345  0.1200  0.0004  0.0485
 4605W        W20679   6.176  11.311  14.468  0.1481 -0.3427 -0.0800
 4606W        W20680  12.187   0.595   3.425 -0.0199  0.2166 -0.0445
 4607W        W20681   4.295   9.982  15.458 -0.1316  0.0629 -0.2447
 4608W        W20682   3.142   7.467   3.471  0.3100  0.3943  0.1718
 4609W        W20683  10.525  15.887  13.882 -0.0919  0.0497  0.2117
 4610W        W20684   8.733  13.555  13.856 -0.0601  0.0201 -0.1578
 4611W        W20685  17.794   5.183  15.682  0.0311 -0.0564 -0.1989
 4612W        W20686   4.389  11.816  12.630  0.0067 -0.0732 -0.0333
 4613W        W20687  12.120  13.649   0.615  0.0435 -0.2219  0.2737
 4614W        W20688  17.093   3.099   2.360  0.0959  0.1805 -0.2950
 4615W        W20689   7.818   5.761  12.577 -0.0594  0.1798 -0.2593
 4616W        W20690   0.892   7.751   0.709 -0.1082  0.1657 -0.0305
 4617W        W20691  15.712   5.890   2.436 -0.0289  0.1464  0.1113
 4618W        W20692  11.004  15.311  13.147 -0.2455 -0.0804  0.3518
 4619W        W20693  14.531   7.038   4.056 -0.1848  0.2348 -0.0415
 4620W        W20694   5.002   8.498  14.414  0.1832 -0.1455 -0.0383
 4621W        W20695  14.708  17.902   0.327 -0.2675 -0.1519  0.3081
 4622W        W20696  14.179  12.439   1.257 -0.2099 -0.0454 -0.0201
 4623W        W20697  16.544  16.998  11.909 -0.3977 -0.3301 -0.0011
 4624W        W20698   2.233  16.027  11.984 -0.1182 -0.1604 -0.0561
 4625W        W20699  12.404   0.259  12.234 -0.0953 -0.0210 -0.2202
 4626W        W20700  17.865  17.908  16.444 -0.2020  0.0133  0.2479
 4627W        W20701   6.240   3.935   5.387 -0.6166  0.0363  0.0545
 4628W        W20702   3.742  13.863  11.872  0.3700 -0.4165 -0.2404
 4629W        W20703  16.286   3.640  11.459  0.1799 -0.1131  0.2273
 4630W        W20704   0.147  16.406   1.999 -0.2272 -0.2185  0.0038
 4631W        W20705   3.612   3.053   4.980  0.0289  0.2997  0.2022
 4632W        W20706  15.082   8.062   1.741  0.1234  0.2276  0.0185
 4633W        W20707   2.055   5.740   2.024  0.1847  0.0608 -0.3154
 4634W        W20708  12.830   5.870  16.098 -0.0142 -0.1502 -0.1296
 4635W        W20709  11.847  12.019   1.469  0.0864 -0.3802 -0.1778
 4636W        W20710   2.647   8.225   5.178  0.2092 -0.0279 -0.1793
 4637W        W20711  15.559   1.337   1.109 -0.2920  0.0362  0.1016
 4638W        W20712  10.718   2.877   1.974 -0.0916 -0.1662 -0.2066
 4639W        W20713   0.740   1.961  15.804  0.2016 -0.3129 -0.0188
 4640W        W20714   1.902   4.173   1.817  0.2371  0.1521  0.0143
 4641W        W20715  15.602  13.587   2.052  0.1971  0.0752 -0.1022
 4642W        W20716   8.860   9.624   3.538 -0.1094  0.0301 -0.1439
 4643W        W20717  16.636  12.227  12.830 -0.1058 -0.0352 -0.1344
 4644W        W20718  14.881  11.489  13.857 -0.0953  0.1452  0.0172
 4645W        W20719   0.411   2.269  15.655  0.1190 -0.4624 -0.1739
 4646W        W20720  18.169  16.695  11.320  0.0142 -0.0171 -0.0732
 4647W        W20721   2.430  14.003  15.591 -0.0729 -0.4165 -0.0666
 4648W        W20722  14.593  13.278  11.953 -0.0250  0.0577  0.0797
 4649W        W20723   9.604   3.078   5.927  0.0681 -0.3078  0.1219
 4650W        W20724   1.578   5.470  11.564 -0.2154  0.1723 -0.3260
 4651W        W20725  15.129  14.803   2.463  0.0426  0.0268 -0.1583
 4652W        W20726   1.195  10.521   3.637 -0.3178 -0.0803  0.0547
 4653W        W20727   2.891  13.310  14.472  0.3168  0.0736  0.2141
 4654W        W20728   6.097  15.144  11.345  0.2327 -0.0553 -0.1493
 4655W        W20729  13.711  15.189   2.029 -0.1823  0.1148  0.1341
 4656W        W20730  10.606   8.235  13.751 -0.0338 -0.1142 -0.1737
 4657W        W20731  11.437  17.141   3.823 -0.0836 -0.0621  0.0178
 4658W        W20732   5.580  12.241   1.418  0.0046  0.1160  0.0059
 4659W        W20733   4.816  13.641   0.308 -0.0254  0.0021  0.1034
 4660W        W20734  12.142  12.822   0.053 -0.2092  0.0431 -0.0942
 4661W        W20735   9.480  16.342   2.519  0.0895 -0.3074 -0.2191
 4662W        W20736  16.541   2.992   3.235  0.1879 -0.1067 -0.1432
 4663W        W20737  17.780  14.338   4.336 -0.2196 -0.5707 -0.0597
 4664W        W20738   3.090   2.762  15.353  0.1430  0.3529  0.2619
 4665W        W20739   3.756  14.289  14.552  0.3476 -0.0187 -0.0762
 4666W        W20740   3.304   2.697  15.821  0.0667 -0.0101 -0.2319
 4667W        W20741  11.424  11.679   2.986  0.0161 -0.1172 -0.1171
 4668W        W20742  16.515   9.183  11.975 -0.1073 -0.1926 -0.3182
 4669W        W20743   9.802  15.492  12.137 -0.2150  0.2601  0.1091
 4670W        W20744   9.137   2.107   0.495  0.2802 -0.2624  0.0612
 4671W        W20745  15.673   9.524  16.533  0.4688 -0.0115  0.1122
 4672W        W20746   4.970  14.701  12.093  0.2778  0.0634  0.2582
 4673W        W20747  13.692   2.722   2.782 -0.2207  0.2473  0.0116
 4674W        W20748   1.592   5.042  11.328  0.1789  0.0578  0.1232
 4675W        W20749  17.346  10.564  16.493  0.3930  0.1590 -0.1528
 4676W        W20750   9.363   3.122  14.330 -0.0348  0.2049  0.0596
 4677W        W20751   7.510   2.546   4.712  0.0597  0.1144 -0.1256
 4678W        W20752  15.675   8.496   2.269  0.1098 -0.0090 -0.1917
 4679W        W20753   1.013  16.964   5.020 -0.0103  0.2219  0.0246
 4680W        W20754   1.099  14.941  11.040 -0.2648  0.0962  0.1869
 4681W        W20755   8.886  13.473   0.297 -0.2784  0.1367 -0.1653
 4682W        W20756  12.438   2.585   0.714 -0.1233 -0.2310 -0.3325
 4683W        W20757  18.123  10.366  13.501  0.1696  0.0777 -0.0995
 4684W        W20758  12.795  17.438  14.727  0.1483 -0.0223 -0.0605
 4685W        W20759  18.086   1.588   4.698 -0.1627  0.2265  0.1622
 4686W        W20760  16.015  11.271   5.068 -0.1717 -0.3857  0.0299
 4687W        W20761   0.325   2.870  12.702  0.0959  0.2247  0.1974
 4688W        W20762   6.005  10.526   5.065 -0.0482 -0.0093 -0.1089
 4689W        W20763   3.564  11.870   0.638  0.0964  0.3061  0.0737
 4690W        W20764  14.304  12.208  13.604  0.0905  0.0022 -0.0311
 4691W        W20765  17.938   9.795  12.195 -0.1281  0.1942 -0.0933
 4692W        W20766  13.498   5.804   2.340  0.0013  0.0273  0.0658
 4693W        W20767  13.736   1.231  11.271  0.0167 -0.0105  0.0981
 4694W        W20768   4.744   8.971  16.375 -0.0182 -0.3544  0.1626
 4695W        W20769  18.117   6.778  12.263  0.0888  0.1151  0.0141
 4696W        W20770   1.651   9.500   6.152 -0.0822  0.1388  0.0532
 4697W        W20771  11.831   1.639  12.388  0.3505  0.4595  0.1875
 4698W        W20772   8.025   4.989   1.557  0.1418 -0.0054 -0.0154
 4699W        W20773   7.221  11.052  15.543 -0.1908 -0.2691  0.0474
 4700W        W20774   5.521   2.622  14.841  0.0768 -0.0915  0.3024
 4701W        W20775   5.351   3.743   1.669 -0.1506  0.0157  0.1737
 4702W        W20776   0.124  12.463   3.745  0.0253  0.2175  0.3931
 4703W        W20777  16.796  10.144   0.749 -0.0925  0.0736 -0.3922
 4704W        W20778   1.268   5.611  15.939 -0.1644 -0.1686  0.1435
 4705W        W20779  13.302   8.148   3.130 -0.1155 -0.1176 -0.1166
 4706W        W20780   2.836  14.984   1.755  0.2873 -0.0555 -0.1910
 4707W        W20781   0.137  16.484   5.129  0.0912  0.3176 -0.2069
 4708W        W20782  12.285  12.427  16.300 -0.0038 -0.1472 -0.2244
 4709W        W20783   7.984   3.540  16.339 -0.0027  0.6123  0.1807
 4710W        W20784   8.028   4.480  13.782  0.0768  0.2137  0.1354
 4711W        W20785  10.987   1.335  13.020  0.2112 -0.1135 -0.1185
 4712W        W20786   2.692  13.795  12.479  0.0099 -0.1906  0.1537
 4713W        W20787   7.839   8.745   1.765 -0.2159  0.1411  0.0942
 4714W        W20788   9.746  14.543  13.257 -0.1666  0.3891 -0.1476
 4715W        W20789   9.871  12.173   0.032 -0.1291 -0.3529 -0.0891
 4716W        W20790  15.444   6.133   1.504 -0.0053 -0.0126 -0.0271
 4717W        W20791  16.687   9.085   4.568 -0.3337  0.0196 -0.0110
 4718W        W20792  12.100  15.940  15.837  0.2966  0.0336  0.1037
 4719W        W20793   0.121  15.047   4.648 -0.2226  0.1026  0.2398
 4720W        W20794   1.722   4.687  13.172 -0.0069  0.0106  0.2532
 4721W        W20795   5.143   4.285  13.436  0.1421  0.0857  0.4136
 4722W        W20796  12.841  17.413  13.360  0.3276 -0.0768 -0.0154
 4723W        W20797   7.897  11.263   1.222  0.0296 -0.0230  0.1066
 4724W        W20798  17.371  16.716   2.731 -0.0914 -0.1168  0.1883
 4725W        W20799  13.672  15.474  12.611  0.2573 -0.0200  0.0748
 4726W        W20800   9.503  15.661  13.925 -0.0041 -0.2772  0.2078
 4727W        W20801  14.201   9.218   5.608  0.0967 -0.0309 -0.3302
 4728W        W20802   2.886  11.888  16.375 -0.3886 -0.0799  0.0002
 4729W        W20803   6.589   7.160   1.569  0.1001  0.1201  0.3106
 4730W        W20804   3.700   8.558   0.472 -0.0214  0.1007 -0.0995
 4731W        W20805   7.140  13.314  16.001 -0.3609 -0.0100  0.0285
 4732W        W20806   7.993   1.599   3.217  0.0308  0.0968 -0.3077
 4733W        W20807   5.202  17.820   1.938  0.1171  0.2937  0.0186
 4734W        W20808   0.107   8.440   5.881 -0.0371  0.0841 -0.0415
 4735W        W20809  17.582  10.004   3.474 -0.0748  0.1629  0.0314
 4736W        W20810  13.162  18.054   5.006  0.0407  0.0828  0.1199
 4737W        W20811  12.141  14.195   5.265 -0.1718 -0.1160  0.1377
 4738W        W20812   6.212   9.574   1.054 -0.3482  0.1014 -0.2672
 4739W        W20813   4.837   1.738  14.444  0.0704 -0.4075 -0.0539
 4740W        W20814   3.246  10.495  11.952  0.0949 -0.0902 -0.2392
 4741W        W20815   0.748   1.647   1.934 -0.3108 -0.3127  0.0329
 4742W        W20816   9.111   6.828  12.997 -0.0755 -0.2045 -0.1831
 4743W        W20817   2.997   2.457  14.209  0.0533 -0.0660  0.1497
 4744W        W20818  15.201   1.044   1.264 -0.2229  0.2428 -0.1601
 4745W        W20819  16.400  14.825   0.529  0.0556  0.5136  0.0855
 4746W        W20820   8.840   3.542   0.800 -0.1658  0.1811  0.0029
 4747W        W20821   2.700   2.484  12.986 -0.1403 -0.2298 -0.1496
 4748W        W20822  11.921   1.751   2.143  0.0486 -0.0983 -0.0881
 4749W        W20823   2.103  11.669   3.437 -0.2740  0.0175 -0.1592
 4750W        W20824  11.273   0.281  15.138 -0.4690  0.1532 -0.1685
 4751W        W20825  10.163   5.937  15.702 -0.0678 -0.1369 -0.1476
 4752W        W20826  10.308   0.358  16.463  0.1008  0.0054 -0.1882
 4753W        W20827   2.721   0.366   4.540  0.2794  0.1110  0.0581
 4754W        W20828   1.090   0.537   3.537 -0.0727 -0.0699  0.0998
 4755W        W20829   6.207  10.118   4.326 -0.0966 -0.0981  0.0441
 4756W        W20830  15.239   8.855  13.992  0.0564  0.0429  0.0717
 4757W        W20831  11.082  17.734   2.140  0.2770 -0.3400  0.1672
 4758W        W20832   2.857   2.721   6.252 -0.0548 -0.1552  0.0028
 4759W        W20833  15.035   7.739  16.469  0.0743 -0.2020 -0.0602
 4760W        W20834  12.145  13.600   4.206 -0.1966  0.1802 -0.2158
 4761W        W20835   3.367   8.947   2.780  0.1834  0.2571 -0.0269
 4762W        W20836  15.210   6.792   2.373  0.0026  0.0014 -0.2653
 4763W        W20837   2.109   7.418   1.932  0.0378 -0.0500  0.1509
 4764W        W20838  11.425  13.624   5.401  0.0372 -0.1481  0.0048
 4765W        W20839  16.056  13.782  11.698 -0.2121  0.0376 -0.4682
 4766W        W20840  13.733  17.253   5.889  0.0460 -0.0971  0.4169
 4767W        W20841  10.479  12.056  14.645 -0.0274 -0.0442  0.0842
 4768W        W20842  17.462   6.930  16.328 -0.0421  0.2017 -0.1329
 4769W        W20843   3.171   3.264   5.067  0.0702 -0.1292 -0.0335
 4770W        W20844   2.315  13.423  12.267  0.0744  0.0492  0.4724
 4771W        W20845  12.140   5.833  15.130 -0.3238 -0.1381  0.2494
 4772W        W20846  17.328   5.074   3.958 -0.0516 -0.0552  0.1536
 4773W        W20847  14.126   8.151   1.464 -0.0775 -0.1504  0.2657
 4774W        W20848   4.697   1.209   1.485 -0.0102  0.0987 -0.1656
 4775W        W20849   0.440   2.773  14.335 -0.1020  0.4411  0.0463
 4776W        W20850   1.869  15.549   1.511 -0.3131  0.1246  0.1280
 4777W        W20851  14.862  12.956   1.172  0.0303  0.1367 -0.1779
 4778W        W20852   5.442   4.058  13.102 -0.0836  0.1491  0.2083
 4779W        W20853  11.765   6.204  16.072 -0.1529  0.1511 -0.3166
 4780W        W20854   8.444  13.288   1.116 -0.1128  0.2610 -0.0414
 4781W        W20855  15.988   0.835  14.922 -0.3332  0.0994  0.0242
 4782W        W20856   3.148  13.068  12.330  0.0922  0.0418 -0.2832
 4783W        W20857  17.997   0.665   3.580  0.0823 -0.2562 -0.1309
 4784W        W20858   8.510  16.404  13.171 -0.0141  0.1970  0.0520
 4785W        W20859  12.900   2.624   6.043 -0.0029 -0.0599  0.0656
 4786W        W20860   8.433  10.224   5.672  0.1825 -0.0832 -0.1470
 4787W        W20861  12.456   8.574  12.513  0.2568  0.4404  0.0619
 4788W        W20862   2.575  15.039   3.019  0.1629  0.2803 -0.1551
 4789W        W20863  15.454   7.598  12.385 -0.1218 -0.1539  0.0218
 4790W        W20864   7.836  16.512   4.969 -0.1682 -0.1712  0.1262
 4791W        W20865   8.442   0.954  10.972  0.0946  0.0935  0.2421
 4792W        W20866  10.689   2.290   3.952 -0.0317 -0.1475  0.2508
 4793W        W20867  12.144  11.089   6.287 -0.1730 -0.1996  0.2499
 4794W        W20868   6.957  17.135   1.703 -0.0725  0.2068 -0.0482
 4795W        W20869  17.059   8.700   5.441  0.0416 -0.1325 -0.1351
 4796W        W20870  17.628   2.721  16.195  0.0967  0.0577 -0.1188
 4797W        W20871  16.126   7.552   3.152 -0.0299 -0.0189 -0.0730
 4798W        W20872   5.840  15.601  14.180 -0.2189 -0.0489 -0.0938
 4799W        W20873  17.658   0.261   0.704 -0.1556  0.0827 -0.0855
 4800W        W20874  11.548  14.300  12.291 -0.1161  0.1047  0.2165
 4801W        W20875   0.290   9.466   0.032  0.2285  0.0258 -0.3195
 4802W        W20876   8.198  17.805  13.995 -0.0192  0.1308 -0.4805
 4803W        W20877   5.376   4.780   3.212  0.0483  0.0638  0.0265
 4804W        W20878   8.420   5.736   1.263 -0.0734 -0.1360  0.1360
 4805W        W20879  10.508  15.354  11.684  0.2086 -0.0367 -0.3522
 4806W        W20880  10.836   0.328   2.374  0.0760 -0.3310 -0.0254
 4807W        W20881   2.166   1.207   2.690  0.1562  0.1854  0.1100
 4808W        W20882  10.724   8.120   4.544 -0.3671  0.3529  0.0885
 4809W        W20883   8.476  14.094   2.591 -0.0674 -0.0620  0.0517
 4810W        W20884   9.327   9.932  13.637 -0.1524 -0.2540  0.3320
 4811W        W20885   9.364  12.218  14.137  0.3369  0.0918 -0.0419
 4812W        W20886   2.716   4.499   5.174  0.2516 -0.2155  0.1569
 4813W        W20887   5.508   2.604  13.059 -0.0076 -0.0235  0.0293
 4814W        W20888   4.672  11.283  15.109  0.0790 -0.1379 -0.0787
 4815W        W20889  11.127  18.088   2.460 -0.0427  0.0139  0.1376
 4816W        W20890   8.293   0.859  15.989  0.0692  0.3602 -0.0819
 4817W        W20891  17.064   9.632   1.070 -0.1259  0.1020  0.0480
 4818W        W20892   9.038   3.025   2.570 -0.0755 -0.0460  0.0158
 4819W        W20893  10.005   2.157   2.219  0.0430  0.2412 -0.2488
 4820W        W20894   7.616  16.417  11.691 -0.0662  0.1436  0.0436
 4821W        W20895   4.675  11.528  12.302  0.0328  0.0579 -0.2590
 4822W        W20896  16.924  11.238   0.661 -0.1187  0.0821 -0.1416
 4823W        W20897   4.393  18.172   4.099  0.0958  0.0242 -0.2537
 4824W        W20898   6.461  14.451   4.736  0.4946  0.1426 -0.1650
 4825W        W20899   1.317  11.857  15.569 -0.0456 -0.2271  0.2742
 4826W        W20900   4.905   4.566  15.240 -0.2725 -0.0611 -0.0233
 4827W        W20901   6.063  16.733  15.079  0.2904 -0.0144 -0.1364
 4828W        W20902   9.158   3.723   4.758  0.3296 -0.0981  0.0808
 4829W        W20903  18.216   0.071  12.642 -0.2289  0.0156  0.3333
 4830W        W20904  14.105  11.112  12.260  0.0101 -0.0568 -0.0920
 4831W        W20905   8.733  15.941   5.258 -0.0228 -0.0760 -0.1252
 4832W        W20906   4.089  12.845   2.344 -0.0975  0.2221 -0.1631
 4833W        W20907   6.970   8.568   0.838  0.1536 -0.5424 -0.1906
 4834W        W20908   8.034   5.728   5.045 -0.1340  0.0777 -0.1895
 4835W        W20909  11.772   2.925  13.922 -0.2011 -0.0670 -0.1034
 4836W        W20910   4.489  13.250   5.062  0.1603 -0.0779 -0.3865
 4837W        W20911  14.271   5.008   2.997 -0.0875 -0.0700  0.1588
 4838W        W20912  15.067  16.179  14.531  0.2224  0.1884 -0.0513
 4839W        W20913   3.130   0.189   0.738  0.2619  0.0503  0.1573
 4840W        W20914  14.853  15.177   2.209  0.3337 -0.2730  0.2352
 4841W        W20915  15.643  12.641   0.490 -0.2833  0.1420  0.0235
 4842W        W20916   0.598   2.684   1.680  0.1612  0.3199  0.1121
 4843W        W20917   8.629  12.442  14.441  0.0622  0.0195  0.0057
 4844W        W20918   0.783  17.324   5.330 -0.0429 -0.0202 -0.2143
 4845W        W20919   4.502  12.986   3.670 -0.1590  0.0820 -0.0710
 4846W        W20920   6.948   6.134   3.875  0.1277 -0.0421 -0.0085
 4847W        W20921  12.583  13.928   1.982 -0.0916 -0.2499  0.1903
 4848W        W20922   3.072  17.690  13.443  0.1805 -0.0957  0.1480
 4849W        W20923  13.227   9.059  12.830 -0.1629  0.5345 -0.0034
 4850W        W20924  17.836  16.893  12.275  0.1194 -0.1422  0.0575
 4851W        W20925  12.451  13.922  14.497 -0.0957  0.1255  0.0408
 4852W        W20926   1.979  14.363   3.927  0.0467  0.0168 -0.3036
 4853W        W20927   3.692  11.184   3.167  0.0000 -0.2962 -0.1124
 4854W        W20928   8.976   5.858   1.577 -0.2002  0.2828 -0.0335
 4855W        W20929   8.079  11.318  13.197  0.0263 -0.1225  0.1890
 4856W        W20930   5.687   4.598   5.499  0.0264  0.4546  0.0560
 4857W        W20931   4.136   0.821   2.861 -0.3167  0.2238  0.0053
 4858W        W20932  12.691   9.683   1.846 -0.1076  0.0710  0.1069
 4859W        W20933   5.734   8.914  12.560  0.1194 -0.0797 -0.0014
 4860W        W20934  10.040   2.905  11.982  0.0798  0.1868 -0.1919
 4861W        W20935   8.888   7.306   2.879 -0.1082 -0.1693 -0.2448
 4862W        W20936  15.454   2.202   1.969 -0.1727  0.2622 -0.0566
 4863W        W20937   9.714  10.508  15.047  0.2262 -0.0453  0.2393
 4864W        W20938   3.473  14.751  14.627 -0.1409  0.3084 -0.1745
 4865W        W20939  13.644  11.496   4.086 -0.0661 -0.1832 -0.0793
 4866W        W20940  11.022   3.901  11.959 -0.2338  0.0760 -0.1598
 4867W        W20941   5.010  15.198   1.968 -0.2484  0.0199  0.1497
 4868W        W20942   9.418   8.790   5.094 -0.1898 -0.1820 -0.1392
 4869W        W20943  11.956   1.345  12.926  0.0238 -0.0550  0.1196
 4870W        W20944   3.125   5.100   3.246 -0.0106  0.1823  0.2382
 4871W        W20945  15.947  16.485  14.208 -0.2160  0.2878  0.1010
 4872W        W20946  13.846   7.034  12.232 -0.2674  0.0762  0.2564
 4873W        W20947   1.893  14.972   1.637  0.1009 -0.0738  0.1316
 4874W        W20948   4.798   6.997   6.499 -0.0440  0.0748  0.0869
 4875W        W20949  12.174  10.426   0.705 -0.0603 -0.0652 -0.3080
 4876W        W20950  13.535   3.719  12.235 -0.1927  0.0420  0.1071
 4877W        W20951   0.004  14.110   4.997  0.1133  0.0885  0.0720
 4878W        W20952  13.607   9.170  15.006 -0.0171  0.0857 -0.1470
 4879W        W20953  18.177   4.974  14.955 -0.0145 -0.0132 -0.3933
 4880W        W20954   1.934   0.589   3.508 -0.3185 -0.1372  0.0504
 4881W        W20955   0.684  13.615  12.362 -0.0107  0.2424 -0.0753
 4882W        W20956   3.317   0.771  16.274  0.1955  0.1078  0.0259
 4883W        W20957   2.314  17.572  11.209 -0.1112 -0.1212 -0.0893
 4884W        W20958  10.783   6.939   4.411  0.1835  0.3579 -0.0916
 4885W        W20959  16.748   4.334  15.041  0.0748  0.1719  0.1320
 4886W        W20960  13.623  10.294   0.167 -0.0137 -0.1758 -0.0104
 4887W        W20961   2.548  13.664   0.442  0.1238 -0.1166 -0.1001
 4888W        W20962   5.396   5.539  12.204 -0.1486  0.2697 -0.0503
 4889W        W20963   1.436  10.982   1.065 -0.0880 -0.0014  0.3983
 4890W        W20964   5.284   6.002  15.784 -0.0159  0.2537 -0.0341
 4891W        W20965  15.653   2.129   3.377  0.2188 -0.1204  0.2759
 4892W        W20966  17.191  16.500  12.765  0.0738  0.4152 -0.1310
 4893W        W20967   7.732  15.646  14.001  0.0304 -0.0370  0.1841
 4894W        W20968   1.860   8.783   1.943  0.0821 -0.3786  0.2649
 4895W        W20969  17.227  11.288   4.942 -0.2410 -0.1766 -0.0026
 4896W        W20970  11.072   0.725  15.456 -0.1003  0.1363  0.0440
 4897W        W20971   6.286  15.333   4.268 -0.3169 -0.0503 -0.0995
 4898W        W20972  14.982  17.282   3.532  0.0085  0.0710  0.3049
 4899W        W20973   8.542   8.167  12.556 -0.1025 -0.3365 -0.1251
 4900W        W20974   9.496   6.678  12.680  0.3756 -0.4489 -0.0308
 4901W        W20975   2.854   8.065   1.133 -0.2119 -0.0352  0.3888
 4902W        W20976   6.087  13.572  13.529 -0.0038  0.0912 -0.0520
 4903W        W20977  12.899   8.298   5.396 -0.4053  0.0220  0.2482
 4904W        W20978  16.228   4.196   2.244 -0.0719  0.0316  0.0500
 4905W        W20979  11.596   8.527   1.109  0.0343  0.0285 -0.1271
 4906W        W20980   6.674   8.339  15.036 -0.0940  0.1351  0.0994
 4907W        W20981   9.538  11.469  15.323  0.2311 -0.0673 -0.1179
 4908W        W20982   0.650   2.698  11.996  0.3302  0.1652 -0.2983
 4909W        W20983  15.288  10.735  13.585 -0.0748 -0.2250  0.0506
 4910W        W20984   5.714  15.548  13.201  0.0777  0.0224 -0.3946
 4911W        W20985  13.768   3.949   4.905 -0.2167  0.2847 -0.1715
 4912W        W20986  16.999   6.067  11.784  0.2608  0.0055  0.0151
 4913W        W20987  15.946  11.082   3.232 -0.0364  0.1492  0.1383
 4914W        W20988   9.864   0.159  16.333 -0.0451  0.0743  0.2619
 4915W        W20989   0.750  13.148   2.192 -0.1004  0.2938  0.1619
 4916W        W20990  18.222   3.563   4.048 -0.1006  0.1824 -0.2116
 4917W        W20991  12.145   0.906  11.955  0.1336 -0.2608 -0.1288
 4918W        W20992  17.080   3.536  11.897  0.1319  0.0199 -0.4324
 4919W        W20993  18.065  12.517  14.634 -0.2291 -0.0077 -0.1167
 4920W        W20994   3.700  16.859  15.190 -0.3464  0.0395 -0.1255
 4921W        W20995   8.496  10.853   2.799 -0.2682  0.2656  0.0743
 4922W        W20996  15.345   3.260   5.440  0.1131 -0.0962  0.0631
 4923W        W20997   2.547  15.054  15.693  0.1945 -0.1504 -0.2549
 4924W        W20998  14.352  15.540  14.277 -0.0481 -0.0888  0.0174
 4925W        W20999  15.977  11.750   3.812  0.0995 -0.2760  0.0552
 4926W        W21000   6.765   6.952   1.165  0.0147 -0.1724  0.2191
 4927W        W21001  14.965  15.716  14.196  0.0313  0.0165  0.1212
 4928W        W21002  14.555   3.152   0.632 -0.2378 -0.1471 -0.0980
 4929W        W21003   9.692  16.433  11.673 -0.2856  0.1320  0.3068
 4930W        W21004  11.692  12.332  15.160  0.0618  0.0287 -0.5032
 4931W        W21005  18.158  15.218   0.645 -0.1786 -0.0850 -0.0319
 4932W        W21006   1.930   7.453  16.107 -0.1445  0.1829 -0.1347
 4933W        W21007   1.902  10.396   2.942  0.1686 -0.1494 -0.1361
 4934W        W21008   3.557   4.679  13.869 -0.1813  0.2992 -0.2201
 4935W        W21009   4.185  16.159  11.796  0.0660  0.0028  0.1992
 4936W        W21010   0.858  12.205  11.389 -0.0143  0.0607 -0.2673
 4937W        W21011   0.722   3.666   3.589  0.0765  0.1600  0.0469
 4938W        W21012   0.616   2.185  13.198 -0.0635  0.1061 -0.0310
 4939W        W21013  16.857   3.261   4.536  0.2900  0.4169 -0.0178
 4940W        W21014   8.307  12.244   1.976  0.0566 -0.2142 -0.1223
 4941W        W21015   3.880   9.000  15.994 -0.0165  0.0260 -0.1223
 4942W        W21016   1.623   5.724   0.215 -0.4443 -0.0691  0.1682
 4943W        W21017   6.740   3.608   1.214 -0.1915  0.1013  0.0038
 4944W        W21018   5.488  10.983  12.311  0.1542 -0.4896  0.1804
 4945W        W21019   6.433   4.691  14.458  0.0612 -0.1154 -0.1067
 4946W        W21020   7.739  13.470   1.811 -0.0478 -0.0150 -0.2777
 4947W        W21021  13.294   1.489  15.850 -0.0560  0.0904 -0.0284
 4948W        W21022  10.413  10.442  16.406 -0.1030 -0.2218 -0.1056
 4949W        W21023  16.313  13.576   1.645 -0.4171 -0.0155 -0.0210
 4950W        W21024  15.744   3.958  13.069  0.4046  0.0446  0.1514
 4951W        W21025   6.643   8.365  14.128  0.1699  0.2422 -0.2082
 4952W        W21026  17.784   1.268   1.385 -0.0150  0.2193 -0.2010
 4953W        W21027  12.551  16.079  15.002  0.1657  0.0139  0.3073
 4954W        W21028   2.006   4.457   4.719  0.0675  0.0107  0.0248
 4955W        W21029  12.989  17.720  15.516 -0.0316 -0.2664 -0.2559
 4956W        W21030  14.644  15.894  14.551  0.1066  0.4566 -0.0910
 4957W        W21031  17.886   7.098  11.143  0.2783 -0.4506 -0.1127
 4958W        W21032   0.203  14.566  11.060  0.1515  0.2621 -0.0511
 4959W        W21033  16.982   0.010  12.421  0.0184  0.2812 -0.1675
 4960W        W21034  12.832   2.441  13.230 -0.2173 -0.2170 -0.0345
 4961W        W21035   1.660  16.429   2.511 -0.1519  0.0400 -0.0305
 4962W        W21036   9.981  10.011   4.797 -0.0117  0.0162  0.3648
 4963W        W21037   2.617  16.182   2.841 -0.0382  0.0399  0.2188
 4964W        W21038   5.083   0.082  13.707  0.0875 -0.0439  0.0513
 4965W        W21039   8.931  16.552   4.012 -0.2956  0.4399  0.3163
 4966W        W21040   7.289  15.406  14.083  0.2128  0.0777  0.1374
 4967W        W21041  13.883   5.196  14.969  0.0406  0.1863  0.1907
 4968W        W21042  11.657   2.766   0.436 -0.2625 -0.3579  0.1701
 4969W        W21043   4.776  16.202   3.604 -0.0795 -0.0051 -0.1102
 4970W        W21044  14.354   9.191  15.341 -0.4575  0.2507 -0.0181
 4971W        W21045  11.167   7.358   5.800  0.1930  0.0788  0.2133
 4972W        W21046   0.035  11.849  13.120  0.1671 -0.0717 -0.1963
 4973W        W21047   5.616   5.215  16.296 -0.1140 -0.0900  0.1237
 4974W        W21048  15.357   1.525   0.426  0.4148 -0.2443  0.2734
 4975W        W21049  12.887  12.242  12.881  0.0021  0.1582 -0.1276
 4976W        W21050   7.896  18.207  14.025  0.2217  0.0320 -0.1992
 4977W        W21051  10.356   4.922   4.777 -0.2504  0.2039 -0.0742
 4978W        W21052  16.251   8.735   5.538 -0.2717 -0.4043  0.0240
 4979W        W21053   2.400  17.152  11.941  0.2569 -0.0317  0.1033
 4980W        W21054  17.818  14.535  12.048 -0.0563 -0.2532  0.3268
 4981W        W21055   4.915   4.425  16.261 -0.1516  0.3304  0.1831
 4982W        W21056  11.231   8.194   1.193 -0.2487  0.0670  0.2242
 4983W        W21057  12.695   6.270  13.816  0.0121  0.4822  0.1052
 4984W        W21058  12.688  17.012   6.057  0.0964 -0.1871  0.1510
 4985W        W21059   0.755   0.426  12.559 -0.2728 -0.2665 -0.0181
 4986W        W21060   7.147   8.304  11.491  0.0718 -0.2465 -0.0039
 4987W        W21061   7.251   8.857  12.608  0.2459 -0.0202 -0.1771
 4988W        W21062  14.366  17.208   3.775  0.1791 -0.3768 -0.1256
 4989W        W21063  16.355  12.234   5.801  0.0847  0.0401  0.1542
 4990W        W21064   7.491  10.462   4.272  0.1156  0.0147 -0.1056
 4991W        W21065  17.571   8.517  11.980  0.1841 -0.1400 -0.1888
 4992W        W21066  17.439  13.585  15.648  0.1211  0.2964 -0.1290
 4993W        W21067  14.942  16.689   1.443  0.2399 -0.1116  0.0129
 4994W        W21068  13.322   0.980   4.628  0.0926 -0.0334 -0.2271
 4995W        W21069   6.267  14.480  16.549  0.1746  0.2819 -0.1297
 4996W        W21070  14.009   4.936   1.554  0.1180  0.1591 -0.1335
 4997W        W21071   9.920   5.814   3.278 -0.0413  0.2096  0.0457
 4998W        W21072   0.269  11.692  13.669 -0.2621 -0.3047  0.1323
 4999W        W21073  13.449  10.725  15.718 -0.2457  0.3556  0.4323
 5000W        W21074   7.782  13.998  14.047  0.1367 -0.3276 -0.1888
 5001W        W21075   3.207   3.137  14.626  0.1651 -0.0606 -0.1978
 5002W        W21076   1.979  15.112  15.641  0.0936 -0.2355 -0.3413
 5003W        W21077  13.543  18.059   0.820 -0.0951 -0.5277  0.1553
 5004W        W21078   6.220  12.579  11.711  0.0214 -0.1176 -0.0272
 5005W        W21079  15.198   5.385  14.104  0.0761 -0.3418 -0.2010
 5006W        W21080   4.164   9.111  15.378 -0.2465  0.3413  0.1643
 5007W        W21081   0.020  11.154  15.919 -0.4275 -0.0442 -0.1597
 5008W        W21082   8.111  10.981  14.085  0.1104  0.4395  0.1201
 5009W        W21083   5.594  17.468   1.014  0.0259  0.3804 -0.2058
 5010W        W21084   8.118  14.835  15.638 -0.1091 -0.0338 -0.0999
 5011W        W21085   8.764   3.992   4.611 -0.0003 -0.1139 -0.0542
 5012W        W21086   9.111   1.060  11.914 -0.3125 -0.0894 -0.1424
 5013W        W21087   3.555   7.473  14.932 -0.1626  0.1052 -0.2989
 5014W        W21088  11.270  10.446   3.367  0.0236 -0.1730  0.1498
 5015W        W21089   2.022   8.547   1.012 -0.1089 -0.1421 -0.1413
 5016W        W21090   9.608   5.896  14.383 -0.1559 -0.3793 -0.1343
 5017W        W21091   2.699   3.478   5.253  0.0136 -0.2766  0.4017
 5018W        W21092   8.742  12.752   3.907  0.1004  0.1761  0.0692
 5019W        W21093  10.225   8.344  13.081  0.2913  0.1409 -0.1793
 5020W        W21094  14.561   8.650  11.911  0.1262  0.0818  0.3066
 5021W        W21095  13.946   4.999   3.408  0.0459  0.1879 -0.0563
 5022W        W21096  14.255   8.484   3.897 -0.0249 -0.0493 -0.0756
 5023W        W21097  10.664   0.645   4.804  0.1346 -0.2529  0.1452
 5024W        W21098   7.988  15.919   3.800  0.5179 -0.0458 -0.0011
 5025W        W21099  12.301   5.087   3.134 -0.0544  0.1408  0.1601
 5026W        W21100  11.545   0.431   5.236 -0.1577  0.3968 -0.0193
 5027W        W21101   4.022  10.377  16.475 -0.0610  0.1267 -0.2610
 5028W        W21102  12.889  13.751   3.726  0.1179 -0.0189 -0.1384
 5029W        W21103   2.233   6.721   4.395  0.2687  0.0478  0.1750
 5030W        W21104  13.209  14.999  12.216 -0.0177 -0.2878 -0.1830
 5031W        W21105   6.895   2.665  16.081  0.1048 -0.0211  0.4143
 5032W        W21106   7.723   5.999   1.236 -0.0233 -0.4545 -0.1485
 5033W        W21107  15.886   7.119  12.791  0.2149 -0.0273  0.0228
 5034W        W21108   7.805  16.541   3.737 -0.1778 -0.1637  0.1043
 5035W        W21109  18.170  13.273  12.612 -0.2297 -0.1157 -0.3069
 5036W        W21110   4.852  12.389  14.290  0.1592 -0.0973  0.2176
 5037W        W21111  16.416   2.218   4.293 -0.0009  0.2785  0.0962
 5038W        W21112   0.762  10.039  14.132  0.0176  0.2397  0.1169
 5039W        W21113   1.518  14.166  14.281  0.2557 -0.0239  0.2723
 5040W        W21114  17.402  17.825   0.010  0.1120  0.0227  0.2899
 5041W        W21115  16.886   3.510   3.047  0.5016 -0.0906  0.2527
 5042W        W21116   7.983   3.014   2.434  0.1113 -0.0972  0.0540
 5043W        W21117   8.671  14.459   2.989 -0.1846 -0.4360  0.0674
 5044W        W21118   1.470   4.328   0.092 -0.0014 -0.1510  0.0363
 5045W        W21119   6.762   4.206   0.492 -0.1341 -0.0263  0.0723
 5046W        W21120  17.072  16.114  12.424  0.0703 -0.0059  0.0654
 5047W        W21121  15.062  12.265  15.948  0.1878  0.1325  0.0779
 5048W        W21122   7.293  17.862  16.315 -0.2076  0.1830  0.0624
 5049W        W21123   7.424   3.437   0.375 -0.2327  0.2821  0.1843
 5050W        W21124   3.735   8.802  15.487 -0.1910  0.0615 -0.0764
 5051W        W21125   4.620  11.545   4.201  0.2692  0.0853 -0.1985
 5052W        W21126  10.327   6.082   5.531 -0.1241  0.1398  0.0686
 5053W        W21127   4.634  11.000   1.831 -0.2358  0.0069 -0.1136
 5054W        W21128   3.912   9.470   2.064  0.2100  0.0494 -0.2403
 5055W        W21129   4.758   7.534   0.154 -0.3293 -0.1404  0.0741
 5056W        W21130  12.458  18.139  16.399  0.1422 -0.1349 -0.1708
 5057W        W21131  14.264   3.127   3.256  0.3416  0.0925 -0.0616
 5058W        W21132   7.860   2.694  12.854 -0.1491 -0.3290 -0.0488
 5059W        W21133  11.149   4.628   4.819  0.1553  0.2417 -0.1582
 5060W        W21134  15.064   1.852  14.820  0.0482  0.1982  0.3515
 5061W        W21135  13.815   3.366   1.104 -0.1999  0.1832 -0.0413
 5062W        W21136   9.719  15.057  15.652  0.0211 -0.1599  0.0695
 5063W        W21137   8.855   7.514   0.853  0.1226 -0.2752 -0.3254
 5064W        W21138  10.257  13.604  16.429  0.2114  0.0965 -0.2310
 5065W        W21139   1.243  12.891  14.917  0.0281 -0.5231 -0.3381
 5066W        W21140   5.197   2.147   1.700  0.0278  0.0352 -0.2007
 5067W        W21141  17.902  12.720   2.315 -0.0635  0.0131  0.1159
 5068W        W21142  12.190   4.217   2.724  0.0265  0.0422 -0.0790
 5069W        W21143  15.519  14.199   1.256  0.3869  0.0220 -0.3033
 5070W        W21144  14.542   0.106   1.998 -0.2123  0.0301  0.3287
 5071W        W21145   0.125   9.885  11.291 -0.3479  0.1719  0.0605
 5072W        W21146   2.381   7.661  14.839  0.1867 -0.1668  0.1422
 5073W        W21147   1.367   0.816  16.198  0.0364  0.0716 -0.0485
 5074W        W21148   7.184   9.314  12.522 -0.2937 -0.0572 -0.1480
 5075W        W21149   7.494  12.744  11.676 -0.0806  0.3376  0.0976
 5076W        W21150   7.164   1.243   3.933 -0.2072  0.2762 -0.1422
 5077W        W21151  12.892   4.813   1.324 -0.1842  0.1649  0.0532
 5078W        W21152  11.449   9.789   5.552 -0.0929 -0.1659 -0.5264
 5079W        W21153  13.501   7.999   2.125 -0.2710  0.0021  0.1462
 5080W        W21154   5.216  10.021  14.686  0.0778  0.1591  0.2355
 5081W        W21155  14.171   8.384   5.459 -0.0467 -0.1699  0.0017
 5082W        W21156   2.669   0.996   2.961 -0.1270 -0.0082  0.0073
 5083W        W21157   2.772   7.277   4.899 -0.2276 -0.0259 -0.2944
 5084W        W21158   1.021   7.910  12.659  0.0303  0.0784 -0.1127
 5085W        W21159  11.509   8.526   2.874 -0.0110  0.1389 -0.0398
 5086W        W21160   0.010  16.250   0.802 -0.0192 -0.1129 -0.1049
 5087W        W21161   3.557   3.435  14.860 -0.2162 -0.0893  0.4919
 5088W        W21162  17.360  14.579   5.233 -0.1767 -0.0289 -0.2241
 5089W        W21163   9.907   9.325  12.695 -0.0913  0.1536  0.1754
 5090W        W21164   9.022  17.943  15.525  0.0164  0.4152  0.1211
 5091W        W21165   7.204   4.120  14.057  0.0296 -0.2492  0.0855
 5092W        W21166   7.499  11.684   2.919  0.1580  0.0613 -0.0800
 5093W        W21167   7.632   0.150  11.494 -0.0418  0.0062  0.1286
 5094W        W21168  17.193   2.690  16.451 -0.0903  0.1157  0.2938
 5095W        W21169  12.476   9.143   1.631  0.0930 -0.2173 -0.0734
 5096W        W21170  12.976  10.692   4.065 -0.1793 -0.0469 -0.2861
 5097W        W21171   6.875  15.538  11.048 -0.1452  0.1983 -0.1506
 5098W        W21172   3.437   9.153  11.775  0.1574  0.0594  0.2834
 5099W        W21173  12.722  15.933  16.282 -0.6412 -0.1169 -0.2330
 5100W        W21174   7.691   6.815   3.038 -0.0620  0.0062 -0.1126
 5101W        W21175  10.183   4.441  12.744 -0.2673  0.2253 -0.2132
 5102W        W21176   6.576   4.968   5.210 -0.3280  0.5676  0.0485
 5103W        W21177  13.362  10.018  16.369  0.2375 -0.3919  0.1673
 5104W        W21178  16.403   6.477  11.532  0.0161  0.2561  0.1245
 5105W        W21179   4.756  10.858  14.806  0.0322 -0.0764 -0.1514
 5106W        W21180   0.672  12.599  15.054 -0.1300 -0.3374  0.1936
 5107W        W21181  10.435  12.375  15.561  0.4259 -0.0013  0.0469
 5108W        W21182   7.887   4.942   2.666 -0.0978 -0.0929 -0.0650
 5109W        W21183   8.970  17.600  11.451  0.0380  0.1931  0.0722
 5110W        W21184  13.593   4.486   4.612  0.0024  0.0377 -0.1749
 5111W        W21185   6.854  10.939  16.234 -0.0687  0.0993 -0.3040
 5112W        W21186  18.057  17.008  12.850 -0.0882 -0.0197  0.0193
 5113W        W21187  12.679  18.104   1.094 -0.1485  0.1101 -0.1622
 5114W        W21188  16.288   7.328   3.551 -0.1420  0.1383  0.2713
 5115W        W21189  12.918   4.958   4.623 -0.0356 -0.0659 -0.1229
 5116W        W21190   2.738   4.914   2.257  0.3066  0.4517  0.1405
 5117W        W21191   5.189  12.248   2.122 -0.1006 -0.0160 -0.0082
 5118W        W21192  12.809  15.671   0.827 -0.2509 -0.2023  0.1561
 5119W        W21193  17.419   6.892  13.862  0.1609  0.1134 -0.0135
 5120W        W21194   6.182  14.038   5.294  0.0162  0.1900  0.1992
 5121W        W21195  11.507  14.067   1.833 -0.1253  0.2463 -0.1599
 5122W        W21196  16.724  16.454  16.385  0.0459  0.1937  0.1423
 5123W        W21197  13.446  12.553  16.005 -0.0143  0.1354  0.1363
 5124W        W21198   5.405   0.442  16.544 -0.0562  0.0795  0.1783
 5125W        W21199  10.810   8.763   0.639  0.1354 -0.0672  0.0080
 5126W        W21200   1.637   6.064  11.928  0.0932  0.1441  0.0901
 5127W        W21201  10.549   5.937   0.766  0.0800  0.1604 -0.0610
 5128W        W21202   3.129  13.684   4.425  0.0992 -0.0500  0.3046
 5129W        W21203   4.638  13.156  15.330 -0.0765 -0.2428  0.0896
 5130W        W21204   5.021  12.094   0.189  0.1814 -0.0753 -0.1122
 5131W        W21205  14.321  15.108   0.974 -0.1725  0.1600  0.2611
 5132W        W21206  17.284  11.486  12.201 -0.2251  0.3073  0.4529
 5133W        W21207   2.955  13.670  14.995  0.3414 -0.0866  0.1450
 5134W        W21208   1.575   9.616  15.270  0.0215 -0.1077 -0.0602
 5135W        W21209  15.221  14.007   4.644 -0.0853 -0.2021  0.0463
 5136W        W21210   2.615   8.671   3.861  0.0224  0.1160  0.0083
 5137W        W21211   5.074   6.663  13.390  0.6053 -0.1381 -0.0990
 5138W        W21212   1.298   6.892  11.379  0.1144 -0.0510  0.2033
 5139W        W21213  17.154  16.427  16.095 -0.1255 -0.1675  0.1760
 5140W        W21214  10.434  12.807  15.767  0.0815 -0.0991  0.0130
 5141W        W21215   4.489  14.007  14.091  0.0052 -0.1310 -0.1434
 5142W        W21216   3.736  13.731   1.182 -0.3643  0.0779 -0.1493
 5143W        W21217  15.750  14.599  14.327 -0.2126 -0.2178  0.0463
 5144W        W21218  11.778  13.810  15.413  0.2296  0.0522  0.1240
 5145W        W21219  12.706   0.794   0.183 -0.2123 -0.0726  0.2916
 5146W        W21220   4.780  10.433   3.529  0.0627  0.1283 -0.4101
 5147W        W21221   4.976   2.617  13.073 -0.0158  0.4809  0.0536
 5148W        W21222  13.572   9.634   1.049  0.1420  0.1980  0.1181
 5149W        W21223   0.227   3.606   3.613 -0.2053  0.2709 -0.0047
 5150W        W21224  14.831  12.330   3.266  0.5910  0.0853  0.4916
 5151W        W21225  10.683   3.346  11.704 -0.2836 -0.3163 -0.3281
 5152W        W21226   5.368  14.154  13.237 -0.2257 -0.0803  0.1259
 5153W        W21227  12.920   5.675  15.494  0.0868 -0.1586 -0.0689
 5154W        W21228   1.413  16.843   5.706  0.0068  0.0092 -0.0856
 5155W        W21229   3.383  15.770   3.594 -0.0442 -0.2374 -0.3081
 5156W        W21230  12.800  17.927  14.745 -0.5066  0.0027  0.1166
 5157W        W21231   7.165   2.310   1.918 -0.1909  0.1150 -0.2346
 5158W        W21232  12.052  11.330   0.511  0.4159  0.1157 -0.2528
 5159W        W21233  15.816   7.681  13.525  0.1473 -0.1082 -0.0491
 5160W        W21234   3.964   1.759   3.421  0.0222 -0.3292 -0.0189
 5161W        W21235  17.992  14.079   3.921  0.5107 -0.1781 -0.1646
 5162W        W21236  10.309   2.645   4.874 -0.1324 -0.1485 -0.2040
 5163W        W21237   4.604   7.205   5.229  0.1030  0.2359  0.2498
 5164W        W21238   4.727  17.669   0.900 -0.1514 -0.0906 -0.1470
 5165W        W21239  10.833   7.320   3.975  0.6068 -0.1668  0.0232
 5166W        W21240   6.331   2.881  15.001 -0.0327  0.0306  0.1402
 5167W        W21241  15.923   8.782  11.869  0.1063 -0.2655 -0.1360
 5168W        W21242  10.829   6.789  13.404  0.1332 -0.2242  0.1997
 5169W        W21243   5.622   0.735   4.375 -0.0602 -0.0284 -0.0452
 5170W        W21244   9.261  17.597   3.392 -0.1131 -0.0142 -0.0609
 5171W        W21245   0.717   3.270  12.024 -0.0706 -0.1918 -0.2112
 5172W        W21246  14.412   5.525  16.281 -0.2484  0.2862  0.2293
 5173W        W21247   9.740  10.064  14.852  0.2765  0.0223  0.0582
 5174W        W21248  13.390  15.591  13.829  0.2218  0.1185 -0.1260
 5175W        W21249  16.998  17.017  11.565 -0.3709  0.0764  0.0385
 5176W        W21250  15.830  14.482   3.573  0.0185  0.2141 -0.3616
 5177W        W21251  10.630  14.929  15.247 -0.0526  0.5339  0.0494
 5178W        W21252   2.049   4.208  12.299 -0.2490  0.2545 -0.1654
 5179W        W21253   0.851  13.300   2.699  0.1828  0.0300  0.2401
 5180W        W21254   2.140  10.123  13.607  0.0480 -0.0449  0.0775
 5181W        W21255  17.182  15.796   4.704  0.0590  0.0473 -0.0924
 5182W        W21256  10.414   2.647  13.584 -0.1011 -0.2358 -0.0038
 5183W        W21257   8.077   9.342  12.919 -0.2340  0.2382  0.0834
 5184W        W21258  10.473   4.420   3.926 -0.1821 -0.1595  0.2584
 5185W        W21259  17.870   3.103   4.535  0.0134  0.0501  0.1189
 5186W        W21260   6.594   9.197   3.465  0.1057  0.0153  0.0512
 5187W        W21261  15.004  18.014   5.264  0.1620 -0.2237 -0.2962
 5188W        W21262  12.493  13.425   3.054 -0.1812  0.2189  0.0291
 5189W        W21263  14.326   6.393   2.353 -0.4017  0.0714 -0.0046
 5190W        W21264  16.861   0.106   1.684  0.1080  0.2504  0.0040
 5191W        W21265   9.775   2.180   1.712 -0.2143  0.1653  0.1005
 5192W        W21266   6.717   9.082  14.485  0.0223  0.1216 -0.0889
 5193W        W21267   0.947   1.318  11.619 -0.1363  0.3525 -0.0243
 5194W        W21268  15.453   9.877  13.532 -0.1212  0.2099 -0.0606
 5195W        W21269  12.833  17.887   4.332 -0.3369 -0.1723  0.1060
 5196W        W21270   6.179   2.749  16.452 -0.0420  0.1004 -0.0534
 5197W        W21271  12.113   2.192  11.624 -0.1195 -0.0597 -0.0992
 5198W        W21272   3.256   8.369  15.496  0.3588  0.2504 -0.0937
 5199W        W21273  13.459  14.436   2.084 -0.1263 -0.0694  0.3629
 5200W        W21274   1.014   3.831  15.701 -0.0676  0.0898  0.0897
 5201W        W21275  10.865  17.029   5.079  0.1357 -0.2129  0.0536
 5202W        W21276   1.331  15.106   3.655 -0.0138 -0.1764  0.1293
 5203W        W21277   9.973   8.086   1.379 -0.1434  0.2535  0.0042
 5204W        W21278  10.318   7.231   2.276 -0.0517 -0.1533 -0.1403
 5205W        W21279   1.554   7.861  16.253 -0.2038 -0.1844  0.1976
 5206W        W21280  14.154  12.767  14.688 -0.1620 -0.0159 -0.2510
 5207W        W21281   1.670   2.139  14.328  0.1235  0.1153  0.0087
 5208W        W21282   1.236  10.774  16.490 -0.1725 -0.0702  0.0937
 5209W        W21283   2.301   0.895   3.658 -0.0020 -0.2849  0.0626
 5210W        W21284   2.591  10.382   5.907  0.3301 -0.0098  0.0546
 5211W        W21285  16.426   8.281   3.812 -0.0448 -0.1761 -0.1404
 5212W        W21286   8.117  12.289  14.455 -0.0737  0.0282  0.3337
 5213W        W21287   0.688  16.109  13.389 -0.1757  0.3748 -0.0543
 5214W        W21288  16.010  10.349   5.244 -0.3219  0.2355 -0.3244
 5215W        W21289  12.582   1.788  14.890  0.0452  0.1592  0.0277
 5216W        W21290  10.810   4.770   3.081  0.0850  0.0863 -0.0940
 5217W        W21291   5.838   4.703  13.781  0.0514 -0.0119 -0.1322
 5218W        W21292  16.409   9.603   4.635 -0.0350 -0.1308  0.3166
 5219W        W21293   6.804  16.005   5.586 -0.4069  0.2429 -0.1680
 5220W        W21294   3.349   1.146  13.046  0.1833 -0.0013 -0.0878
 5221W        W21295   1.942  18.159   1.429 -0.3511 -0.0966  0.0698
 5222W        W21296   3.457  11.565  14.034 -0.1324  0.1888  0.0966
 5223W        W21297  17.777  14.092   1.003 -0.0012 -0.0222  0.1839
 5224W        W21298   7.465  16.144   4.409  0.0695  0.1127  0.2936
 5225W        W21299   2.889  14.514  13.117  0.1160 -0.0295  0.1533
 5226W        W21300  12.530  14.512   4.452 -0.5396  0.1030  0.0622
 5227W        W21301   5.867  14.791   2.732  0.0888  0.0693  0.0528
 5228W        W21302   9.424   7.290   4.917 -0.2569  0.0786 -0.0654
 5229W        W21303  13.331   5.494   6.430 -0.1877  0.0402 -0.0046
 5230W        W21304   4.259  13.837   1.102  0.4503  0.0750 -0.0356
 5231W        W21305   5.734  14.189   5.448  0.0132 -0.3430  0.1259
 5232W        W21306  16.765   4.177  11.998  0.2203  0.0082 -0.0740
 5233W        W21307   8.515  13.610   3.648  0.2450 -0.2470 -0.0982
 5234W        W21308   7.191  14.311  12.504 -0.1581  0.0304  0.1697
 5235W        W21309  17.578  12.177   4.499 -0.0585  0.2715  0.0103
 5236W        W21310   6.015  13.036  14.156 -0.0638  0.0292  0.1575
 5237W        W21311  11.141   9.302  15.315 -0.0415  0.1695  0.0218
 5238W        W21312  11.213  15.724  11.314 -0.0607 -0.1985  0.2470
 5239W        W21313  12.763   3.977   5.819  0.0381 -0.2896 -0.0511
 5240W        W21314  14.034   7.773  13.799  0.1116  0.0756 -0.2347
 5241W        W21315  12.215  11.443  14.654 -0.0245 -0.0164 -0.1281
 5242W        W21316   7.376  11.758  11.060  0.0084  0.0835  0.0691
 5243W        W21317   8.319   9.414  11.455  0.1790  0.0798 -0.0614
 5244W        W21318   5.206  14.741  12.879 -0.0820  0.1677 -0.0503
 5245W        W21319  15.957   7.342  16.329  0.2521 -0.3483  0.1398
 5246W        W21320  17.999   2.679   3.966  0.2010  0.0425 -0.0129
 5247W        W21321   9.157   9.670   1.180  0.2175 -0.0055 -0.0934
 5248W        W21322   8.279   6.021  14.062  0.0504 -0.1196  0.0389
 5249W        W21323  15.351  12.577  15.677  0.0282  0.0235 -0.1580
 5250W        W21324   6.376  12.764   4.036 -0.0042 -0.1323  0.2565
 5251W        W21325   2.403  16.906   2.282  0.0058 -0.1871  0.3035
 5252W        W21326  18.075   2.189  12.611  0.0082 -0.1823  0.1411
 5253W        W21327  11.970   5.030   5.565 -0.0376 -0.2933  0.2465
 5254W        W21328   7.763  14.185  12.662 -0.0872 -0.1277 -0.0081
 5255W        W21329   7.859   4.568  14.302 -0.1072 -0.2792 -0.0256
 5256W        W21330  15.130   9.283   4.784  0.0196 -0.1770  0.1828
 5257W        W21331  17.857  11.821  15.342 -0.1296  0.2872  0.4679
 5258W        W21332  16.898  18.113  15.025 -0.2353 -0.1891  0.4804
 5259W        W21333   4.029   7.959   2.117 -0.1755  0.2326  0.1607
 5260W        W21334  16.849  12.560   4.055  0.0866 -0.0088 -0.2863
 5261W        W21335  15.932   7.613  12.576  0.3029 -0.2376 -0.1470
 5262W        W21336  13.581   0.635  13.545  0.0951 -0.1774 -0.1804
 5263W        W21337   4.651   6.965  13.347  0.0325 -0.1021  0.1157
 5264W        W21338  17.207  15.357   0.844  0.1223 -0.0433 -0.0243
 5265W        W21339  13.773   7.673   2.976 -0.2192  0.2423 -0.1465
 5266W        W21340  11.770   0.236   4.359 -0.0027  0.1740  0.0567
 5267W        W21341   4.048  11.956  14.631 -0.0773 -0.3650 -0.0827
 5268W        W21342  11.943  13.664  16.184  0.0724  0.0523  0.1640
 5269W        W21343  12.968   1.261  15.497 -0.3167 -0.0247 -0.2082
 5270W        W21344   1.236  17.540   2.377  0.4969  0.1924  0.1089
 5271W        W21345  14.370   6.785   1.206 -0.2369  0.1457  0.3952
 5272W        W21346   7.918  14.953   4.835  0.1045  0.3715  0.2687
 5273W        W21347  15.682   0.635  14.529 -0.1194  0.1042  0.0031
 5274W        W21348   4.497   0.680   4.144  0.1592 -0.0883  0.1924
 5275W        W21349  14.815  10.378   0.720 -0.2546  0.2058 -0.2826
 5276W        W21350   0.694   2.929   0.130  0.2354  0.1428  0.2210
 5277W        W21351   3.151   0.618   1.529  0.2348  0.1280  0.1903
 5278W        W21352  14.159  15.957   5.128  0.1404  0.0096 -0.0678
 5279W        W21353   9.784   8.412   0.763  0.0621 -0.2915 -0.2053
 5280W        W21354   8.898   2.164  12.499  0.1174 -0.0367 -0.3988
 5281W        W21355   0.022  13.418   4.455  0.0007 -0.0122 -0.2721
 5282W        W21356   8.282   1.211  13.842 -0.2341 -0.0369 -0.2568
 5283W        W21357  16.156  12.574  11.730 -0.3112  0.0673 -0.4251
 5284W        W21358   0.294   1.968  11.742  0.1366  0.1317 -0.1143
 5285W        W21359   4.350  11.256  12.467 -0.0153 -0.4018 -0.1109
 5286W        W21360  10.193  13.878   3.265 -0.2065  0.3215  0.0506
 5287W        W21361   0.179  15.662   0.405 -0.2998  0.0225  0.0230
 5288W        W21362   1.891   6.715   0.356 -0.1731 -0.2796 -0.0882
 5289W        W21363  13.663  13.521   4.291  0.0863 -0.2420  0.2708
 5290W        W21364   2.425   9.431  15.865 -0.3616 -0.1066  0.3120
 5291W        W21365  11.282   3.620  12.395  0.1501  0.1522 -0.0259
 5292W        W21366   0.183   6.108  15.396 -0.0451 -0.0895 -0.2408
 5293W        W21367   6.742   8.968   5.741 -0.2842 -0.1600 -0.1657
 5294W        W21368  17.011  13.877  15.537 -0.2002  0.1419 -0.2389
 5295W        W21369   6.361   9.750   5.154  0.1118 -0.1207 -0.0581
 5296W        W21370   6.933   9.400  15.430  0.0110  0.1363  0.1181
 5297W        W21371   7.469   1.714  13.629 -0.1841 -0.1903  0.3664
 5298W        W21372  17.958  12.749  13.865  0.2937 -0.3890  0.1546
 5299W        W21373  13.229  10.130  14.526 -0.1483 -0.0151 -0.1413
 5300W        W21374  11.811   9.695  15.491  0.0151  0.1642 -0.3204
 5301W        W21375  15.626  15.208  14.445 -0.2992  0.0753  0.4804
 5302W        W21376  11.004  14.933   3.345  0.1010  0.0570 -0.2567
 5303W        W21377  10.239  12.274   3.609  0.1143 -0.2064 -0.1527
 5304W        W21378   0.750   4.121  13.122 -0.0170  0.0382 -0.1187
 5305W        W21379  14.989   0.245   3.454 -0.2974 -0.3026  0.0792
 5306W        W21380   8.159   7.479   2.536  0.2257  0.2750  0.0793
 5307W        W21381  16.132   0.264   6.097  0.3822  0.2454 -0.0496
 5308W        W21382  13.931   7.382   0.067 -0.2430  0.2172 -0.2251
 5309W        W21383   1.480   2.943   5.134  0.0620  0.1465 -0.0851
 5310W        W21384   0.491  14.008  13.148 -0.1029  0.0417  0.1809
 5311W        W21385   7.016  12.905   2.220 -0.0597  0.1650 -0.1379
 5312W        W21386   1.645   0.657   5.429  0.0202 -0.3161  0.0094
 5313W        W21387   6.866   1.513   2.593  0.2695 -0.0051  0.2997
 5314W        W21388  10.213  14.983   2.154  0.1848  0.3773 -0.1178
 5315W        W21389   3.818  11.556  14.820 -0.4075 -0.2719 -0.1012
 5316W        W21390   0.011   0.588   1.255 -0.2434  0.2463  0.0992
 5317W        W21391   3.733   6.521   4.448  0.1026 -0.0597  0.0616
 5318W        W21392   0.621  15.624   4.038 -0.3322 -0.0060 -0.1518
 5319W        W21393  16.584   2.547  14.582 -0.2596  0.0058  0.0285
 5320W        W21394  13.575  16.055  13.861 -0.2588  0.0275  0.3254
 5321W        W21395   0.346   3.368   4.424  0.1065 -0.0745  0.0822
 5322W        W21396  18.014  15.881  16.312 -0.0816 -0.2942 -0.0908
 5323W        W21397  17.763   6.249   5.029 -0.0760 -0.0293 -0.1304
 5324W        W21398   9.350  17.698   2.325  0.2787 -0.1092 -0.2171
 5325W        W21399   4.579  15.388  14.098 -0.0271  0.2843 -0.1171
 5326W        W21400   8.185   7.097  14.059  0.1848  0.0730  0.0498
 5327W        W21401   8.969   7.949  16.270  0.2385  0.1711  0.0010
 5328W        W21402   1.107   6.354   0.606 -0.4848 -0.1779  0.2708
 5329W        W21403   0.546   2.658  15.349 -0.0055 -0.0629  0.2709
 5330W        W21404  16.503   3.348  14.131  0.3261 -0.2476 -0.0308
 5331W        W21405  12.868  11.149   0.922  0.0107  0.0714 -0.0519
 5332W        W21406  13.161  14.442  15.929 -0.0355 -0.0067 -0.0771
 5333W        W21407   5.102   6.565  11.610  0.2301  0.0082 -0.1599
 5334W        W21408   0.452  10.064   2.208 -0.1623  0.0133 -0.2009
 5335W        W21409   9.296   7.465  13.458  0.1031  0.0675  0.3833
 5336W        W21410  11.259   3.132  12.488  0.3903 -0.0620  0.0047
 5337W        W21411  10.084   1.806  13.764  0.1828  0.4985 -0.0932
 5338W        W21412   4.231  12.418   3.518  0.2466 -0.1768 -0.2694
 5339W        W21413  17.586  13.842   4.030 -0.1181 -0.0091 -0.3932
 5340W        W21414   3.854  17.060  16.422  0.1529  0.4633  0.2212
 5341W        W21415  15.256   5.612   2.323  0.1864 -0.0087 -0.0797
 5342W        W21416   4.095  13.916  15.218  0.1097  0.1944 -0.2489
 5343W        W21417  15.494  13.797   1.554  0.3072 -0.0156  0.0012
 5344W        W21418   5.229  15.294   1.462 -0.0282 -0.1517 -0.0928
 5345W        W21419  14.949   7.557  11.880 -0.0903  0.0694  0.0871
 5346W        W21420  14.795   0.831   4.209  0.0421  0.2053  0.0870
 5347W        W21421  11.150   8.443   1.636  0.1126 -0.0673  0.0625
 5348W        W21422  16.900   2.543   3.394 -0.0421 -0.0194  0.1253
 5349W        W21423   1.987  15.832  13.593  0.0791  0.1300 -0.0422
 5350W        W21424  17.379  15.551   3.045  0.0294  0.0656 -0.0365
 5351W        W21425  14.940  15.120  13.210  0.3095  0.0250  0.0242
 5352W        W21426  10.011   1.558   5.177 -0.0050  0.2343 -0.1686
 5353W        W21427   5.652  11.328  14.664 -0.2979  0.0242 -0.1044
 5354W        W21428   3.439   2.265  12.029  0.2373 -0.0924  0.1674
 5355W        W21429   4.456   0.348   2.670  0.1742 -0.0802  0.0555
 5356W        W21430   5.558   9.297  13.332 -0.1661  0.2214 -0.0224
 5357W        W21431  13.272  14.665   4.320 -0.0544 -0.0509  0.1640
 5358W        W21432  16.750   0.643   4.392 -0.1611 -0.2373  0.1436
 5359W        W21433  15.761  11.461  13.479 -0.1829 -0.1653  0.0792
 5360W        W21434  16.790  14.055  11.088  0.0776  0.0846 -0.0153
 5361W        W21435   7.748  16.924   5.281  0.2220  0.1189  0.0204
 5362W        W21436   2.543   2.444   4.131 -0.1974 -0.0948  0.0313
 5363W        W21437   2.775  16.084   3.304 -0.0125  0.2744  0.2832
 5364W        W21438   4.894  16.403  14.509  0.0065 -0.0126  0.3785
 5365W        W21439   4.505  17.021  12.865  0.0454 -0.2461 -0.0452
 5366W        W21440   2.953  18.150  13.403  0.0119 -0.1564 -0.0567
 5367W        W21441   3.185  12.663   3.309  0.1182 -0.3054 -0.0523
 5368W        W21442  13.383   5.816  15.300 -0.3350 -0.1008 -0.1888
 5369W        W21443   7.494   3.686  16.466 -0.1010 -0.2370  0.0081
 5370W        W21444   6.875   5.523  13.367  0.1578  0.2156  0.3821
 5371W        W21445   1.316   1.967  15.180  0.1543 -0.0233 -0.1891
 5372W        W21446  17.207  11.284  10.946 -0.0535 -0.0988  0.0947
 5373W        W21447  17.961   9.221  14.752  0.1349  0.0889  0.1012
 5374W        W21448   5.048   3.276  14.480  0.0393 -0.0019  0.3167
 5375W        W21449   3.239  11.033  12.799  0.1120  0.1752 -0.0503
 5376W        W21450  16.341  15.998   0.638  0.2053 -0.2407  0.0994
 5377W        W21451  15.038   1.057  13.091  0.0683 -0.2073  0.0783
 5378W        W21452  14.397  15.117  14.030 -0.0119 -0.0849  0.0493
 5379W        W21453   8.790   5.113  12.366 -0.2570  0.2061  0.0448
 5380W        W21454  12.979  12.314   2.508  0.0102  0.1679  0.1165
 5381W        W21455  17.013  17.251   4.314 -0.1807 -0.2330 -0.2891
 5382W        W21456   4.247   1.154  16.207  0.4037 -0.4180  0.0127
 5383W        W21457  10.412   9.689  12.691 -0.2676  0.1095 -0.1264
 5384W        W21458   2.528   0.281  12.921  0.1696  0.2212  0.0758
 5385W        W21459   2.574   2.093   2.681  0.3530 -0.1587  0.0427
 5386W        W21460   4.130  16.446   1.208  0.0980 -0.1306 -0.1641
 5387W        W21461   7.021   0.706   6.056  0.3005  0.3749  0.0147
 5388W        W21462   9.773  15.108   1.288 -0.0712  0.0891 -0.1998
 5389W        W21463   1.075  15.019  15.368  0.1422  0.1872  0.3260
 5390W        W21464   4.503  14.563   4.241  0.0292 -0.0958  0.1950
 5391W        W21465  12.537   9.593  14.187 -0.2134 -0.2620 -0.1718
 5392W        W21466   6.309  13.803  13.133  0.0218  0.0479 -0.0405
 5393W        W21467  17.615   6.200  15.842  0.3184  0.0324 -0.5549
 5394W        W21468   3.688   3.139   3.905 -0.2550 -0.0853  0.2335
 5395W        W21469  12.609  11.056   5.628 -0.0782 -0.2218  0.1497
 5396W        W21470  10.788  13.114   3.004  0.0514 -0.0381  0.1627
 5397W        W21471  14.150   7.898  15.237  0.3688  0.1094  0.1107
 5398W        W21472  12.256  13.532   2.026 -0.1774 -0.2905 -0.0551
 5399W        W21473  13.679  13.443  13.462  0.1482  0.0954  0.1338
 5400W        W21474  17.405   9.510   5.153  0.1007 -0.1225 -0.2727
 5401W        W21475   0.351  10.058   3.171 -0.3943 -0.2425  0.0229
 5402W        W21476  12.242   6.492   2.502  0.2264 -0.3243  0.2787
 5403W        W21477  11.156   0.264  16.231 -0.1987  0.1505 -0.1973
 5404W        W21478  10.070   7.773  15.601 -0.1894 -0.0934  0.0096
 5405W        W21479   6.349   3.037   4.030  0.1656 -0.0515 -0.3037
 5406W        W21480   5.971  14.631  12.610  0.1335 -0.0747 -0.0221
 5407W        W21481   8.535  15.225   3.051 -0.2064 -0.1447 -0.0263
 5408W        W21482  17.931  14.920  16.351 -0.0685 -0.1497  0.0752
 5409W        W21483   2.178   1.975   2.229  0.4262 -0.2289  0.0002
 5410W        W21484  17.807   8.125  13.266  0.0470 -0.1684  0.0702
 5411W        W21485   0.936   9.724  15.119 -0.4721  0.1053 -0.0512
 5412W        W21486  10.458   6.518  14.181  0.0590  0.3477 -0.0033
 5413W        W21487  15.200  17.140  15.678  0.0568 -0.0704 -0.0008
 5414W        W21488   9.041   0.044   2.191  0.0624  0.4771  0.3199
 5415W        W21489  12.711  14.708   0.858 -0.4008 -0.0982 -0.2487
 5416W        W21490   2.579   1.023   5.568 -0.1067  0.1305  0.1320
 5417W        W21491  16.901   7.226  11.177 -0.0071 -0.1524  0.0165
 5418W        W21492   9.230   6.287   1.473  0.0757 -0.0055  0.2479
 5419W        W21493   9.509  14.695   3.352  0.1215 -0.1308  0.0871
 5420W        W21494   6.574   6.535  14.429 -0.1023  0.2671 -0.2047
 5421W        W21495  17.952   8.180   3.804 -0.1033  0.1333  0.0864
 5422W        W21496   3.286   4.803  12.381  0.4504  0.4529 -0.0338
 5423W        W21497  17.125   8.337   1.442  0.1082 -0.1401 -0.0957
 5424W        W21498   4.773  11.420  13.890 -0.0694  0.1896  0.1924
 5425W        W21499  11.906  14.380  12.739  0.0424 -0.1076 -0.0219
 5426W        W21500   8.789   6.075  16.546  0.4753 -0.1911  0.0641
 5427W        W21501  14.224   3.097  11.293  0.0725  0.0141  0.1626
 5428W        W21502   9.051   2.503   2.431  0.4658 -0.0864 -0.0202
 5429W        W21503   8.656   1.227   3.538  0.1699 -0.2019 -0.2260
 5430W        W21504   5.935   6.794   3.307 -0.0829  0.2327  0.0825
 5431W        W21505  12.710  10.668   3.238 -0.2258  0.3677 -0.2902
 5432W        W21506  11.021  15.352  14.529  0.2407  0.1710 -0.2181
 5433W        W21507   5.919   4.289   3.703 -0.1652 -0.0511  0.0961
 5434W        W21508   4.779   9.024   0.798 -0.2875 -0.3220  0.3933
 5435W        W21509  15.900   8.620   3.000  0.1603  0.1636  0.1464
 5436W        W21510   3.808  14.130   0.099  0.1788 -0.0960 -0.0033
 5437W        W21511   0.655  16.682  14.542 -0.2923 -0.2900  0.0488
 5438W        W21512   0.279  11.022   3.400 -0.0552 -0.1491  0.1406
 5439W        W21513   7.554   1.278  14.950 -0.0091  0.0073 -0.3252
 5440W        W21514  11.609   1.926   2.526 -0.2734 -0.1208  0.2102
 5441W        W21515  11.689  15.106  12.747  0.3961  0.3323  0.0408
 5442W        W21516   6.000  16.868   3.835  0.4105 -0.1333  0.4389
 5443W        W21517  16.355   8.297  13.881  0.1107  0.1712  0.0703
 5444W        W21518  14.533   9.947  14.191 -0.1199  0.2307  0.0614
 5445W        W21519   1.133  15.342  14.943 -0.0748  0.0307  0.0441
 5446W        W21520   7.172   2.690   5.943 -0.2595  0.1690 -0.1615
 5447W        W21521  15.844   2.413   1.500 -0.2858 -0.0098  0.0750
 5448W        W21522  15.352   5.212   5.477 -0.0592  0.1858 -0.3125
 5449W        W21523   8.371   4.257   5.588  0.0137  0.2383 -0.3323
 5450W        W21524   2.803   2.432  15.098 -0.1471  0.1848 -0.1012
 5451W        W21525   6.989   3.217  11.800  0.0208 -0.0289  0.1135
 5452W        W21526  16.737   0.847   2.466 -0.0909 -0.0132  0.4166
 5453W        W21527  17.303  13.220   0.100 -0.2909  0.0690  0.1121
 5454W        W21528   2.476   1.818   0.834 -0.0781 -0.0526 -0.1691
 5455W        W21529  13.810   1.736   3.827  0.4823 -0.1411  0.0175
 5456W        W21530   5.569   3.278  13.463 -0.0347  0.1780 -0.0901
 5457W        W21531   8.669   7.438   2.440  0.2290 -0.0717 -0.1733
 5458W        W21532   1.288   0.296   2.137 -0.0142  0.1928 -0.3276
 5459W        W21533  14.362  16.740  11.682 -0.1255  0.1685 -0.2280
 5460W        W21534   7.233  12.800   0.887 -0.0392  0.2506  0.0378
 5461W        W21535   5.011   1.177   1.986  0.2830  0.0392 -0.3099
 5462W        W21536   0.225  11.162  13.824 -0.3722 -0.0732 -0.0665
 5463W        W21537  13.952   9.554   1.980 -0.2559 -0.2186 -0.0990
 5464W        W21538  10.666  15.203  15.945  0.1305 -0.0242 -0.2717
 5465W        W21539  13.631  17.218  15.979 -0.0565 -0.1051 -0.0598
 5466W        W21540   2.276   5.085   3.478  0.3003 -0.1470  0.3752
 5467W        W21541   4.689  17.165   3.888  0.2358 -0.5218 -0.2654
 5468W        W21542   0.065  18.054  11.137 -0.0709  0.1676  0.3155
 5469W        W21543  15.685  10.574   0.159  0.2813  0.0140 -0.0652
 5470W        W21544   7.028   5.553   2.025  0.2100  0.2474 -0.1357
 5471W        W21545  13.728   9.995  13.547  0.0665 -0.0524 -0.0848
 5472W        W21546   0.236   4.657  16.375  0.1798 -0.0476  0.0779
 5473W        W21547  11.306   9.036   1.614  0.1167 -0.1884  0.1821
 5474W        W21548  10.900  11.380  15.741 -0.1040  0.0205 -0.2013
 5475W        W21549   0.607   5.331   2.469 -0.1145 -0.1576 -0.3801
 5476W        W21550  13.280  10.682  12.806  0.2147  0.0132  0.1571
 5477W        W21551   3.665  10.232   3.665  0.2257  0.1189  0.0940
 5478W        W21552  12.459  14.350   5.694 -0.0183 -0.1793 -0.0799
 5479W        W21553  13.798  18.077  11.249  0.1721 -0.0908 -0.0772
 5480W        W21554   1.550  13.720  12.681  0.2273 -0.1175  0.0533
 5481W        W21555   4.029   9.338   5.664  0.0462  0.0426  0.0816
 5482W        W21556   2.497  15.233   0.330  0.0374 -0.1252  0.0475
 5483W        W21557   8.069  16.545   5.412 -0.0151 -0.0747  0.2605
 5484W        W21558  16.843   2.739   2.143 -0.3180  0.4624  0.1241
 5485W        W21559   6.519  14.562  12.656  0.0535  0.0460 -0.2879
 5486W        W21560  10.327   5.979  12.445  0.3554 -0.3961 -0.3119
 5487W        W21561   8.027   6.800  13.676  0.0625  0.0544 -0.0519
 5488W        W21562  11.558  17.557  16.184  0.0332  0.1228 -0.1476
 5489W        W21563  16.425   1.469  14.091  0.2187 -0.1985  0.0395
 5490W        W21564   4.011  11.648   2.475 -0.0896  0.0938  0.0476
 5491W        W21565   9.057   9.305   4.986 -0.2357  0.2288  0.0271
 5492W        W21566   4.895  16.406  15.878  0.2657 -0.0418  0.3165
 5493W        W21567  13.929   2.363   0.651 -0.2389  0.0809 -0.2175
 5494W        W21568  15.184   7.472   3.446  0.0588 -0.2321 -0.3008
 5495W        W21569  16.843   5.124   0.984 -0.0671 -0.0037 -0.0280
 5496W        W21570   5.861   7.583   0.181 -0.2725  0.0035 -0.0415
 5497W        W21571  16.388  14.649   2.168  0.2211 -0.1472  0.0812
 5498W        W21572   8.342   4.613   3.385  0.1610  0.0707 -0.0871
 5499W        W21573  17.622   8.699   2.509  0.3316 -0.1968  0.0097
 5500W        W21574  11.734   9.285  13.764  0.0119 -0.0668 -0.4390
 5501W        W21575   3.679  15.957   1.375  0.1004  0.1034 -0.0112
 5502W        W21576  16.028   9.469   4.921  0.3334 -0.0921  0.0963
 5503W        W21577  11.675  13.828   3.425  0.1923  0.2387  0.0419
 5504W        W21578  16.649  17.272  13.291  0.1182 -0.0385 -0.0627
 5505W        W21579  15.931   3.345   1.248 -0.4515 -0.0772  0.1293
 5506W        W21580  13.584   3.602   4.531  0.2548  0.3639  0.0372
 5507W        W21581   6.134   0.703   5.583  0.2930  0.1287 -0.0034
 5508W        W21582  10.552   4.261   2.061 -0.0240  0.2392 -0.0878
 5509W        W21583  15.120   5.287   4.328  0.1004  0.1607 -0.1950
 5510W        W21584   8.561   6.649   3.569 -0.0949  0.2153  0.2404
 5511W        W21585  12.706  13.569  14.256 -0.3010  0.2718 -0.0453
 5512W        W21586  12.130   1.072   5.469 -0.1140 -0.2725  0.0858
 5513W        W21587  16.346   4.049   5.034  0.0968  0.0935 -0.1863
 5514W        W21588  15.022   3.485   2.296  0.2750 -0.0343  0.2325
 5515W        W21589   4.692   6.684   1.551 -0.0772 -0.3198  0.2551
 5516W        W21590   7.941  12.612   1.847 -0.2152 -0.1680 -0.0787
 5517W        W21591   6.461  17.074   0.906 -0.1848  0.1825  0.1471
 5518W        W21592   1.670  13.100   3.801 -0.0641 -0.0400 -0.2511
 5519W        W21593   8.012   4.059  15.548  0.4540  0.3791 -0.0308
 5520W        W21594  11.785   5.752   1.952 -0.0151  0.0569 -0.1561
 5521W        W21595   1.558  11.207   0.081 -0.1083  0.5071  0.0560
 5522W        W21596  17.598   7.442  10.858 -0.4228  0.0775  0.0580
 5523W        W21597  14.342  10.432  14.122 -0.0826  0.2864 -0.1722
 5524W        W21598  12.990   7.247   2.534 -0.0805 -0.3569  0.1961
 5525W        W21599   8.559   1.282   5.866 -0.0156  0.2744 -0.3444
 5526W        W21600  15.400   7.862   4.301  0.1467 -0.1777  0.0699
 5527W        W21601   6.403   5.879   3.201  0.1389  0.0202 -0.0207
 5528W        W21602   8.505   9.244   2.481 -0.1420 -0.2219 -0.0967
 5529W        W21603   5.289   4.098  16.444  0.1731  0.1308 -0.2694
 5530W        W21604  15.415   3.390  12.567 -0.0581  0.1040  0.0670
 5531W        W21605  13.349   1.472  14.534  0.3203 -0.2249  0.0257
 5532W        W21606  11.313  14.924  13.067  0.0145 -0.0451 -0.3822
 5533W        W21607   9.964  12.934  13.423  0.1810 -0.0323  0.0507
 5534W        W21608  15.505   9.812   3.546 -0.1246 -0.1865 -0.1948
 5535W        W21609  10.677  15.608   4.949 -0.0701  0.3494 -0.0024
 5536W        W21610   4.269  10.936  15.989 -0.0322 -0.3341 -0.1720
 5537W        W21611   0.458   4.092   1.472  0.0221  0.1845 -0.1759
 5538W        W21612   6.914  14.297   2.604  0.3560 -0.1934  0.1208
 5539W        W21613  11.061  15.870  12.155 -0.0554 -0.0205  0.3219
 5540W        W21614   5.535   8.333  12.015 -0.1623 -0.0585  0.0758
 5541W        W21615   5.332  12.059   4.648 -0.1976  0.0253  0.1660
 5542W        W21616  13.618   5.311  13.902  0.0757 -0.2071  0.0276
 5543W        W21617  17.241   5.111  14.958 -0.2254 -0.3366  0.2936
 5544W        W21618  17.875  16.577  12.706 -0.0017  0.0508  0.1204
 5545W        W21619  16.092   2.707  15.274 -0.0163 -0.1920 -0.0813
 5546W        W21620   4.237   3.617  14.696  0.3438  0.0922 -0.0709
 5547W        W21621  14.861   1.790   4.719 -0.0265  0.0158  0.2309
 5548W        W21622   1.468   8.608  12.005  0.1980  0.0220 -0.2597
 5549W        W21623  15.484  12.275   0.140 -0.0998 -0.1354 -0.0801
 5550W        W21624  13.464   9.569   2.885  0.3707  0.0054 -0.0034
 5551W        W21625   9.361   3.414  12.677  0.0696 -0.0664  0.2894
 5552W        W21626   4.774  13.135   3.166 -0.1425  0.0268  0.0749
 5553W        W21627   6.924  17.087   3.724  0.1061  0.1308 -0.0584
 5554W        W21628   1.025   7.808   1.842  0.2291  0.0572  0.0329
 5555W        W21629   5.062  15.495  15.598 -0.2958  0.1517  0.2373
 5556W        W21630  10.244   1.940  11.632  0.0338  0.0654 -0.1768
 5557W        W21631  18.174   2.703   4.814 -0.0743  0.1782 -0.0836
 5558W        W21632  14.207   1.378   2.358 -0.2149  0.3580 -0.0793
 5559W        W21633   2.560  12.161  16.029 -0.0185 -0.2260  0.3739
 5560W        W21634  16.374  14.286   4.184 -0.3440 -0.4296 -0.4345
 5561W        W21635   3.421   1.629   2.873 -0.0627  0.2290  0.1900
 5562W        W21636   5.756  15.946  13.461 -0.0366 -0.1840  0.1188
 5563W        W21637   0.045  12.928  14.490 -0.2506  0.1061 -0.3842
 5564W        W21638   1.378  16.599  11.926  0.0988  0.2156  0.3143
 5565W        W21639  16.568   8.100   0.304 -0.1392 -0.2478  0.0986
 5566W        W21640  13.825   3.227  15.895  0.2132  0.2177  0.3020
 5567W        W21641   0.276   9.283   4.747 -0.3349  0.1855  0.1268
 5568W        W21642   8.239  11.054   0.353  0.0097  0.0957 -0.0779
 5569W        W21643   2.812  17.470   1.566  0.1556 -0.1746 -0.1559
 5570W        W21644  10.722   5.526   1.017 -0.0417 -0.0439 -0.3474
 5571W        W21645  17.662   7.397  12.475 -0.2424  0.2657  0.1079
 5572W        W21646   6.352  13.609   2.138 -0.3390  0.0577  0.1226
 5573W        W21647   2.377  14.082   5.595 -0.2086 -0.1931  0.3220
 5574W        W21648   8.359  10.461   0.714  0.3038  0.0234  0.0247
 5575W        W21649   6.099  17.876  12.384 -0.0307  0.0061  0.2042
 5576W        W21650  10.736   5.354   0.286 -0.1494 -0.1496  0.1835
 5577W        W21651   0.118  17.621   2.884  0.0865  0.0413  0.1612
 5578W        W21652  11.255   3.787   2.156 -0.1089 -0.2975 -0.0095
 5579W        W21653   4.485  11.593  13.062  0.0626  0.0662 -0.0703
 5580W        W21654  15.645  14.184   1.804  0.0284  0.1914  0.0178
 5581W        W21655   0.741   0.894  14.364 -0.3680  0.0520  0.2900
 5582W        W21656   2.975  11.127   5.941 -0.1241  0.1314  0.2167
 5583W        W21657  16.213  13.467  15.789  0.0562  0.0635 -0.4571
 5584W        W21658  13.998  16.769  14.320  0.0687  0.2905  0.0637
 5585W        W21659  16.908  16.518  12.124 -0.3710  0.1419  0.4809
 5586W        W21660   9.339   8.520  15.392 -0.0448  0.1076 -0.1293
 5587W        W21661   0.892  11.762  11.198  0.1738  0.1015  0.2707
 5588W        W21662  11.257   2.086   4.058 -0.0691  0.1543 -0.2154
 5589W        W21663  10.324  12.284  15.069  0.0606 -0.0159  0.0057
 5590W        W21664  12.147  11.060  15.975  0.1135  0.1139  0.0619
 5591W        W21665   5.624   0.851  15.805 -0.2190  0.0683  0.1236
 5592W        W21666  11.492  10.113  15.372  0.2204  0.3210 -0.1495
 5593W        W21667  17.697  15.642  15.176 -0.1841 -0.0468 -0.0582
 5594W        W21668  16.796  13.401  11.991  0.0930 -0.0936 -0.0565
 5595W        W21669  10.209   3.654  13.322  0.2104  0.0274 -0.1722
 5596W        W21670  12.274   9.168  13.973 -0.3587 -0.0978 -0.1040
 5597W        W21671  14.214  16.372   3.886 -0.2548 -0.1224  0.2979
 5598W        W21672   3.858  15.878  13.036  0.0110  0.0431  0.0496
 5599W        W21673  14.954  11.002   5.422 -0.0199 -0.1262  0.1528
 5600W        W21674   3.147  11.914   2.788  0.0528 -0.2732 -0.0076
 5601W        W21675  11.070  11.698   4.460 -0.1876 -0.0241 -0.1247
 5602W        W21676  13.574  17.851   4.786  0.0132 -0.1843 -0.0540
 5603W        W21677  12.455   0.325   0.241  0.1740 -0.0447 -0.2605
 5604W        W21678   3.004   1.029   0.506  0.0064  0.2047  0.1011
 5605W        W21679   0.721  14.584  16.080 -0.1864 -0.1755 -0.0228
 5606W        W21680   1.510   1.078   0.916 -0.4357  0.2443 -0.2013
 5607W        W21681  14.617  15.299   3.087  0.0900  0.0928  0.0332
 5608W        W21682  15.997  10.991   1.269 -0.3025  0.1295 -0.0695
 5609W        W21683  15.143   3.681  15.834 -0.3572 -0.1925  0.0680
 5610W        W21684  17.791   1.581  11.120 -0.1463 -0.1099  0.1636
 5611W        W21685   4.453  14.394   2.593  0.1832 -0.3389 -0.1176
 5612W        W21686  16.817   3.349   5.561 -0.0670  0.0748 -0.1902
 5613W        W21687   3.844   7.459  15.398  0.0036 -0.0181  0.3221
 5614W        W21688  10.179   6.342  13.822 -0.0006 -0.0694  0.1430
 5615W        W21689  10.559  12.851   4.792  0.0896 -0.1950  0.0083
 5616W        W21690  11.797  10.880   5.179  0.1009 -0.2770  0.3903
 5617W        W21691   0.963  13.316   3.615  0.0597  0.0784  0.3312
 5618W        W21692   2.296   6.074  16.540  0.0840  0.4164 -0.3064
 5619W        W21693  15.871   0.411  12.364 -0.1689  0.0475  0.2135
 5620W        W21694  17.902  10.501  15.218 -0.1400  0.0809  0.0166
 5621W        W21695   0.996   9.296  16.002  0.2861  0.0212 -0.1724
 5622W        W21696   7.544   0.066   5.751 -0.2635  0.1011 -0.1614
 5623W        W21697  18.084  11.300  11.554  0.1492  0.1774 -0.0989
 5624W        W21698   9.676   0.756   1.989  0.3294  0.0881  0.0332
 5625W        W21699   4.757  12.178   3.559 -0.2056 -0.0833 -0.1659
 5626W        W21700   9.524   7.174   5.943 -0.3988  0.1972  0.1770
 5627W        W21701  13.834   7.053  11.181 -0.0376 -0.2725 -0.0118
 5628W        W21702   8.837   6.460  14.354 -0.3008 -0.0781 -0.0131
 5629W        W21703  16.151  15.107   1.761 -0.1798 -0.0425  0.1234
 5630W        W21704   3.595  11.000   1.086 -0.1146 -0.2375  0.1964
 5631W        W21705  12.247   7.944   2.954  0.0647  0.0068 -0.0017
 5632W        W21706   8.552   9.623   3.973 -0.3014 -0.1312 -0.2495
 5633W        W21707   7.556   6.880  13.386  0.1859  0.0064  0.1538
 5634W        W21708  12.266   1.985   0.563 -0.0076 -0.0851  0.0545
 5635W        W21709   5.055  15.041   5.466  0.0996  0.1709  0.4892
 5636W        W21710  15.292  11.099  12.300  0.0954  0.2384  0.1682
 5637W        W21711  17.853   3.028   2.167 -0.1755 -0.1966 -0.1999
 5638W        W21712  12.425   2.636  14.466  0.1172  0.1530 -0.1032
 5639W        W21713  17.718  11.029   4.797 -0.1260  0.1691 -0.0267
 5640W        W21714   5.027   0.315  15.819  0.3615 -0.0731 -0.0587
 5641W        W21715   7.747  11.895   2.512 -0.1647 -0.2467 -0.0899
 5642W        W21716  14.279   7.156   1.641 -0.0245  0.1518 -0.1048
 5643W        W21717  11.260   2.080   5.841 -0.0938 -0.0097 -0.0899
 5644W        W21718   0.113   4.262   0.800 -0.2697  0.1262  0.2171
 5645W        W21719  16.835   5.934   2.693  0.2624 -0.0725 -0.0785
 5646W        W21720   7.570  15.236   3.380 -0.1189  0.1712 -0.3348
 5647W        W21721  11.185   6.495   6.185  0.0521  0.0111  0.1028
 5648W        W21722  12.391   3.456  15.090 -0.1251  0.2691  0.0741
 5649W        W21723   7.595   9.912   3.086  0.1566  0.0734  0.0174
 5650W        W21724   3.084  15.797   1.690 -0.3603  0.0427 -0.0557
 5651W        W21725  17.820  16.222  11.769 -0.4579 -0.0452 -0.4028
 5652W        W21726   8.996   0.130   0.215  0.3665 -0.0493  0.4219
 5653W        W21727   3.529  14.907   2.735  0.1505 -0.3446  0.0713
 5654W        W21728  12.621   3.057  13.682 -0.0337  0.1714 -0.1969
 5655W        W21729   4.517   8.076   0.046  0.0360  0.3110  0.5994
 5656W        W21730  15.920   1.533   0.518  0.1805  0.2775 -0.1765
 5657W        W21731  18.041  15.153   1.806 -0.1596 -0.0659 -0.0161
 5658W        W21732  15.667   0.882   1.151  0.3478 -0.1323  0.0050
 5659W        W21733  16.236   5.762  10.905  0.1147 -0.0288  0.0988
 5660W        W21734   9.773   9.616   3.523 -0.1841 -0.1679 -0.1282
 5661W        W21735  13.778   0.005   5.405  0.0718 -0.0110  0.0213
 5662W        W21736   0.156   3.088   2.279  0.1458 -0.1426 -0.1054
 5663W        W21737   6.061   8.587   3.036  0.3388 -0.2142  0.1931
 5664W        W21738   1.210   7.191  13.391  0.0259 -0.2237 -0.0497
 5665W        W21739   8.718  16.015  13.370 -0.3709  0.0158  0.1954
 5666W        W21740   3.988   4.277  15.773  0.1518  0.1160 -0.1057
 5667W        W21741   8.019   1.793  12.465  0.1404 -0.3913  0.2087
 5668W        W21742   5.288   3.162  16.057 -0.2048  0.0099  0.1716
 5669W        W21743  10.049   3.927  12.794  0.0869 -0.1796 -0.3129
 5670W        W21744   4.366  13.100  13.254 -0.1580  0.1292  0.0700
 5671W        W21745   1.757  15.312   1.936  0.3746  0.0607 -0.2903
 5672W        W21746   0.616  16.706  11.809 -0.0097  0.1621  0.2230
 5673W        W21747  17.205   0.062  14.649 -0.1519 -0.0756  0.1880
 5674W        W21748  15.305   6.700  13.460 -0.0679  0.1780  0.0746
 5675W        W21749   5.531   9.790  14.304 -0.0065  0.1138  0.0965
 5676W        W21750   4.563  14.056  12.759 -0.0445  0.1310 -0.3182
 5677W        W21751  10.110   6.928  13.421 -0.1376 -0.0504 -0.0515
 5678W        W21752   7.912   7.874   2.324  0.1092 -0.5512  0.1293
 5679W        W21753   0.928   3.977   3.930  0.0208  0.4376  0.0594
 5680W        W21754  10.869   7.952  15.069 -0.0302 -0.3738  0.0963
 5681W        W21755   6.490  17.487   2.943  0.2285  0.1042 -0.1151
 5682W        W21756  15.127   5.806  13.421 -0.1373 -0.3020  0.2768
 5683W        W21757   8.136   1.442  16.361  0.0484  0.1070  0.2236
 5684W        W21758  14.066  11.223   5.208 -0.0843 -0.2682  0.0411
 5685W        W21759   2.289   1.079   0.462  0.1941 -0.1337 -0.1745
 5686W        W21760   4.605   0.945  11.408 -0.5009  0.0407  0.1407
 5687W        W21761   2.765   4.837  14.493  0.0910  0.1607  0.2096
 5688W        W21762   9.921   4.087   2.921 -0.0565 -0.1028  0.4212
 5689W        W21763  11.827   5.747  12.106 -0.1542 -0.0678  0.0104
 5690W        W21764   5.609  13.573  12.413 -0.0692 -0.0221 -0.3780
 5691W        W21765  16.262  10.132   4.734  0.0088  0.1554  0.0837
 5692W        W21766  15.388   5.080   2.346  0.2184  0.1494 -0.0386
 5693W        W21767  18.218   2.503  14.253 -0.1126  0.1405  0.1030
 5694W        W21768   0.535  10.739  13.663 -0.2758 -0.1498  0.0357
 5695W        W21769   8.071  13.807   3.454  0.1402  0.0818  0.0441
 5696W        W21770   2.228   9.323  16.299  0.3457  0.2256 -0.0862
 5697W        W21771  11.239   4.777   4.350  0.1468  0.1110 -0.1099
 5698W        W21772   6.700   9.238   0.337 -0.0030 -0.0872  0.1293
 5699W        W21773   0.070  15.120   0.135  0.1561  0.1304 -0.1453
 5700W        W21774   0.391   5.249  12.214  0.0702 -0.0773 -0.1246
 5701W        W21775  12.353   7.415   2.943 -0.0139 -0.0180  0.1353
 5702W        W21776   3.232   4.532  11.485 -0.1803 -0.1431  0.0738
 5703W        W21777  12.961   1.097  13.218 -0.2167  0.1093  0.2652
 5704W        W21778  11.923   8.680   3.335  0.1139  0.1345 -0.0371
 5705W        W21779   7.113   6.878   2.097 -0.1025  0.1106  0.0933
 5706W        W21780  11.760   5.821   4.013 -0.2351  0.0233 -0.0303
 5707W        W21781   3.388   1.862  12.942 -0.1031  0.0761  0.0110
 5708W        W21782   9.740   7.745  13.153 -0.0378 -0.1831 -0.0397
 5709W        W21783  17.114  15.799  14.965 -0.2934 -0.1867  0.0088
 5710W        W21784  17.662  15.613  15.666  0.1111 -0.1052 -0.0627
 5711W        W21785   7.363  15.230  15.944 -0.1287  0.0274 -0.1191
 5712W        W21786  16.901   7.046   1.393 -0.1077 -0.1296 -0.3145
 5713W        W21787   7.759   1.328  12.790  0.3681 -0.0232  0.0327
 5714W        W21788   5.436  17.989  14.966 -0.1936  0.3338 -0.0353
 5715W        W21789   8.008   6.191   5.001  0.1172 -0.0192  0.1366
 5716W        W21790   2.410  17.777   1.614 -0.0242 -0.0455 -0.1715
 5717W        W21791  11.167   4.267  15.143  0.1805 -0.1180  0.2380
 5718W        W21792   6.805  17.251   4.188  0.0347  0.2770  0.1778
 5719W        W21793   3.692  13.624   0.361 -0.1904  0.5628  0.2651
 5720W        W21794   1.058   6.985   4.064 -0.3554  0.0760  0.3328
 5721W        W21795  17.050   7.778  12.102  0.1555 -0.0721 -0.2819
 5722W        W21796  11.755  14.329   1.544  0.2356  0.0081 -0.0016
 5723W        W21797   6.091   2.731   5.422 -0.2412  0.0117 -0.0874
 5724W        W21798   0.032  13.662  15.823  0.3170  0.0474  0.0380
 5725W        W21799  11.774  13.986  16.518 -0.2164  0.0453  0.1538
 5726W        W21800   4.299   1.849  12.018 -0.4078 -0.0337 -0.1527
 5727W        W21801  13.631   0.379  12.766  0.2971 -0.2446  0.1968
 5728W        W21802  14.537   1.881  11.501 -0.2624  0.3246 -0.1189
 5729W        W21803   5.251   9.525   0.904 -0.1019 -0.2816  0.1053
 5730W        W21804   3.934   6.826   3.502  0.2252 -0.0766 -0.0958
 5731W        W21805  17.714   9.877   4.323 -0.1209 -0.1183 -0.1198
 5732W        W21806   3.661  14.403  11.998 -0.0871  0.1689 -0.1373
 5733W        W21807  15.467   6.019   4.689 -0.0424  0.0423 -0.0464
 5734W        W21808   1.859   4.393  13.942 -0.3838 -0.1367 -0.0157
 5735W        W21809   4.188   2.411  14.300 -0.1050 -0.2356 -0.0884
 5736W        W21810   5.130   5.477   6.062  0.0189  0.1358 -0.1080
 5737W        W21811   5.899  14.590   4.599 -0.0732  0.0991 -0.0076
 5738W        W21812   2.818  17.188  15.987 -0.0515  0.0280 -0.0206
 5739W        W21813  10.490   5.671   5.221 -0.0597 -0.0698 -0.0168
 5740W        W21814   2.848   0.580  11.590  0.1972  0.0601 -0.0677
 5741W        W21815   0.146   7.788  15.192  0.0902  0.1833 -0.0320
 5742W        W21816  12.921   3.012  11.618 -0.1801 -0.2632 -0.1681
 5743W        W21817   4.647  10.034   5.277  0.2386  0.1318  0.2010
 5744W        W21818  14.872  12.128  14.361  0.2730 -0.1904 -0.1749
 5745W        W21819   2.291  12.276  12.846  0.2354  0.2261 -0.0216
 5746W        W21820  15.744  10.706  12.307  0.1422 -0.1650  0.1370
 5747W        W21821  17.795   0.601   1.040 -0.0119 -0.0270 -0.0470
 5748W        W21822   9.579  13.639  15.051  0.0364 -0.2469  0.1278
 5749W        W21823   3.513   5.684  13.811  0.0497 -0.1846 -0.1611
 5750W        W21824   0.312  15.758  16.126  0.0043 -0.1643 -0.0945
 5751W        W21825  16.299   2.449  14.199 -0.2929 -0.0334 -0.2067
 5752W        W21826   3.840   9.215   2.471  0.0567 -0.0516 -0.0523
 5753W        W21827  11.123  12.918  10.653  0.0345  0.0632  0.0398
 5754W        W21828   2.832   6.871   3.179 -0.1887  0.1020 -0.0303
 5755W        W21829   4.206   6.429   4.259 -0.2399  0.1109 -0.3368
 5756W        W21830   3.484   8.425   2.820 -0.1632  0.2313 -0.3922
 5757W        W21831   2.165  16.759  13.112  0.0479 -0.1182  0.2528
 5758W        W21832   0.054   2.666   3.547 -0.0874  0.0750  0.2386
 5759W        W21833   2.088  14.269  15.328  0.1837 -0.3184  0.1197
 5760W        W21834  14.119  13.829   5.804  0.0752  0.2553 -0.0897
 5761W        W21835  13.850   0.458  14.527 -0.2196 -0.0759  0.0838
 5762W        W21836   5.581  14.930   2.346 -0.3542 -0.0361  0.0273
 5763W        W21837  15.311   9.779  12.521 -0.2096  0.0359 -0.0131
 5764W        W21838   2.206   5.588  12.828 -0.1816  0.2608 -0.2138
 5765W        W21839   6.365   9.196   5.938  0.1687 -0.3929 -0.1564
 5766W        W21840   0.455   8.101  14.242  0.0065  0.0464 -0.1571
 5767W        W21841   2.201   6.196  15.549 -0.1250 -0.2049 -0.1763
 5768W        W21842   5.437  11.563  12.546 -0.1333  0.1953 -0.3452
 5769W        W21843  13.760  10.104  12.340  0.1736  0.2209 -0.3235
 5770W        W21844  11.056   0.188  11.120 -0.0867 -0.0935 -0.0753
 5771W        W21845  17.092  17.274   4.908  0.0551 -0.0951  0.1032
 5772W        W21846  13.188   9.694  14.785 -0.0355 -0.0286 -0.0373
 5773W        W21847   8.032  11.138  12.766  0.1699  0.0066  0.3362
 5774W        W21848   3.418  15.470   0.149 -0.2220 -0.0262  0.1329
 5775W        W21849  14.309   3.980   2.899  0.1611 -0.1441 -0.1486
 5776W        W21850  16.567  18.188   3.542  0.3459  0.2137 -0.1930
 5777W        W21851   5.784   8.896   0.841 -0.1344  0.3041 -0.1744
 5778W        W21852   5.390   6.150   0.902  0.2202 -0.1260  0.1516
 5779W        W21853   2.368   6.366  11.077  0.3614 -0.3573  0.1205
 5780W        W21854  11.826   1.565   0.627  0.1810 -0.0684  0.0177
 5781W        W21855   1.238  12.729   1.164  0.1856  0.1420  0.1364
 5782W        W21856  12.393   6.373   0.316 -0.0860 -0.1893 -0.0509
 5783W        W21857  17.707   8.580   3.572 -0.2278  0.0506  0.2268
 5784W        W21858   8.481   8.295  12.064  0.2061  0.0471  0.0148
 5785W        W21859   0.466   5.405  14.835  0.2013 -0.1117 -0.1436
 5786W        W21860  13.638   9.361   1.520  0.0375  0.1822  0.0048
 5787W        W21861  13.728  15.157  16.318 -0.0762  0.2937  0.1473
 5788W        W21862   1.836  16.418  11.714 -0.1648  0.1495  0.2605
 5789W        W21863  10.074  13.309  12.682 -0.1344  0.1409  0.1797
 5790W        W21864   3.502  15.402   2.881  0.0833  0.3926 -0.3886
 5791W        W21865   9.257  12.416  15.164  0.0191 -0.1836 -0.0810
 5792W        W21866   6.120   8.598  13.512 -0.0493 -0.1049  0.1696
 5793W        W21867   5.782  10.308   4.045  0.2595  0.0455  0.2955
 5794W        W21868  10.200  14.715  12.195 -0.0468 -0.3227 -0.0603
 5795W        W21869   4.437  16.345   1.591 -0.2305  0.3205 -0.0238
 5796W        W21870  16.403  16.257  14.950 -0.0108 -0.0649  0.1065
 5797W        W21871   6.049  11.906   2.322  0.1560 -0.1978  0.0865
 5798W        W21872   4.873   4.448   0.768 -0.0380 -0.2286 -0.0447
 5799W        W21873  13.401   4.878   3.276  0.0100  0.2475  0.0702
 5800W        W21874  15.089   8.304  13.178  0.1589  0.3204  0.1124
 5801W        W21875   7.350  17.944  12.869 -0.1231 -0.0516  0.1633
 5802W        W21876  13.575  13.742   0.914  0.2893  0.3039 -0.1242
 5803W        W21877  15.756   4.782   0.932 -0.2408 -0.0560  0.0376
 5804W        W21878  13.300   4.780   2.175 -0.3924 -0.2406 -0.0315
 5805W        W21879   4.809   1.483   3.797 -0.1081 -0.1947 -0.1012
 5806W        W21880  15.685  11.388   3.552 -0.2709 -0.2232  0.0707
 5807W        W21881   1.948   8.934   2.772 -0.2932  0.0405 -0.2288
 5808W        W21882  10.631  13.313   5.036  0.0570  0.2068  0.0272
 5809W        W21883   0.967   2.937   4.865 -0.0760 -0.0190  0.2539
 5810W        W21884   4.548  16.672   2.853  0.0043 -0.1435 -0.2285
 5811W        W21885   6.836  15.812  11.482  0.1211  0.0188  0.0974
 5812W        W21886   8.486   8.377   2.956  0.1119  0.2356 -0.0751
 5813W        W21887   9.222   9.330  11.944  0.2015  0.2568  0.1596
 5814W        W21888   8.061   5.953  13.585 -0.2116 -0.0624 -0.0205
 5815W        W21889  15.759  14.106   5.005  0.2591 -0.1610 -0.2148
 5816W        W21890  15.703   3.896   1.506  0.0046 -0.0004  0.0188
 5817W        W21891   5.677   9.740  14.960  0.4569  0.0702 -0.1216
 5818W        W21892   7.581  13.687   3.489  0.2294  0.2266  0.1417
 5819W        W21893  17.826   2.086  11.250  0.0343 -0.2002  0.1076
 5820W        W21894  13.161  15.155   1.882  0.1423 -0.1655 -0.0395
 5821W        W21895   6.850  10.059  16.489  0.0319 -0.1328 -0.1423
 5822W        W21896   3.386   0.645   0.669  0.2258 -0.3399 -0.3259
 5823W        W21897   7.354   0.178   5.186  0.2910  0.2022 -0.0533
 5824W        W21898  11.338   2.211  14.310 -0.2484  0.0760 -0.0671
 5825W        W21899   8.028   6.050   1.704 -0.2490  0.1081  0.0703
 5826W        W21900  11.350   3.744  11.500 -0.0213 -0.1392 -0.0922
 5827W        W21901   3.691  15.715   3.177  0.1938  0.1217  0.1563
 5828W        W21902   0.055   2.729   1.968 -0.2241  0.0927  0.4038
 5829W        W21903   7.695  13.695  16.377  0.2705  0.0261 -0.4598
 5830W        W21904  17.669   9.325  15.835  0.1073  0.1163  0.0805
 5831W        W21905  13.488   5.528   0.955 -0.1824 -0.1928 -0.1018
 5832W        W21906  13.513   4.907  16.326  0.3237  0.1077  0.1146
 5833W        W21907   1.718   8.920  15.405  0.4043  0.1206 -0.0253
 5834W        W21908  10.708  14.087   3.285 -0.1574  0.1382 -0.0447
 5835W        W21909   6.755   4.018  13.391  0.1687  0.1123  0.1489
 5836W        W21910  11.551   6.159   1.209 -0.2012 -0.1741  0.1086
 5837W        W21911   9.153  16.401  14.305  0.1121 -0.1366 -0.0582
 5838W        W21912  16.905  10.785   0.419  0.3840 -0.4849  0.0862
 5839W        W21913  12.073   5.679   3.625 -0.1039  0.2616 -0.5111
 5840W        W21914  17.752   7.071   0.176 -0.2872  0.3078 -0.0694
 5841W        W21915  11.643   3.491   4.460  0.0234  0.1163 -0.1544
 5842W        W21916  15.589   5.500  13.808  0.4529 -0.3071 -0.0007
 5843W        W21917  14.119  15.387   1.668  0.0358  0.0127 -0.2023
 5844W        W21918   3.931  13.677   2.262 -0.3013 -0.0557 -0.0259
 5845W        W21919  16.071  14.364  13.656  0.0481 -0.1672 -0.0222
 5846W        W21920   0.764   2.447  14.976 -0.4484  0.1991 -0.0137
 5847W        W21921   0.106  16.696   2.461  0.0735  0.1310  0.2746
 5848W        W21922   8.624   0.773   3.657 -0.2635  0.2542 -0.0718
 5849W        W21923   6.311   3.509   1.653 -0.2085 -0.0227  0.1830
 5850W        W21924  14.956  12.925  15.345 -0.0475  0.2672  0.1184
 5851W        W21925   1.498  12.178  13.134  0.0704 -0.2704 -0.0587
 5852W        W21926   1.647   4.137   4.888  0.3403 -0.0666  0.4186
 5853W        W21927  14.720  12.620   6.124 -0.3116  0.2701  0.1785
 5854W        W21928   7.847   3.184   0.712  0.3836  0.0888 -0.0985
 5855W        W21929   4.453  17.480   5.314 -0.2202  0.0455 -0.0985
 5856W        W21930  16.337   3.210  13.425 -0.0640  0.1061  0.3851
 5857W        W21931   3.474   7.988   4.980  0.0730 -0.2685  0.2535
 5858W        W21932  14.153   4.338   3.786 -0.0581 -0.1031 -0.0903
 5859W        W21933  17.833   7.491   4.408  0.2570  0.1824  0.1190
 5860W        W21934   7.970  14.518  14.775 -0.2407 -0.1538  0.1339
 5861W        W21935  16.197  11.465   1.370 -0.1183 -0.1451 -0.0377
 5862W        W21936  13.773  12.703  15.643 -0.1812  0.2387  0.0207
 5863W        W21937   9.401  17.493  12.802  0.2307  0.1725  0.2102
 5864W        W21938  14.669  16.614  15.189  0.1529  0.3064  0.0287
 5865W        W21939  15.369  10.177   4.830 -0.0731 -0.0184 -0.3552
 5866W        W21940   0.411   4.430  12.109 -0.1119  0.1775  0.1363
 5867W        W21941  15.057   6.879   2.851  0.0262  0.2297  0.1391
 5868W        W21942   2.971   5.462  15.185 -0.0127  0.0190 -0.0084
 5869W        W21943  15.782   7.225  13.331 -0.1795  0.0305  0.1041
 5870W        W21944   0.632   6.191  12.740  0.1974 -0.2541  0.2534
 5871W        W21945   9.837   6.251   2.315  0.1260 -0.1988 -0.1432
 5872W        W21946  14.748   1.665  15.168 -0.1865 -0.3547 -0.1282
 5873W        W21947   1.112   9.309   1.399  0.0785 -0.0982  0.1414
 5874W        W21948   8.187   0.744  12.327 -0.0376  0.1825  0.0096
 5875W        W21949  13.444  17.636  16.384  0.0177  0.2023  0.0099
 5876W        W21950   9.344   4.313  12.881 -0.1031 -0.2420  0.3880
 5877W        W21951  15.623   8.151  12.456 -0.1222  0.0462  0.2611
 5878W        W21952   0.012   8.679   4.364  0.1680 -0.0113  0.1525
 5879W        W21953   4.169  15.501   3.339  0.1557 -0.0089  0.0355
 5880W        W21954   4.385  12.764  12.507  0.0843 -0.2251  0.1134
 5881W        W21955   6.523  13.679   1.106  0.0840  0.4245  0.2040
 5882W        W21956  11.688   7.256   0.981 -0.1066  0.0782 -0.1355
 5883W        W21957  16.132  14.775  13.122 -0.2874 -0.0381 -0.1299
 5884W        W21958   0.887  17.811  13.856 -0.1711  0.1128  0.0919
 5885W        W21959   5.677  11.029  16.349 -0.1152  0.2036  0.1379
 5886W        W21960   0.245   7.882   1.626 -0.1957  0.2401 -0.3428
 5887W        W21961  13.003   4.294  15.000  0.0588 -0.2828  0.2453
 5888W        W21962   4.373  15.855   0.548 -0.1151  0.2119 -0.0575
 5889W        W21963   6.695  11.985  12.693 -0.0532  0.0779 -0.2565
 5890W        W21964   0.889   3.557   2.681  0.2336  0.0607  0.0253
 5891W        W21965  14.061   8.422  15.248  0.0126 -0.2397 -0.2102
 5892W        W21966  14.182   3.131  13.127  0.0127  0.1407  0.1765
 5893W        W21967   8.253   8.678  15.910 -0.1321  0.2477 -0.0216
 5894W        W21968   1.637  12.478  15.994  0.1674 -0.2106  0.3838
 5895W        W21969   5.330   4.569  15.524 -0.1339 -0.1583 -0.0555
 5896W        W21970  17.334   2.650  11.951  0.0668  0.3788  0.0127
 5897W        W21971   7.893   4.804   4.462  0.0024 -0.1573  0.0600
 5898W        W21972   4.317   7.364  14.444 -0.0290  0.2222 -0.1731
 5899W        W21973   4.744  11.043  16.004 -0.1737  0.1094  0.2762
 5900W        W21974  16.909  12.924   2.316  0.1434  0.2293 -0.0088
 5901W        W21975   8.332  17.432   5.607  0.0746 -0.1892 -0.0848
 5902W        W21976  14.116  16.729   1.921 -0.1077 -0.0898 -0.1007
 5903W        W21977   8.081  15.985   1.458  0.1341  0.0071 -0.3944
 5904W        W21978   3.453  10.147  15.212  0.2214 -0.0462 -0.0265
 5905W        W21979  10.650   6.953   1.019  0.4990 -0.0549 -0.2256
 5906W        W21980  18.195   5.959  14.941  0.2361 -0.0425  0.3953
 5907W        W21981   8.439  13.267   0.347 -0.2009 -0.3377  0.0759
 5908W        W21982   8.491  10.353  13.085  0.1769 -0.1676 -0.0327
 5909W        W21983   3.168   8.337   5.195  0.1072 -0.1047 -0.0492
 5910W        W21984   8.326  12.687  13.109 -0.2521 -0.0367 -0.0046
 5911W        W21985   1.618   0.225  13.754 -0.0600 -0.3261 -0.0238
 5912W        W21986   4.099   5.195  12.638 -0.2001 -0.0705 -0.1128
 5913W        W21987   6.555   6.152  12.945 -0.3326 -0.3692 -0.1198
 5914W        W21988   1.560  17.111  11.985  0.1372 -0.1635  0.0184
 5915W        W21989   2.208   7.422  12.009 -0.1082 -0.2019 -0.0132
 5916W        W21990  18.184  11.384  13.349  0.0682 -0.1453 -0.4189
 5917W        W21991   0.745  10.959   3.161  0.3722  0.1831  0.0267
 5918W        W21992   3.228  14.079  10.460  0.3604 -0.0423 -0.2535
 5919W        W21993  11.209   1.316  14.320 -0.2080 -0.1038  0.0101
 5920W        W21994   4.994   0.907   4.931 -0.0655 -0.0789  0.5742
 5921W        W21995   7.023  17.992   3.374  0.0349  0.0487 -0.0363
 5922W        W21996   1.124   9.226   2.037  0.1982 -0.1550 -0.0500
 5923W        W21997   7.105  16.287  15.890 -0.0257  0.0939  0.2617
 5924W        W21998   5.648  14.089   4.435  0.1715 -0.0125 -0.0759
 5925W        W21999   6.400  17.397   1.638 -0.0960  0.1120 -0.0851
 5926W        W22000  17.761  13.485   4.433 -0.0737  0.1190  0.0817
 5927W        W22001   8.613  17.640   2.834  0.1834 -0.0810  0.0315
 5928W        W22002  17.582   2.354   2.445  0.0172 -0.0869  0.2195
 5929W        W22003   9.099  11.411   1.698  0.1805 -0.2810 -0.0652
 5930W        W22004  13.538  14.131   0.339  0.1705  0.0384 -0.2124
 5931W        W22005  17.746  11.673  14.854 -0.0508 -0.0472 -0.3208
 5932W        W22006  13.486  15.174  14.759 -0.0768  0.3894  0.3823
 5933W        W22007   1.612  10.481   4.800 -0.0036  0.3548  0.4286
 5934W        W22008  16.997  17.367  16.237 -0.0796 -0.2070  0.2880
 5935W        W22009   4.841   5.504   5.544  0.4083  0.2433 -0.1724
 5936W        W22010  12.518   3.828  13.404  0.3685 -0.0601  0.0547
 5937W        W22011   1.240   0.227  11.080 -0.1339  0.2749  0.7029
 5938W        W22012   2.072   1.400  13.094 -0.0325  0.3251  0.0358
 5939W        W22013   7.455  15.591  14.517  0.1861  0.0084 -0.0801
 5940W        W22014  13.656   9.319  14.082  0.4228  0.0156  0.2035
 5941W        W22015   0.774   4.966   0.554  0.1227  0.0232 -0.1593
 5942W        W22016   1.217   3.409  11.254 -0.2112  0.0606 -0.3319
 5943W        W22017   9.639  13.354  16.122  0.2310  0.0626 -0.1192
 5944W        W22018   7.310  10.841  13.963 -0.1400  0.0578 -0.0310
 5945W        W22019  14.102   3.934  12.074  0.1303 -0.1867 -0.3575
 5946W        W22020  10.982   8.060   5.321  0.0193 -0.0012 -0.0620
 5947W        W22021   2.945  12.283  14.051 -0.1516  0.1351  0.0537
 5948W        W22022  16.641  14.149   3.274  0.2647 -0.1045  0.1158
 5949W        W22023  15.845  15.653  14.190  0.3038  0.2941 -0.1149
 5950W        W22024  10.288   4.275  16.283  0.0126 -0.2300  0.2656
 5951W        W22025  14.601  10.781   0.529 -0.3256  0.0247 -0.2297
 5952W        W22026  16.200  11.320   1.979 -0.2217  0.1478  0.1524
 5953W        W22027  16.716  14.362  15.794 -0.0339 -0.0639 -0.2120
 5954W        W22028  17.911  15.186   2.591 -0.0499 -0.0769  0.0503
 5955W        W22029  15.265   1.196   2.670  0.3152 -0.0732  0.0430
 5956W        W22030   4.042   9.795   1.603 -0.2924  0.2735 -0.0901
 5957W        W22031   9.659   7.251   5.368 -0.0503 -0.1747 -0.0713
 5958W        W22032  14.103   1.248   4.062  0.2901  0.0176 -0.0003
 5959W        W22033  14.850   2.578  16.448  0.1452 -0.1659  0.0765
 5960W        W22034  15.068   5.571  12.599  0.0748 -0.2143  0.1835
 5961W        W22035  11.217   7.539   3.642 -0.3555  0.2712 -0.3042
 5962W        W22036   9.812  11.386  14.910  0.1705 -0.2995 -0.1289
 5963W        W22037   4.132  12.794  14.011 -0.0268 -0.3477  0.0130
 5964W        W22038  15.338   6.674  16.130  0.0839 -0.1233 -0.1364
 5965W        W22039   2.251  16.420  13.815 -0.2287 -0.2543 -0.2292
 5966W        W22040   0.386   4.254  14.864 -0.1582  0.1725  0.0930
 5967W        W22041  15.897  11.481   2.819 -0.0733  0.0288 -0.2099
 5968W        W22042   8.243   0.949   2.279 -0.1617 -0.3482  0.0877
 5969W        W22043  14.288  14.408   1.969 -0.0762 -0.3179  0.0959
 5970W        W22044  16.106  10.113  14.766 -0.2255 -0.3616  0.0234
 5971W        W22045   7.003   1.568   3.152 -0.3139 -0.2852 -0.0158
 5972W        W22046  11.097   4.066   2.538 -0.1442  0.4075 -0.1476
 5973W        W22047   2.003   5.994  15.076 -0.0030  0.1003 -0.0862
 5974W        W22048  13.474   6.177  12.240  0.2386  0.0030 -0.0115
 5975W        W22049  14.191   9.186  13.921  0.1379 -0.0338  0.1814
 5976W        W22050   3.625  16.516  11.987 -0.0171 -0.0467  0.0911
 5977W        W22051   7.744  17.061   1.869  0.3702  0.0892 -0.0066
 5978W        W22052   1.836  13.291  12.600  0.2132 -0.1472  0.1379
 5979W        W22053   1.296   2.559   2.923  0.0982  0.0381  0.0343
 5980W        W22054  17.232   5.455  16.390  0.2296 -0.0687 -0.2626
 5981W        W22055  11.473  11.108   6.317 -0.2785 -0.4841  0.3266
 5982W        W22056  16.209   6.602   3.565 -0.0658 -0.2803  0.1620
 5983W        W22057   8.255  15.879   2.040 -0.0972 -0.3623  0.0864
 5984W        W22058  14.574  11.753  14.214  0.1445 -0.0189  0.1241
 5985W        W22059   0.837   6.292   2.957  0.0264 -0.0906 -0.2105
 5986W        W22060  16.139   1.036  13.004  0.5159  0.0328  0.0161
 5987W        W22061   7.233   0.855  14.986 -0.2347 -0.0265  0.1835
 5988W        W22062  14.520   9.982   1.016 -0.4319  0.1152 -0.2468
 5989W        W22063  14.717   8.111  12.082  0.3260 -0.0834 -0.2260
 5990W        W22064   9.762   4.063  15.916 -0.2395 -0.0192 -0.1063
 5991W        W22065  12.810   2.647  12.016 -0.2264  0.1756  0.1275
 5992W        W22066  18.114  14.975  14.871  0.1305 -0.0743 -0.0828
 5993W        W22067  12.177   4.726   0.171 -0.0985  0.0260 -0.1783
 5994W        W22068   5.889  11.563  15.044 -0.0179  0.0876  0.1682
 5995W        W22069   2.385  11.435  11.880 -0.4060 -0.0095  0.2016
 5996W        W22070  17.874  16.979   0.176  0.3431  0.1839  0.0974
 5997W        W22071   2.701   8.441   1.800  0.2570  0.0154  0.3353
 5998W        W22072  15.192   5.892  13.905 -0.1393  0.0108  0.1235
 5999W        W22073  12.747  13.413   1.844 -0.0344  0.2571 -0.0128
 6000W        W22074  11.744   5.233   0.143  0.1111  0.0309  0.0724
 6001W        W22075   2.680  16.337  15.992  0.2345  0.1633 -0.0513
 6002W        W22076   9.255   8.674   1.632  0.0384  0.0999  0.0408
 6003W        W22077  16.930   5.735  10.620  0.0018 -0.0206 -0.0162
 6004W        W22078  12.575   8.959  12.125  0.1758 -0.2548  0.3597
 6005W        W22079   8.328  12.680   2.689  0.3174 -0.0711  0.1939
 6006W        W22080   4.449   4.538  12.396 -0.4474 -0.3473  0.0131
 6007W        W22081   2.540  17.210   4.111  0.1068  0.4612 -0.2801
 6008W        W22082   0.301  15.305   2.866  0.0179 -0.0962  0.1993
 6009W        W22083   4.798   2.906   2.246  0.0676  0.0022  0.0363
 6010W        W22084   4.697   3.015  13.462  0.0137  0.1216  0.2562
 6011W        W22085   0.299  11.393  13.001 -0.1693 -0.0335 -0.2157
 6012W        W22086  10.596  11.902   1.242  0.0874  0.1542  0.1049
 6013W        W22087  13.948   5.767  16.515 -0.3743 -0.0389 -0.0714
 6014W        W22088   7.358   8.764   3.132  0.2698 -0.1932  0.1326
 6015W        W22089   4.543   5.412  12.725  0.1790  0.3212  0.3518
 6016W        W22090   5.160   9.057  15.912 -0.1503  0.0754 -0.2756
 6017W        W22091   5.884   3.715  13.480 -0.1674  0.1642 -0.0209
 6018W        W22092   4.933  10.946   1.429  0.2156 -0.2743 -0.0351
 6019W        W22093  17.588   5.687   4.703 -0.0721 -0.3708  0.2553
 6020W        W22094  12.412  13.255  12.430 -0.3595 -0.1003 -0.0667
 6021W        W22095   3.168   9.299   4.087 -0.0554 -0.0780  0.3307
 6022W        W22096  17.883   5.376  12.570  0.0496  0.1960 -0.2424
 6023W        W22097  11.955   2.982  15.326 -0.0105  0.2433 -0.0272
 6024W        W22098  12.244  11.457   1.455 -0.3569 -0.0573 -0.1796
 6025W        W22099  12.139   3.944   0.635 -0.4186 -0.1222 -0.0111
 6026W        W22100  11.208   7.848   3.995 -0.3229 -0.3310 -0.0140
 6027W        W22101   7.784   6.499   4.323 -0.3696  0.0023  0.0516
 6028W        W22102  15.274  13.856   0.986 -0.2237 -0.3555 -0.0790
 6029W        W22103  11.800  17.204   1.071  0.1009 -0.0327  0.0768
 6030W        W22104  14.055  15.250   4.383  0.0875  0.0089  0.1637
 6031W        W22105   3.131  15.450  11.719  0.1417 -0.3016 -0.0733
 6032W        W22106  12.019  18.062   2.129 -0.4263 -0.0489  0.2712
 6033W        W22107   7.632   0.859   1.152 -0.0767  0.1345 -0.3748
 6034W        W22108  12.568  16.287   2.129  0.2647  0.4445 -0.2884
 6035W        W22109   2.796   8.502   5.568  0.0378 -0.0539  0.2213
 6036W        W22110  10.965  17.251   3.618  0.0500  0.1830  0.3309
 6037W        W22111  15.009   0.268  13.772 -0.2558  0.0885 -0.0936
 6038W        W22112  16.628   9.792   3.058 -0.0202 -0.1311 -0.1637
 6039W        W22113  11.509  17.039  12.757  0.0429  0.1403  0.0882
 6040W        W22114   9.241   8.934  13.723 -0.0551  0.1732  0.0267
 6041W        W22115   4.077  14.819   4.484 -0.5024  0.1169  0.1326
 6042W        W22116   8.105   4.082   3.217  0.2090  0.0107  0.2339
 6043W        W22117  13.993  11.973  13.939 -0.0871 -0.0724 -0.0816
 6044W        W22118   9.310  11.761  11.873 -0.0961  0.0812 -0.0030
 6045W        W22119   2.873  18.134  14.203  0.0263  0.0986 -0.2416
 6046W        W22120   9.957  14.615  11.300 -0.2433  0.1202  0.0326
 6047W        W22121   1.116  14.254  15.971 -0.1896 -0.3199  0.1451
 6048W        W22122   8.236   7.714   0.465 -0.1204 -0.0146 -0.0653
 6049W        W22123   5.256   6.728   2.933 -0.0930  0.0671 -0.0332
 6050W        W22124   7.831   0.306  12.473  0.2708  0.2360  0.2468
 6051W        W22125   8.105   6.304  16.519  0.1966 -0.0195  0.0092
 6052W        W22126  10.717  11.726   3.532  0.1394 -0.2426 -0.1373
 6053W        W22127   1.402   4.039   3.999  0.1882 -0.2018  0.0528
 6054W        W22128  12.062  16.083   3.613 -0.0885 -0.2597 -0.3855
 6055W        W22129   9.317   6.793  14.410  0.0009 -0.3698 -0.2240
 6056W        W22130  11.441   5.588   1.502 -0.1101 -0.3183  0.0995
 6057W        W22131  15.544  15.490   2.598 -0.1269 -0.1350 -0.2987
 6058W        W22132  10.134   4.193   3.395 -0.0220  0.0598  0.1920
 6059W        W22133  12.030   4.182  14.050  0.2175 -0.1150  0.2766
 6060W        W22134  17.954   9.761   5.145 -0.4019  0.1254  0.2135
 6061W        W22135  11.568   1.586  15.852  0.0141  0.2367 -0.0018
 6062W        W22136  12.293   2.945   4.219  0.1248  0.0208  0.0242
 6063W        W22137   8.886   0.153   1.716 -0.2842 -0.1538  0.0285
 6064W        W22138   8.691   5.648  12.186  0.1039 -0.0220 -0.0174
 6065W        W22139   9.914   5.743  12.701  0.0053 -0.1052  0.3146
 6066W        W22140   8.116  14.385   5.460  0.0861  0.1268 -0.1712
 6067W        W22141  16.486   4.234  14.078 -0.1166  0.0941 -0.0067
 6068W        W22142   4.598  11.796  15.307 -0.0412  0.0033  0.0192
 6069W        W22143  12.548   5.230   0.722  0.1690 -0.0175  0.0912
 6070W        W22144  10.758  17.685   5.032 -0.0420 -0.3330  0.0627
 6071W        W22145  12.273  14.528  11.409 -0.0408 -0.0358  0.1096
 6072W        W22146   5.971   3.989   3.295 -0.0073 -0.1433 -0.0650
 6073W        W22147  16.133   3.516   4.943  0.0183 -0.1178 -0.1567
 6074W        W22148  14.235   7.684  14.764  0.0288 -0.1431  0.1940
 6075W        W22149   1.904  13.009   3.364  0.0984 -0.2296 -0.1824
 6076W        W22150   6.565   0.008  12.033  0.1941  0.2808  0.2792
 6077W        W22151   1.567   9.127  14.949  0.1846 -0.1283  0.2663
 6078W        W22152   4.589  14.556   1.332 -0.1048  0.0927 -0.2003
 6079W        W22153   6.636  17.793  16.200 -0.2799 -0.1289  0.3890
 6080W        W22154   7.559   9.025   4.621 -0.0831  0.1302  0.0932
 6081W        W22155   5.687   1.571  15.346  0.2293 -0.1372 -0.2832
 6082W        W22156   5.081  13.821   4.215  0.1275 -0.4215 -0.2491
 6083W        W22157  17.357  11.968   0.994  0.2365 -0.0622  0.2524
 6084W        W22158   1.641  16.814  12.337 -0.3108  0.2000 -0.3093
 6085W        W22159   0.885  18.140  12.453  0.0983  0.2287  0.2615
 6086W        W22160   9.599  13.952  10.892  0.2292 -0.1128 -0.4549
 6087W        W22161  10.825  13.353  13.508  0.0532 -0.2162  0.0468
 6088W        W22162   7.171  14.585  14.491  0.1006 -0.1537  0.1725
 6089W        W22163  15.734   4.389  14.652 -0.1596  0.1220  0.0534
 6090W        W22164   4.873  15.185   2.850 -0.2214  0.0701 -0.0478
 6091W        W22165   8.080  11.260  15.820 -0.0292  0.1088  0.0589
 6092W        W22166   5.303  10.140   2.056  0.1583  0.1854  0.6836
 6093W        W22167  17.421   4.547  16.344  0.1084 -0.0619  0.0958
 6094W        W22168  11.154  11.230  12.236  0.0581  0.0018 -0.2214
 6095W        W22169   4.235  13.767   3.732 -0.0493  0.0471 -0.2861
 6096W        W22170   5.655  18.157  15.356 -0.3253  0.1894 -0.2112
 6097W        W22171   2.658  10.030  13.555 -0.0497 -0.0013 -0.2530
 6098W        W22172  16.203  17.083   6.206  0.0230 -0.2787  0.1484
 6099W        W22173   6.633  17.263  11.988  0.0966  0.0744 -0.0801
 6100W        W22174  17.454   0.233  13.791  0.2588 -0.1744 -0.0794
 6101W        W22175   1.030  11.063   1.838  0.1061 -0.0152  0.0542
 6102W        W22176  14.005   4.756  16.296 -0.2683 -0.0919  0.1496
 6103W        W22177  12.117   0.419  13.455  0.1273 -0.0101  0.0777
 6104W        W22178  17.477  17.004  14.169  0.0143  0.0374  0.2460
 6105W        W22179  11.495   8.226  14.295  0.0301  0.1349  0.2311
 6106W        W22180   6.583  14.256   3.046  0.3532 -0.2796  0.0130
 6107W        W22181   1.019  16.383   2.170  0.2187  0.0079  0.2342
 6108W        W22182  10.906   1.817  13.210 -0.0374 -0.2247 -0.0957
 6109W        W22183  14.881  17.095  14.034 -0.0127 -0.1154  0.0157
 6110W        W22184   2.349  16.585  11.937 -0.2804  0.1001  0.1163
 6111W        W22185  15.022   6.270  13.593 -0.0646  0.1922  0.0459
 6112W        W22186   1.327  17.275   5.246 -0.1088 -0.0569  0.3657
 6113W        W22187   9.797   6.776   0.704  0.2854 -0.3149 -0.1802
 6114W        W22188   3.233  12.226  13.438 -0.1048  0.0868  0.0929
 6115W        W22189   2.789   0.648   3.418 -0.4420 -0.0003 -0.2545
 6116W        W22190  11.258   4.657   5.948 -0.1640  0.2278 -0.2178
 6117W        W22191   5.782   6.402   5.620 -0.0507 -0.2042 -0.1741
 6118W        W22192   6.789  14.254   4.125 -0.2423 -0.0513 -0.3977
 6119W        W22193   8.193   1.947   2.998  0.2739  0.1183 -0.1144
 6120W        W22194   8.500  17.267  16.185 -0.1340 -0.1811  0.2436
 6121W        W22195  14.647   1.441  12.916  0.0510  0.0942 -0.2926
 6122W        W22196  10.063  14.303  12.931 -0.1535  0.2315 -0.0939
 6123W        W22197  12.510  13.964   0.543 -0.0628 -0.0792 -0.2796
 6124W        W22198  10.543  12.991   0.483  0.0670  0.3785  0.0683
 6125W        W22199  18.124   3.327  16.499 -0.0592  0.0218  0.0305
 6126W        W22200  12.040  15.768  12.339 -0.4172 -0.1907 -0.0591
 6127W        W22201   7.927  13.836   1.159 -0.0567 -0.0229  0.4069
 6128W        W22202   3.978   6.643   1.045  0.0511  0.1692 -0.1909
 6129W        W22203   4.969  11.893  14.601  0.0472 -0.0375  0.1424
 6130W        W22204   5.034   8.011  14.774 -0.1938 -0.0226  0.3019
 6131W        W22205  17.037   1.078   1.836 -0.2410 -0.2733  0.0662
 6132W        W22206   3.169   3.187  15.131 -0.0969 -0.3351 -0.0455
 6133W        W22207   1.747  11.675  13.124 -0.0243  0.0200 -0.1860
 6134W        W22208   6.549   5.629   1.871  0.0881  0.1042  0.2724
 6135W        W22209  12.478   6.436   3.482  0.0530 -0.2741  0.2375
 6136W        W22210  17.098  16.131   4.308  0.2284  0.1730  0.0422
 6137W        W22211   5.519   4.756  14.357 -0.2971  0.1086  0.1096
 6138W        W22212  13.189   2.043  14.572  0.0816 -0.0778  0.2047
 6139W        W22213   2.131   3.867  14.003  0.3966 -0.2648  0.0057
 6140W        W22214  12.554   8.037   3.391 -0.1889  0.0552 -0.2896
 6141W        W22215   8.456   6.135  14.520  0.3088 -0.0469 -0.2679
 6142W        W22216   7.174  13.439  14.976  0.1361 -0.0721 -0.0680
 6143W        W22217   7.590  14.391  13.702 -0.2843 -0.2389  0.1348
 6144W        W22218   2.445  10.347   0.668  0.1479  0.2388  0.2666
 6145W        W22219   6.990  10.137   4.310  0.0914 -0.1624 -0.0181
 6146W        W22220  11.799  13.186  13.186  0.2056 -0.0412 -0.1375
 6147W        W22221   5.266   3.978   5.199  0.1194  0.2634  0.2347
 6148W        W22222   4.867   2.362   1.349 -0.4514 -0.2876  0.2309
 6149W        W22223  15.018  14.780   3.834 -0.2030  0.1375 -0.1910
 6150W        W22224   0.566  10.532   2.905 -0.1556 -0.1669  0.0477
 6151W        W22225  16.097  12.413   0.592  0.1066 -0.1744  0.2091
 6152W        W22226  16.465   6.478   5.412 -0.2067  0.4491 -0.3308
 6153W        W22227   8.468   5.060  16.515 -0.0796 -0.1793 -0.1501
 6154W        W22228   1.782   5.526  13.717 -0.0137 -0.2114  0.0808
 6155W        W22229   2.366   2.305  15.260  0.1515 -0.1229 -0.1795
 6156W        W22230  14.759  10.110   5.689  0.0270  0.1469  0.1151
 6157W        W22231   7.976  14.626  13.382 -0.1013 -0.0340 -0.0808
 6158W        W22232   5.323   6.503   3.332 -0.2495  0.1814 -0.2184
 6159W        W22233  11.262  11.246  15.406  0.0401  0.3623  0.0165
 6160W        W22234  13.185   7.537  11.726  0.2347  0.1392  0.0810
 6161W        W22235   6.868  13.529  14.233  0.1365 -0.1978  0.3366
 6162W        W22236  12.503   9.615   0.297  0.1008 -0.1020  0.0564
 6163W        W22237   3.800  12.852  15.711  0.1242 -0.0080  0.1429
 6164W        W22238  14.633  13.782  16.474  0.3568 -0.1007  0.0783
 6165W        W22239  17.478   1.621   2.793  0.1820 -0.2044 -0.3295
 6166W        W22240   7.564   3.834   5.032 -0.0686  0.2321 -0.0568
 6167W        W22241  13.057   3.789  14.855 -0.2344 -0.0899 -0.1081
 6168W        W22242  11.885  12.914   2.514 -0.0753 -0.1005 -0.0731
 6169W        W22243  18.108   0.852   0.698 -0.0781 -0.1127  0.2225
 6170W        W22244   1.194   6.420  13.752 -0.0520  0.0631 -0.3057
 6171W        W22245   7.339   7.809  15.669 -0.1148  0.1361 -0.5193
 6172W        W22246   3.826  12.780  16.264  0.0503 -0.2602 -0.0504
 6173W        W22247   4.244   6.848   5.189 -0.1510 -0.2256 -0.1026
 6174W        W22248   0.239  10.561   4.302  0.1276  0.1837 -0.2071
 6175W        W22249   9.414  18.152   5.006  0.0270  0.0993  0.0629
 6176W        W22250   5.598   1.949  13.016  0.1863  0.3052 -0.0137
 6177W        W22251  17.089  13.102   4.246 -0.2198 -0.1755 -0.0286
 6178W        W22252  11.329  16.639   2.461 -0.0173 -0.0865  0.1944
 6179W        W22253   3.903  10.644   1.262 -0.1469  0.0950  0.0810
 6180W        W22254  16.972  12.606   3.217  0.2417 -0.1637 -0.1326
 6181W        W22255   4.889   1.223  10.047  0.1437 -0.2926 -0.1427
 6182W        W22256  14.418  13.415  14.370  0.1516  0.0511 -0.0968
 6183W        W22257   4.893  12.341  14.827  0.0211  0.3558 -0.1867
 6184W        W22258   6.822  15.539   5.305 -0.0402 -0.1183 -0.1608
 6185W        W22259  18.073  16.383  13.564  0.0408  0.4525 -0.4617
 6186W        W22260  16.556   5.359   1.883 -0.1803 -0.2017 -0.0488
 6187W        W22261   7.129   3.756   5.579  0.0040  0.1659  0.2578
 6188W        W22262   2.885  15.428  16.503  0.0938 -0.0729 -0.1113
 6189W        W22263   2.154  13.923  16.119 -0.2173 -0.3860  0.1259
 6190W        W22264   2.565   8.080   3.992 -0.1318 -0.1798  0.0344
 6191W        W22265  10.013   2.622   0.622  0.1492 -0.1087 -0.3118
 6192W        W22266  10.891  18.144   0.019 -0.0317 -0.3000  0.0805
 6193W        W22267   1.680  16.940  13.181 -0.1702  0.1921 -0.1539
 6194W        W22268  11.217   0.320   4.271 -0.1749  0.3673  0.1749
 6195W        W22269  16.663   9.358  13.309 -0.0609  0.0557  0.1502
 6196W        W22270  16.012   5.975   4.606 -0.2283 -0.0190  0.1822
 6197W        W22271  14.237  11.805  15.936  0.3420 -0.2746  0.0818
 6198W        W22272  10.596   4.606   1.637  0.0658  0.1594 -0.0306
 6199W        W22273  12.478   1.069  16.326 -0.1983 -0.0811  0.1184
 6200W        W22274  10.304  12.214  12.698 -0.0301 -0.0524 -0.0613
 6201W        W22275   2.272  15.909  14.563  0.3549 -0.1350  0.0361
 6202W        W22276  14.455  13.729  12.352 -0.3276  0.2331 -0.2471
 6203W        W22277   5.618  17.085   5.085  0.1121 -0.0115  0.0565
 6204W        W22278  16.392  10.422  10.937  0.1417 -0.1182 -0.0777
 6205W        W22279  11.419  11.699   5.575 -0.2204 -0.2014 -0.1606
 6206W        W22280   1.903  17.317   4.903  0.0122  0.2072 -0.1982
 6207W        W22281  17.333  14.144  13.457  0.1364  0.4622 -0.2413
 6208W        W22282   8.854   0.323   1.230 -0.2604  0.1614 -0.1664
 6209W        W22283   6.051  11.230   4.069 -0.0677 -0.0519 -0.3434
 6210W        W22284  12.763  11.767   5.402  0.1328  0.1882  0.2655
 6211W        W22285   1.978   6.659  16.403 -0.0344 -0.2203  0.0258
 6212W        W22286  16.637   9.042   5.415 -0.3085 -0.0973 -0.0541
 6213W        W22287  11.303   4.731  15.009  0.1135 -0.1985  0.2367
 6214W        W22288  18.221   6.929  15.638  0.2859  0.2572 -0.0703
 6215W        W22289  16.048   2.736   1.118 -0.1257  0.2298  0.1861
 6216W        W22290   4.520  14.022  12.232  0.1296  0.2914 -0.0473
 6217W        W22291  12.159  16.242   4.981 -0.1986  0.0571 -0.0720
 6218W        W22292   5.866  12.114  12.693  0.0977 -0.3189  0.0312
 6219W        W22293   9.037  16.438  13.342  0.1559  0.2761 -0.1750
 6220W        W22294   2.328   6.329   4.033  0.0255  0.0226  0.1447
 6221W        W22295  15.586  14.808   5.333  0.0530 -0.3030  0.0237
 6222W        W22296   4.005   9.505   4.125 -0.2133 -0.2399  0.0587
 6223W        W22297  12.074   9.897   1.323 -0.0866  0.0577 -0.1891
 6224W        W22298  12.152   6.062  12.642 -0.2395 -0.1264 -0.1573
 6225W        W22299   5.135   3.260   4.657  0.0567 -0.3360  0.0348
 6226W        W22300   5.932   4.637   1.926  0.0771  0.1478  0.0267
 6227W        W22301  13.982  14.694   3.570 -0.3454 -0.2825  0.3245
 6228W        W22302  17.315   2.323  12.839 -0.1169  0.1879  0.1312
 6229W        W22303  11.303  17.687  15.733 -0.3689 -0.0572 -0.2521
 6230W        W22304  18.110   0.886   2.560  0.1853  0.0428  0.0287
 6231W        W22305   8.809  12.824  12.989 -0.1064  0.1336  0.1490
 6232W        W22306   7.379  13.242   2.070  0.1416 -0.2616  0.1506
 6233W        W22307  15.533   4.816   1.901 -0.4514  0.2732 -0.0003
 6234W        W22308  12.847   9.184   5.941  0.0984  0.1639  0.3375
 6235W        W22309   8.042  13.014   0.303 -0.0024 -0.3278  0.1576
 6236W        W22310  17.891  13.430   0.728  0.3061  0.0477  0.1750
 6237W        W22311  14.758   6.182  15.081  0.1713 -0.1235  0.2504
 6238W        W22312  14.401   7.589  16.420  0.0863  0.3396  0.0801
 6239W        W22313  10.400  16.252   2.210 -0.0269 -0.0855 -0.0557
 6240W        W22314  14.491  16.264  13.719 -0.1334 -0.0841 -0.3286
 6241W        W22315  13.948  11.477   2.662 -0.1930 -0.0644 -0.0529
 6242W        W22316   5.813  12.344   2.380  0.4326 -0.1255  0.2207
 6243W        W22317   0.344   3.591   1.466  0.3228 -0.1516 -0.3177
 6244W        W22318   3.890  16.413  12.932 -0.0062  0.1334 -0.1641
 6245W        W22319   5.938   5.568   0.603 -0.0649  0.0968  0.4434
 6246W        W22320   3.004  13.576  11.541 -0.0710  0.0019 -0.0829
 6247W        W22321  12.701  12.921   3.072  0.2273 -0.1758 -0.2348
 6248W        W22322   2.527  16.904   4.638  0.3114  0.0934 -0.1048
 6249W        W22323   7.106  14.526   3.023  0.1704 -0.0160 -0.2193
 6250W        W22324   3.482  15.204   6.110 -0.2275 -0.2239  0.1351
 6251W        W22325   4.825  14.336   4.983  0.2079  0.3590 -0.0816
 6252W        W22326  10.686   3.192   1.543  0.0706  0.4099 -0.1506
 6253W        W22327   9.385  15.332  15.328  0.0639  0.1586  0.3992
 6254W        W22328  11.093   3.345   5.537  0.0535  0.1147  0.4910
 6255W        W22329  16.653  13.559  15.320 -0.0210 -0.0757 -0.0954
 6256W        W22330  11.714   2.996   4.419 -0.0519 -0.1766 -0.0338
 6257W        W22331   9.741  15.414   0.461 -0.1515  0.0233  0.0188
 6258W        W22332  11.972   2.891   1.405  0.0573  0.2712  0.0399
 6259W        W22333  16.442  14.695  13.581  0.2829 -0.0221  0.0112
 6260W        W22334  17.371  10.672   2.325 -0.1546  0.1030  0.1108
 6261W        W22335   9.294   8.966   4.610 -0.0812  0.1575  0.0180
 6262W        W22336  17.402   9.437   1.360 -0.2914 -0.2625  0.1409
 6263W        W22337   9.981  12.149  15.584  0.0020  0.1259  0.1137
 6264W        W22338  18.159   9.515  14.246  0.0801  0.3228 -0.1572
 6265W        W22339  10.111   6.817  15.411  0.2195 -0.1331 -0.2670
 6266W        W22340  11.411   8.794  11.540 -0.1096  0.1397  0.1168
 6267W        W22341  12.810   5.788   1.681 -0.3067  0.2574 -0.0198
 6268W        W22342  10.065  13.221   0.469 -0.1179 -0.3875 -0.2268
 6269W        W22343   6.865  15.918  13.336 -0.1394  0.2862 -0.2762
 6270W        W22344   7.024  12.894  15.710  0.1305  0.3312  0.1085
 6271W        W22345  11.832   8.899   5.505 -0.3217  0.0922  0.1411
 6272W        W22346  17.764   1.978   5.559  0.2122 -0.1903  0.3837
 6273W        W22347  17.467  17.994   2.466 -0.1703  0.2071  0.4138
 6274W        W22348   9.990   3.858  15.544  0.2134 -0.0816 -0.3596
 6275W        W22349   7.031   1.248   1.811 -0.1483  0.0900 -0.1406
 6276W        W22350   7.487  15.408  16.440 -0.0130 -0.3656 -0.2796
 6277W        W22351  15.720  12.506   5.142  0.1320 -0.1455 -0.1527
 6278W        W22352   2.283   1.259  11.492 -0.1400 -0.2554  0.0189
 6279W        W22353   1.860  13.473  16.180  0.0948 -0.1428 -0.0371
 6280W        W22354  11.400  13.839  13.212 -0.1437  0.0430 -0.1684
 6281W        W22355  13.847   7.558  15.486 -0.1081 -0.2006 -0.3765
 6282W        W22356  11.033   4.203   2.072 -0.1795 -0.4426 -0.0622
 6283W        W22357   3.123   1.017   3.158 -0.1934  0.2651 -0.2720
 6284W        W22358  16.132   6.679  13.190 -0.0029 -0.0812  0.3538
 6285W        W22359   3.989   1.455   0.360  0.0534 -0.1810 -0.2075
 6286W        W22360   3.728  10.365   1.683  0.0256 -0.3097 -0.0170
 6287W        W22361   9.671   2.559  15.111 -0.1805  0.1810  0.0377
 6288W        W22362   7.694  15.674   0.761 -0.0644 -0.0147  0.2473
 6289W        W22363  13.520  11.071   4.518  0.0070 -0.3548  0.0750
 6290W        W22364  17.674   7.901   2.792 -0.3605 -0.2807 -0.0506
 6291W        W22365   0.867  16.782   3.056  0.1228  0.0914  0.2402
 6292W        W22366   4.254  16.187   3.219 -0.0421  0.0908 -0.1360
 6293W        W22367  11.659   5.662  15.209  0.4456  0.2722 -0.1228
 6294W        W22368   6.692  10.952   4.114 -0.0865  0.0461  0.0873
 6295W        W22369  12.393   4.318   3.726  0.2974 -0.1128  0.0794
 6296W        W22370  16.857   8.062   4.008  0.0741 -0.0786 -0.0904
 6297W        W22371   6.472   5.964   5.937 -0.1000 -0.2794  0.0255
 6298W        W22372  11.459  14.538   4.616 -0.1388 -0.3228 -0.0462
 6299W        W22373  13.482   8.005  11.640 -0.0041 -0.1322  0.0873
 6300W        W22374   0.011  15.529  12.466 -0.4033  0.2113 -0.2130
 6301W        W22375  10.637  10.874   0.568 -0.3399  0.2265  0.1953
 6302W        W22376  11.459  16.015   1.928 -0.1365 -0.0910 -0.2323
 6303W        W22377   5.975   9.673   6.367 -0.3925 -0.0357 -0.1013
 6304W        W22378  14.455  11.953   5.613 -0.0502 -0.1624  0.0486
 6305W        W22379  10.357  14.327   1.344 -0.2685  0.0542 -0.0047
 6306W        W22380   8.942  10.578  12.440  0.2463  0.1541  0.0426
 6307W        W22381  14.819   1.175   5.516 -0.2147 -0.1411 -0.2462
 6308W        W22382  16.858   7.272   3.518  0.0637 -0.0084  0.0594
 6309W        W22383   7.767  10.291  13.519  0.0433 -0.1203  0.4369
 6310W        W22384  11.963  17.610  11.382 -0.4215  0.0765 -0.0187
 6311W        W22385   7.354   6.980   6.136 -0.0542 -0.1345 -0.1105
 6312W        W22386   8.751   8.312   1.087  0.2508  0.0516 -0.1365
 6313W        W22387  14.117   5.435   2.793  0.0439  0.0637 -0.1561
 6314W        W22388   6.981   2.007   1.068  0.5418  0.0170  0.0048
 6315W        W22389  12.852   0.408  12.430 -0.2782  0.3116  0.0176
 6316W        W22390   7.019  15.934   4.203 -0.0821  0.1365  0.1034
 6317W        W22391   6.308   3.672   4.948  0.2286  0.0527  0.1468
 6318W        W22392   6.303   7.161   5.239 -0.1893  0.1498  0.2942
 6319W        W22393  14.165   3.785  15.319 -0.0077  0.0086 -0.1617
 6320W        W22394   2.724  12.496   3.155  0.2693  0.0379 -0.2269
 6321W        W22395  11.694   8.413  15.588 -0.0287  0.4804 -0.1046
 6322W        W22396   9.038  13.106  12.126  0.0140 -0.0190 -0.2853
 6323W        W22397   8.082  13.242  15.393 -0.2238  0.0515 -0.1813
 6324W        W22398  13.384  12.619   1.338  0.0660  0.1427 -0.0771
 6325W        W22399   5.181  15.505   0.492 -0.0221  0.0220 -0.2480
 6326W        W22400  14.863   7.254   2.577 -0.0988  0.0047 -0.0319
 6327W        W22401   3.206  16.280  14.576 -0.1060 -0.1636 -0.0752
 6328W        W22402  10.067   5.117  12.923  0.2039  0.0151  0.2347
 6329W        W22403   7.013   8.569  15.297  0.0707 -0.2367 -0.0753
 6330W        W22404   4.819  15.582   2.258  0.1401  0.0079  0.0757
 6331W        W22405   5.358  10.642  12.651  0.0532 -0.1695 -0.1031
 6332W        W22406   8.285   3.374   0.582  0.0822 -0.1427  0.2533
 6333W        W22407   5.243  10.740   4.324 -0.1892  0.0099  0.1800
 6334W        W22408   5.287   6.158   2.880 -0.2185  0.0024 -0.0409
 6335W        W22409   2.805   0.879   1.846  0.0880  0.1335  0.0659
 6336W        W22410   0.923   6.184  14.881 -0.0117 -0.0399  0.0365
 6337W        W22411   3.354  13.075   4.285 -0.1298  0.1554  0.2838
 6338W        W22412   6.009   0.992   1.881 -0.0930  0.1504 -0.0083
 6339W        W22413   1.751  16.184  11.238 -0.5808  0.0295 -0.0185
 6340W        W22414   3.535   6.157  15.663 -0.0573 -0.0407 -0.3393
 6341W        W22415  12.157   7.210  14.004 -0.1341  0.1833  0.1158
 6342W        W22416  10.031   5.822   2.439 -0.1810 -0.2237 -0.1610
 6343W        W22417   4.234   4.408   0.684 -0.0693  0.3027  0.1090
 6344W        W22418   8.907  13.717   3.992  0.1773  0.1364  0.0653
 6345W        W22419   5.170  10.551  11.654 -0.4288  0.0023 -0.1362
 6346W        W22420   8.750   3.027   4.133  0.0403  0.2816 -0.2125
 6347W        W22421   9.648  11.136  13.083 -0.0265  0.0665 -0.3383
 6348W        W22422   5.691   0.750   2.181 -0.1124  0.4208 -0.4472
 6349W        W22423   3.815  13.888  12.733 -0.1721 -0.2203 -0.0453
 6350W        W22424   3.092   4.826   4.233  0.0427 -0.0635  0.1812
 6351W        W22425  15.593   4.112   4.257 -0.1354  0.3410  0.0952
 6352W        W22426   8.321  13.407   3.242 -0.0393 -0.0520  0.1026
 6353W        W22427  15.909  11.709   0.910 -0.0618  0.0109 -0.0975
 6354W        W22428  13.279   3.313  13.477  0.1430 -0.1038 -0.1627
 6355W        W22429   5.536  14.637   6.146 -0.0433  0.2092 -0.0124
 6356W        W22430   4.215   1.911   2.951 -0.0877  0.2731  0.2357
 6357W        W22431   3.327  14.844   3.243  0.0164  0.0935  0.1707
 6358W        W22432   4.715   3.372   4.130  0.1052  0.0979  0.3761
 6359W        W22433  12.844   7.543   0.397 -0.1070 -0.2000 -0.1627
 6360W        W22434   5.859   3.522   5.586 -0.0926  0.0359 -0.2829
 6361W        W22435   3.507  17.537  13.684  0.0535 -0.3602 -0.1163
 6362W        W22436   3.356   5.324   1.875  0.1216  0.3984 -0.2436
 6363W        W22437  10.901   9.919   5.057  0.1757  0.0334 -0.0971
 6364W        W22438   6.172   0.506  13.472 -0.1799  0.1582  0.3740
 6365W        W22439  16.329  12.500  13.561  0.1614 -0.1400  0.0425
 6366W        W22440  10.142  17.783   6.114  0.0873 -0.0290  0.0837
 6367W        W22441   7.300  12.308  13.156  0.1472  0.0905 -0.0563
 6368W        W22442   8.473  15.635  15.840 -0.1262  0.0542  0.1704
 6369W        W22443  15.873   6.142   3.352 -0.1024  0.0479 -0.1235
 6370W        W22444  13.459  16.103   1.999  0.1815  0.0807  0.0045
 6371W        W22445   0.642   6.357  15.267  0.1159  0.0332  0.0173
 6372W        W22446   5.568  13.422   0.043 -0.1693  0.3307 -0.0133
 6373W        W22447  11.789   8.914   2.836  0.1140  0.2987  0.1259
 6374W        W22448   3.541  12.186   4.206 -0.0749 -0.1793  0.3205
 6375W        W22449  17.275  13.991   1.231  0.2115  0.3906  0.0737
 6376W        W22450  17.649   4.245  12.883  0.0964  0.2415 -0.1769
 6377W        W22451   3.145   9.126  11.343 -0.5588  0.1885 -0.2443
 6378W        W22452   1.576  17.881   4.499  0.0700  0.0233  0.0813
 6379W        W22453   2.952  12.808   0.187 -0.1890  0.2431  0.0060
 6380W        W22454   5.159   9.576  13.439  0.1230  0.2176  0.0135
 6381W        W22455   0.400   0.161   5.750  0.1882 -0.1196  0.1256
 6382W        W22456  11.832   9.036  13.021  0.0286  0.1857 -0.2161
 6383W        W22457   9.874   4.292  12.363  0.0671  0.1154  0.1128
 6384W        W22458   1.149   4.402   3.009 -0.1525  0.2499 -0.0427
 6385W        W22459   0.169  13.234  13.071  0.2389  0.3477  0.3825
 6386W        W22460  15.250   7.706  14.308  0.1893  0.0312 -0.0024
 6387W        W22461   9.383  16.338  12.993 -0.1691 -0.0049 -0.0777
 6388W        W22462   0.848   5.556  12.456 -0.0332 -0.1781  0.3594
 6389W        W22463  16.832  16.701   2.699  0.0412 -0.0353 -0.1823
 6390W        W22464   0.561   5.945   3.142 -0.2558 -0.1676  0.0117
 6391W        W22465  14.200  11.890   2.663 -0.1829  0.1271  0.0095
 6392W        W22466   9.204   1.434   4.224 -0.2493  0.0893  0.1160
 6393W        W22467   3.372  15.029  15.051  0.0313  0.0986 -0.1774
 6394W        W22468  15.955   4.321   2.650 -0.0475  0.0668  0.0165
 6395W        W22469   7.918  14.883   3.287  0.2586  0.0735  0.1461
 6396W        W22470   0.247  11.654  14.965  0.1462  0.0748  0.0807
 6397W        W22471   6.470   7.719  13.368  0.2366  0.1079  0.1211
 6398W        W22472   7.351  15.580   3.017  0.0313 -0.0695 -0.2268
 6399W        W22473   7.358  15.374   4.986 -0.0162  0.1612  0.3164
 6400W        W22474   1.852   8.854  12.175  0.2293  0.3530 -0.1571
 6401W        W22475   4.289  17.721   0.560 -0.2824 -0.0365  0.1757
 6402W        W22476  13.913   7.755  12.494 -0.1699  0.0294  0.0121
 6403W        W22477   8.787   1.868  13.508  0.0337 -0.2299 -0.2052
 6404W        W22478   3.001  14.213   4.420 -0.3035  0.3685 -0.1097
 6405W        W22479  16.053   9.430  14.075  0.3637 -0.4658 -0.2133
 6406W        W22480   5.045   4.760   2.568  0.1802 -0.0942 -0.0210
 6407W        W22481  17.328  14.529  12.213  0.2415 -0.0218  0.1669
 6408W        W22482  16.692  17.516   4.665 -0.3338  0.0450  0.3505
 6409W        W22483  14.944  11.194  11.640 -0.2314 -0.1112  0.0950
 6410W        W22484  12.875  12.478   1.231  0.2006  0.0019 -0.0923
 6411W        W22485  11.116  12.710   1.813 -0.3973 -0.4528  0.0714
 6412W        W22486   4.160   4.560  14.476  0.1275  0.5026  0.2041
 6413W        W22487  15.229   3.650  10.954  0.1168  0.2372 -0.1901
 6414W        W22488  13.164   4.274   2.136  0.2026 -0.1293 -0.1600
 6415W        W22489   6.717  16.699   2.786  0.4045 -0.1872  0.0269
 6416W        W22490   7.153   4.851   0.319 -0.5027  0.1524 -0.0610
 6417W        W22491   0.719  14.387   0.444  0.1277 -0.0385 -0.0102
 6418W        W22492  14.102  15.943  16.376  0.0937 -0.0812 -0.3271
 6419W        W22493  11.797   8.233  11.783 -0.0917  0.1144  0.1455
 6420W        W22494  13.228  16.188  12.356  0.1862  0.3380  0.0556
 6421W        W22495   5.276  12.129   5.762  0.2200 -0.2006 -0.2611
 6422W        W22496  16.570  12.966  14.539  0.2822 -0.1496  0.0973
 6423W        W22497   5.324   7.880  12.681 -0.0712  0.0748  0.2000
 6424W        W22498  17.638  16.919   1.838 -0.0707 -0.1699  0.0822
 6425W        W22499  16.249   4.663   0.196  0.0606 -0.2086  0.1494
 6426W        W22500   5.582  10.052  15.861 -0.0419  0.3443 -0.0810
 6427W        W22501  17.267   9.680  15.475 -0.1033  0.1368  0.1208
 6428W        W22502  16.401  16.256  11.220  0.0067 -0.0553 -0.0739
 6429W        W22503   9.494  14.241   1.008 -0.4248 -0.2592  0.3163
 6430W        W22504  11.168   4.983   6.443  0.2184 -0.0379 -0.1127
 6431W        W22505  14.240   2.562  12.616 -0.2214  0.0225  0.1962
 6432W        W22506   7.505   7.746   2.067 -0.0033  0.1600  0.1213
 6433W        W22507  11.943  11.820  14.461  0.0673  0.1013 -0.3334
 6434W        W22508   6.163  11.385  13.278 -0.1776 -0.0051 -0.0689
 6435W        W22509  14.900  17.991  13.880 -0.0562  0.0069 -0.1416
 6436W        W22510   1.481   4.194   0.590 -0.0017 -0.2199  0.1418
 6437W        W22511   6.193   8.018  16.360  0.0672  0.1534  0.2714
 6438W        W22512   5.600   0.134  14.130 -0.0264 -0.1691 -0.1264
 6439W        W22513  17.720  16.769  13.211 -0.1736  0.2066  0.1752
 6440W        W22514   1.937   5.322   6.107 -0.2405  0.3237 -0.2505
 6441W        W22515  12.034   7.111   3.760  0.2169  0.0038 -0.1827
 6442W        W22516   0.253  14.720   6.003  0.6346  0.2700  0.0654
 6443W        W22517   3.082   8.322   5.988 -0.1443  0.0646 -0.0621
 6444W        W22518  10.762   5.990  14.919 -0.4601  0.1604 -0.2342
 6445W        W22519  11.430  12.378   1.719  0.0616 -0.3222 -0.1525
 6446W        W22520  12.778  11.900   0.874 -0.1979  0.2436  0.0457
 6447W        W22521   3.049   1.126   1.045 -0.0246 -0.3409 -0.2574
 6448W        W22522   4.957   3.334  15.276  0.1653 -0.1170 -0.5065
 6449W        W22523   6.194   3.587   3.072 -0.0785 -0.0760  0.0304
 6450W        W22524  10.373   6.615   4.294  0.1274  0.0090  0.1793
 6451W        W22525   2.425  15.506  16.374  0.3130  0.0757  0.1659
 6452W        W22526  11.738  15.898  14.487 -0.0921  0.3460 -0.0895
 6453W        W22527  15.607   2.888   3.348  0.1732  0.1053 -0.0590
 6454W        W22528   3.323  18.115  13.779  0.1446 -0.0002 -0.0355
 6455W        W22529  10.588  16.318   1.682  0.0939  0.0334  0.1347
 6456W        W22530  12.470  15.820  11.885 -0.0463 -0.1629  0.2103
 6457W        W22531   0.126  14.090  11.194 -0.2537 -0.0480 -0.0063
 6458W        W22532  15.388   9.569  14.553  0.2198  0.0730  0.2462
 6459W        W22533   5.947  11.772  14.513 -0.2097 -0.0969 -0.0406
 6460W        W22534  10.556   5.668  10.883 -0.1305 -0.2746 -0.2047
 6461W        W22535   8.692   4.570  15.834 -0.5016 -0.0079  0.0152
 6462W        W22536   5.669   6.435   3.720 -0.1209 -0.2980  0.0011
 6463W        W22537  11.006  13.426  14.704 -0.2520 -0.1652 -0.2631
 6464W        W22538  18.127   3.831   2.674  0.0945 -0.1011 -0.1035
 6465W        W22539   3.060  10.270  14.872  0.2198 -0.2921  0.3147
 6466W        W22540  17.648  11.032  10.847  0.4980 -0.1325 -0.2261
 6467W        W22541   9.764   5.376   5.744  0.1793  0.0958  0.1041
 6468W        W22542   6.025   7.063   0.097 -0.0891 -0.0991  0.0628
 6469W        W22543  17.688  15.773  12.866  0.3538 -0.1566 -0.0359
 6470W        W22544  13.533   5.361  16.148 -0.1109 -0.0736  0.2194
 6471W        W22545  11.762  17.690   1.134 -0.1723  0.0523 -0.0885
 6472W        W22546   3.297   9.716  15.370 -0.0986  0.1872 -0.0829
 6473W        W22547   5.925  12.776   4.801  0.1212  0.0469  0.1644
 6474W        W22548  16.545   0.582  15.662  0.1902 -0.1028  0.0876
 6475W        W22549   5.268   2.222  14.623  0.0291 -0.0786 -0.0963
 6476W        W22550   1.917   7.523  11.528  0.0394  0.1153  0.0153
 6477W        W22551  11.753   4.074   4.335 -0.0846  0.0049  0.1199
 6478W        W22552  10.133   8.537   1.161 -0.0019  0.2411  0.2016
 6479W        W22553   7.977  12.120   1.522 -0.3629  0.1273  0.1003
 6480W        W22554  14.362  10.653   5.098 -0.1592 -0.2487 -0.1018
 6481W        W22555  14.704   2.261   3.508  0.3045  0.1559 -0.0220
 6482W        W22556  15.819   0.526   2.078 -0.1408  0.0209 -0.1377
 6483W        W22557   8.963   8.863   2.448 -0.0725 -0.1700  0.1051
 6484W        W22558   0.721   2.237  11.748  0.0818  0.2773 -0.3786
 6485W        W22559   6.648   8.800  14.924  0.1005  0.1699  0.3366
 6486W        W22560  16.374   6.467  14.091  0.0525  0.1171  0.0941
 6487W        W22561   2.490  12.507  14.193  0.0966 -0.0402 -0.3452
 6488W        W22562  14.337   2.359  11.443  0.0122  0.0654  0.0750
 6489W        W22563   6.240  16.841  16.127  0.0360  0.0007 -0.2441
 6490W        W22564   8.738  15.859   2.846  0.1189 -0.1178 -0.0997
 6491W        W22565  13.921  14.797   4.526 -0.0784  0.0124 -0.0624
 6492W        W22566   1.423  11.312  11.808 -0.1535 -0.0317  0.0147
 6493W        W22567   0.599   9.726  13.712 -0.0166 -0.0522  0.0900
 6494W        W22568   5.869   9.425  14.463  0.0687 -0.1378  0.0559
 6495W        W22569   7.746   1.639  12.028 -0.1199  0.0811 -0.1366
 6496W        W22570  17.324  11.405  16.088  0.0344 -0.1448 -0.1346
 6497W        W22571  18.087  10.587   1.277  0.0743 -0.0239  0.1737
 6498W        W22572  15.893   6.131  12.374  0.0802  0.2019 -0.0919
 6499W        W22573  14.823   5.882  16.390  0.1223 -0.0712 -0.1429
 6500W        W22574   2.036  10.779  12.360  0.2049  0.1409  0.1481
 6501W        W22575   4.433  13.287   0.983  0.0417 -0.3940 -0.0229
 6502W        W22576   9.666   3.503  15.661 -0.2048 -0.1885 -0.2384
 6503W        W22577  18.041  14.511  11.355 -0.0192 -0.2119  0.2087
 6504W        W22578   9.911  12.212   1.565 -0.1244 -0.3053  0.2387
 6505W        W22579   0.652  12.701   0.863 -0.1516  0.0459  0.0554
 6506W        W22580  11.539  12.381  12.734  0.0635 -0.0948  0.3680
 6507W        W22581  17.857  11.717  11.734 -0.2234  0.1042 -0.3694
 6508W        W22582  10.330   2.321   3.045  0.0841 -0.1734  0.0066
 6509W        W22583  16.733  17.282  12.819  0.0913  0.0653 -0.0661
 6510W        W22584  15.610  12.343   3.185 -0.4637  0.0409 -0.3062
 6511W        W22585   3.011  11.734  12.287  0.0576 -0.1981 -0.0922
 6512W        W22586  13.716   8.083   1.146  0.1891 -0.0772  0.2653
 6513W        W22587  10.106  10.831  12.965 -0.1349  0.1243  0.0381
 6514W        W22588  14.269  13.625  11.892  0.1488 -0.0573  0.2861
 6515W        W22589   5.648  17.993   1.028  0.0261 -0.2577  0.4429
 6516W        W22590  16.911  14.942  14.854  0.2097 -0.3077 -0.3922
 6517W        W22591  16.274   5.653   0.185 -0.0376  0.0736  0.0087
 6518W        W22592   8.623  13.587   5.680  0.1276  0.1863  0.0870
 6519W        W22593   2.132   1.405   1.579 -0.0357  0.0846  0.1331
 6520W        W22594   3.411  11.662  16.329  0.2540  0.1138 -0.0008
 6521W        W22595   7.058  12.576  13.828  0.0208  0.0465 -0.0949
 6522W        W22596   2.319   2.954   3.833 -0.4142 -0.2520 -0.0007
 6523W        W22597   0.373   3.049  11.715 -0.0194 -0.2741  0.3241
 6524W        W22598  16.409   6.727  11.956 -0.1599 -0.1807 -0.0925
 6525W        W22599   5.266   7.466  12.405  0.1883  0.1779  0.2135
 6526W        W22600   4.716  11.859   0.670  0.2489 -0.1671 -0.0409
 6527W        W22601   6.758  16.355  12.767 -0.3648 -0.3888 -0.4040
 6528W        W22602   7.932  13.803  12.959 -0.3172 -0.0444 -0.2995
 6529W        W22603  12.511   9.434  13.553  0.0511  0.1520  0.0518
 6530W        W22604  18.169   8.852  11.262  0.2556 -0.1553  0.0420
 6531W        W22605   4.104  16.505   1.878  0.2907 -0.2197 -0.3375
 6532W        W22606   0.367   4.967  13.074 -0.0291  0.1516 -0.2432
 6533W        W22607   4.781  16.295  13.088 -0.2773 -0.2643  0.2783
 6534W        W22608   3.282   2.001  13.509  0.0188  0.2384 -0.2175
 6535W        W22609  17.183  11.743  11.175  0.0282  0.2380  0.0249
 6536W        W22610  17.213  16.128   1.590  0.1771  0.0795 -0.0123
 6537W        W22611   9.066   9.827   4.511  0.1462  0.2118 -0.0499
 6538W        W22612   3.952   5.679  12.117  0.0585  0.1191  0.1044
 6539W        W22613  16.055   6.404  13.722  0.0121  0.0884 -0.0058
 6540W        W22614   6.493   6.132   4.112  0.0819  0.1199  0.2661
 6541W        W22615   5.436   1.685  13.376 -0.1585  0.0151  0.2461
 6542W        W22616   4.052  15.168  11.920 -0.2920 -0.3092  0.3327
 6543W        W22617   6.148   4.966   5.474 -0.2146 -0.2590  0.3105
 6544W        W22618   9.325   2.953  12.853  0.0796 -0.2992 -0.1813
 6545W        W22619  16.520   4.340  16.463  0.1029  0.0763  0.0444
 6546W        W22620   6.539  12.540  15.514  0.0549 -0.0734  0.2773
 6547W        W22621  11.426  17.162   3.312  0.0147  0.1654  0.2270
 6548W        W22622  11.741   3.727   4.922 -0.1557  0.0171 -0.1090
 6549W        W22623   8.279   5.558  12.453  0.2527 -0.0765 -0.1885
 6550W        W22624  15.418   3.228  13.410 -0.2970  0.0889  0.2709
 6551W        W22625   0.999   3.661  13.218 -0.0608 -0.0496  0.0398
 6552W        W22626  13.969   7.277   3.931 -0.1132  0.4608 -0.1856
 6553W        W22627  17.474   6.606  15.556  0.0748 -0.0666 -0.0450
 6554W        W22628  10.586  14.921  12.379  0.0848 -0.0316 -0.1486
 6555W        W22629  13.116   5.969   5.471 -0.3262 -0.1003 -0.2392
 6556W        W22630   9.300  10.015  14.423  0.4122 -0.2554  0.0836
 6557W        W22631   1.368   3.071   3.938 -0.0338 -0.1566 -0.2114
 6558W        W22632   8.587   8.893   6.226 -0.2887 -0.0847 -0.1123
 6559W        W22633  11.689  10.351   5.310 -0.0017 -0.2220  0.1461
 6560W        W22634  11.114   1.789  13.654 -0.0479  0.1926 -0.2999
 6561W        W22635  15.094  16.636   5.317 -0.0508  0.0614  0.3987
 6562W        W22636   2.556  10.127   4.094 -0.3139  0.0819  0.1060
 6563W        W22637   0.369   3.827  13.939  0.0285  0.0792  0.0792
 6564W        W22638   6.750  13.035  13.669 -0.3707 -0.0770 -0.0400
 6565W        W22639   4.649  17.040  11.952 -0.0401  0.2958 -0.0778
 6566W        W22640  11.520   5.501  14.457 -0.0403 -0.0027 -0.0977
 6567W        W22641  17.313  18.200  10.475  0.0815 -0.0262  0.0879
 6568W        W22642  16.435   2.669   1.398  0.0492  0.2388  0.3417
 6569W        W22643   8.000   4.543   3.036  0.2061  0.2965  0.0524
 6570W        W22644   7.925   1.936  14.042  0.0475 -0.0330  0.1695
 6571W        W22645  17.001   4.746  14.776 -0.1030  0.1713 -0.0038
 6572W        W22646  13.239   3.878   3.537 -0.2370  0.0025  0.0524
 6573W        W22647   9.672   8.591  11.571  0.1073 -0.1732  0.1275
 6574W        W22648  16.447  13.173   1.282  0.0889 -0.2985 -0.1334
 6575W        W22649   7.782   4.962   5.009  0.0353  0.0738  0.0431
 6576W        W22650  15.948  13.681   1.302 -0.0170 -0.1235 -0.2542
 6577W        W22651   2.951   6.046   0.735 -0.2321 -0.1067  0.1506
 6578W        W22652   6.936  16.548   5.474 -0.0202 -0.0019  0.1500
 6579W        W22653   8.878   1.155   3.967 -0.0728 -0.0882 -0.2924
 6580W        W22654   9.734  12.981  12.623  0.2366 -0.1472  0.0266
 6581W        W22655  18.168  17.246   5.748  0.3586  0.3583 -0.2623
 6582W        W22656   3.124   2.473   3.426  0.0752 -0.2402  0.1380
 6583W        W22657   8.510   1.603   5.482  0.0672 -0.4439 -0.1925
 6584W        W22658   3.520   9.982   3.028  0.1594 -0.2389  0.0184
 6585W        W22659   6.068   0.078   4.747  0.1694  0.1050 -0.3490
 6586W        W22660   2.381   1.255  16.387  0.2918 -0.3454  0.0425
 6587W        W22661  10.071   4.680   1.674 -0.2147 -0.3139  0.0609
 6588W        W22662   3.427   3.498  12.358 -0.0993 -0.2932 -0.0812
 6589W        W22663   8.575   0.824  14.622  0.0550  0.0829  0.0676
 6590W        W22664  14.600   1.374  11.564 -0.3348 -0.1398 -0.2247
 6591W        W22665  16.902  16.144  15.230  0.2233  0.1032  0.0512
 6592W        W22666   2.415   0.023   1.278  0.1787  0.2169  0.0741
 6593W        W22667  13.297  12.834   6.024 -0.0797  0.0166  0.1830
 6594W        W22668   9.988  15.380   1.858  0.1289  0.0201  0.1215
 6595W        W22669  14.826  14.232  16.395  0.0474  0.1395  0.0211
 6596W        W22670  15.497  13.587  13.340  0.0922 -0.0996 -0.0470
 6597W        W22671  11.995   6.839   2.777  0.2776  0.2283  0.0384
 6598W        W22672  11.998   9.622  14.362  0.0955  0.1089  0.0223
 6599W        W22673   2.525   5.237   2.550 -0.4446 -0.0725  0.0354
 6600W        W22674   1.941  12.613   3.647 -0.0965  0.1645  0.2279
 6601W        W22675   3.931   6.689   2.422 -0.5738 -0.0011  0.0202
 6602W        W22676  13.058   8.567  12.844 -0.2394 -0.0208 -0.0671
 6603W        W22677  16.120   7.629   6.448 -0.0370  0.1776 -0.0501
 6604W        W22678   4.125   7.263   4.900  0.1165  0.0309 -0.1037
 6605W        W22679  18.022   1.727  15.229  0.2369  0.0000  0.3591
 6606W        W22680  16.693  16.082  13.427  0.1045 -0.1306  0.2168
 6607W        W22681   4.904  17.087  13.320  0.2514 -0.0870  0.3942
 6608W        W22682   6.478  12.852   4.625  0.1722 -0.3084  0.3529
 6609W        W22683  12.212   0.865  14.813 -0.3344 -0.1566 -0.2367
 6610W        W22684   3.234   3.626  13.884  0.1419 -0.1577 -0.0123
 6611W        W22685   1.790  15.109  11.083  0.3520  0.0245  0.2830
 6612W        W22686  10.850  15.474   2.857  0.2350 -0.4262  0.2255
 6613W        W22687  13.446   8.484   4.512 -0.0234  0.1733 -0.0472
 6614W        W22688  15.112   3.583  11.761 -0.0019 -0.1382 -0.2297
 6615W        W22689   0.207  14.303  14.424  0.4287  0.0014  0.0705
 6616W        W22690  10.287  10.219  12.837  0.1616  0.4937 -0.3145
 6617W        W22691   0.087   1.593   1.238 -0.0435  0.1518 -0.0634
 6618W        W22692   5.072   5.008   4.436  0.4681  0.3095 -0.0610
 6619W        W22693  11.422   3.928   0.703  0.2749 -0.0872  0.1926
 6620W        W22694   0.476   4.486   5.859 -0.0612 -0.0766 -0.2530
 6621W        W22695  10.643   9.332   5.184 -0.0753 -0.0614 -0.4024
 6622W        W22696  12.210   2.584   1.706 -0.0886 -0.1420  0.0107
 6623W        W22697  13.120  15.992  11.840 -0.3540  0.1186  0.0044
 6624W        W22698   3.767   2.491  15.950 -0.1779 -0.0676 -0.0482
 6625W        W22699  15.801   1.085   2.976  0.0429 -0.0490  0.0256
 6626W        W22700  17.518  10.357   5.042 -0.1328  0.1037 -0.0367
 6627W        W22701   7.481   8.277  13.649 -0.0664 -0.0764  0.1576
 6628W        W22702   8.374  10.222  11.257 -0.1907 -0.1636  0.0418
 6629W        W22703  12.939   9.560   3.197  0.0521  0.2700  0.0496
 6630W        W22704  13.853   1.568  15.694 -0.0030 -0.1261  0.0715
 6631W        W22705   8.293   7.935   2.820  0.2277 -0.1443  0.1616
 6632W        W22706  16.024   3.323  11.185  0.1141  0.0050  0.1706
 6633W        W22707   6.353   8.309   0.263  0.1374 -0.2026  0.0624
 6634W        W22708  17.672  12.199  16.515  0.4322 -0.3616  0.0003
 6635W        W22709  13.009   7.739  15.961  0.1441 -0.2151  0.0897
 6636W        W22710  11.126  16.068   1.125 -0.2772 -0.1736 -0.1292
 6637W        W22711   5.984   1.306  12.573  0.0187  0.2768 -0.1931
 6638W        W22712   2.978   5.117  14.829  0.0007  0.0460 -0.2984
 6639W        W22713  11.445  10.234  13.397 -0.2317 -0.0101  0.1903
 6640W        W22714   3.409   7.852  13.831  0.2150 -0.0632 -0.0727
 6641W        W22715  15.530   1.462  16.134  0.0332 -0.1264  0.1563
 6642W        W22716  10.541  14.303   0.598 -0.2577 -0.1447  0.1414
 6643W        W22717   5.763  13.755  15.287 -0.0941 -0.0849 -0.2605
 6644W        W22718  10.017   9.166   0.198  0.0135  0.0073  0.1318
 6645W        W22719   8.791  17.898   2.362 -0.0469 -0.1278  0.1932
 6646W        W22720   5.053   4.191   3.717 -0.4739  0.1121 -0.1079
 6647W        W22721   8.157   2.741  14.087  0.0429  0.1096  0.2043
 6648W        W22722   4.137  17.917   5.492 -0.4228 -0.1367  0.2152
 6649W        W22723   1.714   4.605  11.109  0.0019  0.0209  0.6231
 6650W        W22724  14.554  12.380  16.016  0.0833 -0.2806  0.0898
 6651W        W22725  16.864   1.074  15.380 -0.0759 -0.0307 -0.1586
 6652W        W22726   7.465  13.213  12.360  0.0539  0.1683 -0.2248
 6653W        W22727  12.803   3.134   4.071 -0.0998 -0.1573 -0.3573
 6654W        W22728  14.636  13.450   4.203 -0.3321 -0.2316  0.0979
 6655W        W22729  18.142  10.236  10.924  0.2009  0.1374 -0.1190
 6656W        W22730   4.334   9.318  13.624 -0.4641  0.0620  0.1051
 6657W        W22731   6.256   6.625  14.027  0.3268  0.3239  0.1984
 6658W        W22732  14.564   2.332  15.639 -0.0543  0.2897  0.1501
 6659W        W22733  13.226  10.234   1.713  0.3555  0.0887  0.1183
 6660W        W22734   5.672  12.485   2.869  0.1764 -0.3319  0.1045
 6661W        W22735   0.834   9.351   4.579  0.1745  0.0249 -0.1309
 6662W        W22736  13.084   0.732   0.553 -0.1553 -0.2954  0.0341
 6663W        W22737  10.732  13.461   0.732 -0.0191 -0.1318 -0.2357
 6664W        W22738  15.918   1.715   6.139 -0.0100  0.3499 -0.0134
 6665W        W22739  14.217  12.750  12.714 -0.0347  0.1775  0.2686
 6666W        W22740  11.761  12.326  15.772  0.1011  0.0789 -0.0192
 6667W        W22741   5.035   7.230  16.375  0.4227 -0.1011  0.0569
 6668W        W22742   3.006  10.148  15.515 -0.0140  0.0110 -0.0174
 6669W        W22743  10.515  12.161  11.837  0.1322  0.3190 -0.0415
 6670W        W22744  14.091   6.838   2.557 -0.1269 -0.1896  0.0113
 6671W        W22745   3.304  10.271  11.461  0.2557 -0.1435 -0.1532
 6672W        W22746  12.034  17.176  12.603  0.2365  0.0105  0.1861
 6673W        W22747   0.611   3.607   0.687  0.0677 -0.0243 -0.0436
 6674W        W22748   9.958  16.591   5.497 -0.1713 -0.0669 -0.4413
 6675W        W22749   0.014   9.210   0.840 -0.2329  0.0322 -0.4284
 6676W        W22750   1.129   3.091  13.420  0.0425 -0.1232  0.0096
 6677W        W22751  12.970   0.301  12.993 -0.2436 -0.0507  0.1266
 6678W        W22752  16.083  14.239   3.256 -0.0946 -0.0151  0.0784
 6679W        W22753   2.049  11.830   0.086  0.2486  0.0684 -0.0132
 6680W        W22754   5.782  12.386  13.083  0.0424  0.0867  0.0568
 6681W        W22755   0.869  15.404   3.583  0.0908 -0.1223 -0.4316
 6682W        W22756   9.560  17.991  12.631 -0.0362 -0.0058 -0.3734
 6683W        W22757   3.399  13.859   4.058  0.3264 -0.4927  0.3388
 6684W        W22758   4.258   8.539   5.241  0.0500  0.0567  0.2887
 6685W        W22759  15.639   8.195   1.864  0.2077 -0.2033  0.0282
 6686W        W22760   4.415  11.258   5.584  0.2353 -0.1614 -0.1367
 6687W        W22761  17.716   5.184  15.058 -0.0084  0.1427  0.0983
 6688W        W22762  13.192   2.163  15.049 -0.1972 -0.1348  0.1240
 6689W        W22763   9.502  14.584   5.789  0.1576  0.6167  0.2417
 6690W        W22764  17.507   6.002  11.078 -0.0025 -0.0060 -0.1465
 6691W        W22765  12.653  12.668  14.018  0.1214 -0.1028  0.0859
 6692W        W22766  13.340   4.826   0.842  0.1225 -0.2035 -0.1392
 6693W        W22767   5.369   5.851   4.773  0.0676 -0.1116 -0.2382
 6694W        W22768   3.357   4.567  16.362  0.2893 -0.0789 -0.2414
 6695W        W22769  15.346   2.318  13.038 -0.0018  0.0748  0.2900
 6696W        W22770  10.199  12.586   5.090  0.0232 -0.0209  0.0745
 6697W        W22771  16.603  11.820  15.367 -0.0846  0.1909  0.0033
 6698W        W22772   3.208   1.663   3.947  0.1402  0.0986  0.1981
 6699W        W22773   4.021   0.249   4.464 -0.1715 -0.3618  0.1056
 6700W        W22774  10.727  17.751   3.695 -0.0013  0.0503 -0.0795
 6701W        W22775   8.902   4.866   4.337 -0.2801  0.0699  0.1339
 6702W        W22776   6.418  14.703  14.998  0.0124 -0.2236 -0.0753
 6703W        W22777   1.996   5.011  10.922 -0.1323  0.1357  0.0204
 6704W        W22778   1.513  14.507  11.832  0.1292 -0.1604  0.1680
 6705W        W22779  17.502   6.897   4.972 -0.1572 -0.2955 -0.0295
 6706W        W22780   7.640   1.376  16.423 -0.5948  0.1404 -0.4860
 6707W        W22781   2.833   2.156   1.363 -0.0485 -0.1651  0.0356
 6708W        W22782   5.887  10.657  12.187 -0.0806 -0.2035 -0.2530
 6709W        W22783  17.195   8.883   1.717 -0.0396 -0.0755 -0.1256
 6710W        W22784  11.111   3.727  14.213  0.0998  0.1004 -0.0379
 6711W        W22785  11.162  15.451  15.900  0.0954 -0.2026 -0.0294
 6712W        W22786  10.930   3.740   5.773  0.1449 -0.3488 -0.1714
 6713W        W22787   4.729   6.376   0.313  0.1466  0.2581  0.1609
 6714W        W22788  11.479   4.744   1.310 -0.0587 -0.1494  0.0465
 6715W        W22789  15.156  16.087   0.824 -0.1241 -0.2061  0.2050
 6716W        W22790   9.113   9.134   5.488  0.4670  0.0035  0.0048
 6717W        W22791   9.778   2.584   3.688  0.1936 -0.1532  0.0572
 6718W        W22792  13.091  17.740   1.187 -0.0873 -0.1823 -0.1537
 6719W        W22793   0.451  10.436   0.426 -0.0894 -0.1571  0.0991
 6720W        W22794  12.685  15.361  13.879  0.1034 -0.2454 -0.1887
 6721W        W22795   2.847  13.439  13.933 -0.2312 -0.2468  0.1561
 6722W        W22796   2.191   4.408  13.157 -0.1661 -0.0266  0.2127
 6723W        W22797  17.789   0.315  14.936  0.4272  0.0737 -0.1086
 6724W        W22798   5.210  15.955   0.179 -0.3428  0.1692 -0.1890
 6725W        W22799  10.727   3.594   0.159 -0.1367 -0.1473  0.2640
 6726W        W22800   1.945  15.678   0.987  0.1093  0.1749 -0.0484
 6727W        W22801   9.646  16.047   4.812  0.0321 -0.2364 -0.1307
 6728W        W22802  14.840  14.699  13.019 -0.0836  0.2715  0.2759
 6729W        W22803  10.830  13.361  12.307 -0.1677 -0.1754  0.1268
 6730W        W22804   9.766  14.233   0.045  0.0079 -0.0981 -0.4528
 6731W        W22805  12.684   6.166   5.495  0.1786  0.2893 -0.2110
 6732W        W22806   1.552  12.582   3.968  0.0617  0.0640  0.2369
 6733W        W22807   2.846   5.419   2.041  0.1153  0.0072  0.0891
 6734W        W22808   3.841  15.199   0.253  0.0598 -0.0335 -0.1819
 6735W        W22809  14.064   6.251   4.222 -0.0141  0.0464  0.0375
 6736W        W22810  12.541  14.942  14.394  0.0573  0.0025  0.0176
 6737W        W22811  16.465   2.306   5.276  0.4078  0.2597  0.4443
 6738W        W22812  17.665  17.443   1.162 -0.3127  0.0415  0.0075
 6739W        W22813   8.252  11.685   6.009 -0.0154  0.0577 -0.0730
 6740W        W22814   2.893   2.800   2.134 -0.1320  0.0071  0.3937
 6741W        W22815   7.963  12.829   2.314 -0.1121  0.1943 -0.1257
 6742W        W22816   4.484  10.185  13.857 -0.1104  0.0639  0.0035
 6743W        W22817   4.810   6.473  12.537  0.0998  0.1353  0.0731
 6744W        W22818  17.176  17.579   1.113 -0.1397  0.0113 -0.3467
 6745W        W22819   8.502   2.129   6.514 -0.0808 -0.0452  0.1158
 6746W        W22820  15.918  15.659   4.410  0.0898  0.0724  0.1274
 6747W        W22821  11.880  16.537   2.492  0.0175  0.3329 -0.0014
 6748W        W22822   8.961  12.366  13.079  0.0617  0.0454 -0.1873
 6749W        W22823  10.661  11.564  13.231  0.1764 -0.1346  0.3046
 6750W        W22824   6.254  12.633  14.470 -0.0387 -0.0841 -0.2527
 6751W        W22825  14.565   5.895   2.366  0.1574  0.2254 -0.2403
 6752W        W22826   9.732   7.724   1.697 -0.1363  0.1949 -0.0620
 6753W        W22827   3.205  17.022   1.493  0.0399 -0.0597  0.0811
 6754W        W22828  13.653   7.127   5.237 -0.0378  0.0877 -0.3593
 6755W        W22829  14.597  14.159   4.760  0.2860  0.0586 -0.2324
 6756W        W22830   3.728   6.873   5.718  0.0619 -0.1634 -0.1184
 6757W        W22831   4.490  13.688   5.307 -0.0764  0.2933  0.0489
 6758W        W22832   5.128  11.869   1.013 -0.0628  0.2504  0.0709
 6759W        W22833   6.296   2.983   0.407 -0.0516 -0.1874  0.1706
 6760W        W22834  16.373   0.587   2.924 -0.0130 -0.1511  0.0107
 6761W        W22835   5.839   3.929  14.464 -0.1698  0.1247  0.2676
 6762W        W22836   4.683  12.042  12.267 -0.2582 -0.1575  0.1566
 6763W        W22837  10.663   5.020  14.382  0.1185 -0.1541  0.1116
 6764W        W22838   2.259  14.657   1.301  0.0085  0.0240  0.0021
 6765W        W22839   9.306   0.840  11.501  0.1402  0.2730 -0.0291
 6766W        W22840   3.958   5.983  15.942 -0.0267  0.0717 -0.1628
 6767W        W22841  17.485  14.848  14.435  0.0093 -0.1433  0.0199
 6768W        W22842   0.976   4.383  14.894 -0.0519 -0.1779 -0.0114
 6769W        W22843  17.678   4.050  11.252  0.0863 -0.0544  0.2741
 6770W        W22844   8.684  17.938   4.122  0.0559 -0.3280 -0.1599
 6771W        W22845  17.968   7.176   5.246 -0.1542  0.0600  0.1893
 6772W        W22846   4.792   6.728  11.982 -0.0201 -0.0405 -0.1990
 6773W        W22847   4.685   2.034  11.122 -0.3117 -0.0877 -0.1312
 6774W        W22848  13.110  11.467  13.070 -0.1060  0.0351 -0.0359
 6775W        W22849  12.659  12.776   1.550 -0.3117 -0.1514 -0.0061
 6776W        W22850   3.895   8.456  13.435 -0.2083 -0.3578  0.2195
 6777W        W22851  12.916  10.321  12.324  0.0667 -0.0067  0.0142
 6778W        W22852   6.732   5.363  12.291 -0.0159 -0.0319  0.0378
 6779W        W22853  17.203   2.024   1.090 -0.0600  0.0958  0.2184
 6780W        W22854  16.104  12.990  12.374  0.1174  0.2758 -0.2337
 6781W        W22855  12.139  14.550  11.887 -0.1708  0.3495 -0.2758
 6782W        W22856  10.705  13.508   4.218 -0.0168 -0.0952  0.0405
 6783W        W22857  11.899   4.059  14.522 -0.1994 -0.1881  0.1117
 6784W        W22858   9.685   2.821  14.632  0.1600  0.2197  0.0116
 6785W        W22859   9.963   9.750  16.034  0.0524 -0.1372 -0.0199
 6786W        W22860   9.803   0.671   0.479  0.1403 -0.3072  0.2518
 6787W        W22861  10.242   7.979   3.936  0.1880 -0.2481 -0.1509
 6788W        W22862   0.392   8.414   1.586  0.1398 -0.2064 -0.0664
 6789W        W22863  11.307   1.549   5.665  0.3349  0.1361  0.1895
 6790W        W22864   9.708  16.160  14.040 -0.0262 -0.0879  0.0896
 6791W        W22865  14.737   2.262  13.059  0.1108  0.0196  0.1197
 6792W        W22866   1.009  10.102  11.987  0.0581  0.0150  0.1365
 6793W        W22867  11.081  11.039   0.235  0.0140 -0.0375 -0.0553
 6794W        W22868  13.473   0.866   4.047 -0.0166 -0.1145 -0.0314
 6795W        W22869   5.564   4.089   1.261 -0.1996  0.4021 -0.1085
 6796W        W22870   9.743  10.527   5.260 -0.0707  0.0907  0.0719
 6797W        W22871  11.325  13.326  13.316 -0.3033  0.2209 -0.0827
 6798W        W22872  17.871   3.325  10.572  0.3285 -0.4013  0.1392
 6799W        W22873  13.839   5.833   5.150 -0.1058  0.0984 -0.2530
 6800W        W22874  13.531   3.121  14.312 -0.1619  0.1482 -0.0518
 6801W        W22875  10.070   1.756   1.332 -0.0962 -0.2824  0.0100
 6802W        W22876   2.921   8.034   5.546  0.1389  0.0400  0.2077
 6803W        W22877  11.479   1.567   2.065  0.0164  0.5021 -0.2493
 6804W        W22878  10.291  10.513   0.844 -0.1978  0.0742  0.0595
 6805W        W22879   3.495  13.433   2.023 -0.3258 -0.1688 -0.0462
 6806W        W22880  14.373  12.373   3.504 -0.0273 -0.2712  0.2501
 6807W        W22881  16.193   5.245   2.359  0.0299 -0.0154 -0.2023
 6808W        W22882   7.544  16.852  11.954  0.2268 -0.1387  0.3654
 6809W        W22883   3.113  16.496   4.054 -0.0704 -0.1171 -0.0252
 6810W        W22884   1.521   9.294   4.386 -0.2098  0.1283  0.0156
 6811W        W22885   8.598   6.147   0.841 -0.1863  0.1631 -0.0047
 6812W        W22886  15.086  14.396   4.173 -0.0009 -0.1621  0.1681
 6813W        W22887   9.075  14.266  12.475  0.4094 -0.1133 -0.0255
 6814W        W22888   8.415   4.006   5.018 -0.3091 -0.1729  0.0678
 6815W        W22889   2.539   8.533   4.417 -0.1738  0.0554 -0.0745
 6816W        W22890  13.360   2.371  16.042  0.0404 -0.1879 -0.0472
 6817W        W22891   6.655  18.047  15.782 -0.0166  0.0464  0.3104
 6818W        W22892   2.075   1.413  15.420  0.1413 -0.0583 -0.2547
 6819W        W22893  13.917   1.795   2.642  0.1215 -0.0960  0.0770
 6820W        W22894   4.229  12.493  16.404 -0.2213 -0.1910  0.0995
 6821W        W22895  17.431   2.302   4.649  0.2396  0.2448  0.1881
 6822W        W22896  11.730  15.457  15.797  0.2304 -0.2760 -0.0959
 6823W        W22897  16.322  15.130   2.181 -0.4988 -0.2668 -0.1825
 6824W        W22898   6.965  10.308  14.757 -0.6231 -0.2679 -0.0490
 6825W        W22899   6.295  10.464   4.684  0.0515  0.0798 -0.0903
 6826W        W22900   9.500  10.878   0.085  0.1917  0.0227 -0.2379
 6827W        W22901   3.280  18.127  11.913  0.2573 -0.0037 -0.0399
 6828W        W22902   7.486   0.548  13.514  0.1089  0.0394 -0.0430
 6829W        W22903  12.269  10.952  14.762 -0.0146  0.1873  0.0834
 6830W        W22904  10.118   9.341   5.991  0.3746  0.0260 -0.0717
 6831W        W22905   3.709   1.472  13.010 -0.0922 -0.0866 -0.0933
 6832W        W22906   4.682   3.494  16.275 -0.3524  0.1669  0.1855
 6833W        W22907  15.257   2.030   0.308 -0.0141  0.0082 -0.3726
 6834W        W22908  17.486  13.069   4.538 -0.1618 -0.0018 -0.3121
 6835W        W22909  11.806  11.552  12.410 -0.1271  0.0133  0.0605
 6836W        W22910  14.263   7.145  11.941  0.1462  0.0963  0.3178
 6837W        W22911   5.856  14.847  16.320 -0.0613 -0.0392 -0.1167
 6838W        W22912  17.127  17.458  11.904 -0.2557  0.1267 -0.0900
 6839W        W22913   3.645  18.175   2.451  0.1495 -0.1631  0.4297
 6840W        W22914   1.054   1.844  11.610  0.0853  0.0718 -0.1070
 6841W        W22915  12.831   9.375  12.453 -0.0451 -0.0205  0.0199
 6842W        W22916   9.433   7.644   3.451  0.1366  0.0849 -0.1970
 6843W        W22917   1.392  12.090   2.276  0.2347 -0.0286 -0.3550
 6844W        W22918  18.174   4.909  10.900 -0.0441 -0.0851  0.1186
 6845W        W22919   3.375   0.234  13.249 -0.0641 -0.0129  0.1023
 6846W        W22920  10.982   8.096  14.274  0.2538  0.0878 -0.1953
 6847W        W22921   1.948   4.634  15.726 -0.1979 -0.0471  0.1995
 6848W        W22922   9.817  10.165   2.073 -0.1568 -0.0365  0.0580
 6849W        W22923   1.250   5.663  13.258 -0.1771  0.0776  0.3017
 6850W        W22924  12.124   8.566  12.092 -0.0996 -0.2806  0.1349
 6851W        W22925  11.971  10.495  15.330 -0.0051  0.0111  0.0595
 6852W        W22926  12.222  11.798  15.007 -0.3690 -0.0834 -0.0390
 6853W        W22927  10.836  16.426  15.459  0.2460  0.1967  0.0238
 6854W        W22928   9.580   1.713  14.802  0.1867 -0.0191 -0.1182
 6855W        W22929  12.767   6.677  13.104  0.1787  0.3546 -0.1952
 6856W        W22930   2.404   6.903  12.126  0.2833  0.3451 -0.0383
 6857W        W22931   7.140  10.559   2.824  0.2350 -0.0328 -0.2491
 6858W        W22932  14.742  14.193   1.902 -0.2399 -0.2121 -0.1963
 6859W        W22933  10.580  13.352   2.595 -0.0588  0.0111  0.1794
 6860W        W22934  17.090   5.185   1.880 -0.2182  0.0038  0.1997
 6861W        W22935  15.788  10.967  16.392  0.0504  0.3153  0.0085
 6862W        W22936   5.837  11.385   5.825  0.1652  0.0206 -0.2519
 6863W        W22937  18.071   4.937   9.416  0.2065  0.2175 -0.0137
 6864W        W22938  12.786  10.575   4.634 -0.1573  0.0788 -0.2471
 6865W        W22939   5.082   7.217  11.980  0.1744  0.3854 -0.2783
 6866W        W22940  12.194  12.111  15.931 -0.3979  0.0662 -0.1953
 6867W        W22941   5.074   6.738   0.146 -0.0596 -0.0868 -0.1464
 6868W        W22942   4.407   7.065  11.621  0.0131 -0.0777 -0.1021
 6869W        W22943  17.788   5.874   9.921  0.1537 -0.1460 -0.2768
 6870W        W22944  16.990   6.420   1.378  0.0278 -0.0306 -0.2575
 6871W        W22945   9.434  12.394   6.722  0.2425 -0.1178 -0.1515
 6872W        W22946  15.170   0.778  13.839  0.1143 -0.3821 -0.0302
 6873W        W22947  13.266   5.847  14.075  0.0078  0.1327 -0.4259
 6874W        W22948   9.919  16.011   5.233  0.0189 -0.2863  0.1706
 6875W        W22949  17.849  17.342  14.438 -0.2332 -0.2291  0.3243
 6876W        W22950  17.471  12.928   3.959 -0.2001 -0.4272  0.0877
 6877W        W22951  17.617  12.351  12.769  0.1145 -0.1117 -0.1119
 6878W        W22952  16.146  15.243  11.387 -0.2819  0.2333  0.2256
 6879W        W22953   3.541   1.965   1.225  0.3242  0.1105 -0.0986
 6880W        W22954  11.081  16.709   5.878 -0.2642 -0.1457 -0.3578
 6881W        W22955  10.649  17.989   2.345 -0.0523 -0.0599  0.0122
 6882W        W22956   5.300   6.935   0.735 -0.0619 -0.1468 -0.2472
 6883W        W22957  17.344  14.232   0.435  0.1759 -0.0751  0.1235
 6884W        W22958   6.398  14.940  14.330  0.3363 -0.2312  0.0424
 6885W        W22959   7.478   6.018   2.797  0.0209  0.0621 -0.2602
 6886W        W22960   1.853   8.443   2.624  0.0354 -0.1602  0.1354
 6887W        W22961   4.797  14.088   0.047  0.0599 -0.0548  0.0669
 6888W        W22962   7.334  17.655   0.234 -0.0897 -0.3223 -0.0062
 6889W        W22963  13.130  17.221   2.812  0.0455  0.2162 -0.3305
 6890W        W22964  15.218   3.542   1.702  0.2402 -0.1054 -0.2802
 6891W        W22965  11.467   8.330   3.305 -0.1575  0.0194 -0.0456
 6892W        W22966  12.751   8.266   1.036  0.1986  0.0049 -0.1394
 6893W        W22967  16.859   6.828   5.856  0.0193  0.1254 -0.1263
 6894W        W22968   9.381   7.138   2.099  0.1764  0.1325 -0.0903
 6895W        W22969   4.699   0.193   3.240 -0.1713  0.1232 -0.2391
 6896W        W22970   3.169  15.311  13.693  0.0782 -0.1967  0.0790
 6897W        W22971  14.338   1.165  13.868 -0.2219 -0.1740 -0.0813
 6898W        W22972   2.927  13.681   0.870  0.3868  0.3986 -0.1063
 6899W        W22973   6.068  13.208  12.536 -0.0062  0.0643  0.3230
 6900W        W22974   2.484  12.802   4.139  0.0594 -0.0182 -0.0109
 6901W        W22975   0.613  16.389   1.791  0.0498 -0.0208 -0.0001
 6902W        W22976  13.145  10.947  15.167 -0.1119 -0.2971  0.1387
 6903W        W22977   0.351  11.907   3.206  0.0439 -0.0817 -0.1342
 6904W        W22978   0.669  14.471  14.220 -0.1191 -0.0222  0.0652
 6905W        W22979  10.484  18.007   0.302 -0.5336 -0.0841 -0.3336
 6906W        W22980  11.627  10.522  15.847  0.2547  0.3688 -0.0745
 6907W        W22981   1.068   0.665   2.390  0.0561 -0.2469 -0.1191
 6908W        W22982  11.233  17.922   0.348  0.0505 -0.2416 -0.3885
 6909W        W22983  11.358   8.183  14.847  0.0653  0.1125  0.0841
 6910W        W22984   8.974   8.399  14.974  0.0803  0.5331 -0.0566
 6911W        W22985   1.200   5.032  14.191  0.0196 -0.1010 -0.0745
 6912W        W22986   1.988   2.192   2.681  0.0584  0.2211 -0.1793
 6913W        W22987  17.754  14.204   1.886 -0.1331 -0.0016  0.1484
 6914W        W22988  14.322   1.614   1.849  0.0931  0.1087  0.2698
 6915W        W22989   6.781  11.993   4.684 -0.0759  0.0502 -0.2191
 6916W        W22990  14.897  13.729   5.405  0.1806 -0.0452 -0.1427
 6917W        W22991   9.328  10.260  12.271  0.3559  0.1721  0.0639
 6918W        W22992   6.886  11.352   0.692  0.1779 -0.0515 -0.1852
 6919W        W22993   2.461   0.811  11.464 -0.1334 -0.0829  0.2724
 6920W        W22994  17.191  12.936  14.528  0.1731  0.0698 -0.1497
 6921W        W22995   1.390   8.673   0.481 -0.0352  0.4615 -0.4469
 6922W        W22996   4.836  11.427  15.634  0.1948 -0.2806 -0.2165
 6923W        W22997   4.789  12.572   3.854  0.0345 -0.1355 -0.1385
 6924W        W22998  17.047  11.501   3.791 -0.0819 -0.1032  0.1766
 6925W        W22999  11.185   9.227  15.840 -0.1282  0.0443 -0.2218
 6926W        W23000   6.909   4.926  16.467 -0.2456 -0.1033 -0.0629
 6927W        W23001  14.745   8.467   1.054  0.2971 -0.0505  0.0556
 6928W        W23002  14.438   7.563  12.064  0.0865 -0.1854  0.1166
 6929W        W23003  13.363   3.404  11.459  0.1137  0.3541 -0.0615
 6930W        W23004   0.697  17.339  13.036 -0.0365 -0.0366  0.0451
 6931W        W23005  11.512   7.907   0.217 -0.0431  0.0492 -0.4860
 6932W        W23006  15.645   7.239   1.915 -0.0538  0.0768  0.0522
 6933W        W23007   2.697  10.028   2.116 -0.2813 -0.0741 -0.2365
 6934W        W23008  14.687   9.043  13.758 -0.0449  0.0934  0.4653
 6935W        W23009  17.215  17.745   2.863  0.0793  0.3208 -0.0590
 6936W        W23010   4.433   6.050   3.436 -0.1398 -0.0890 -0.1069
 6937W        W23011  12.120  13.559  15.690  0.3759 -0.0256  0.1346
 6938W        W23012   2.943  15.809  15.496  0.1292 -0.1098 -0.1959
 6939W        W23013  15.226   3.163  14.368 -0.1254  0.0189 -0.2518
 6940W        W23014  18.146   1.148  11.141 -0.0334 -0.2031  0.0138
 6941W        W23015   7.276   7.308  13.570  0.1162 -0.3623  0.0744
 6942W        W23016  16.458  14.614   0.981 -0.1252  0.0129  0.1689
 6943W        W23017  16.582   5.016  12.959  0.3003  0.0707  0.0461
 6944W        W23018  11.316  11.698  14.119  0.1961 -0.2365  0.1042
 6945W        W23019   9.233  13.719   5.187 -0.2737  0.1518 -0.3761
 6946W        W23020   0.075   2.424   4.353 -0.2890  0.1481 -0.0867
 6947W        W23021   0.105   6.053   2.823 -0.0053 -0.5058 -0.0215
 6948W        W23022   6.349   4.268   1.935  0.0405  0.0763 -0.1686
 6949W        W23023   9.970  13.333  14.900  0.0869 -0.1745  0.1349
 6950W        W23024   5.983  10.120   4.822 -0.0415  0.0203 -0.0853
 6951W        W23025  11.964  17.278   0.013 -0.0953 -0.0140  0.0240
 6952W        W23026   4.662  15.831  14.995  0.0446  0.0214  0.1375
 6953W        W23027   7.237   9.867   1.630 -0.0504 -0.0743 -0.1035
 6954W        W23028  11.091  10.974  12.891 -0.1906  0.0552 -0.0630
 6955W        W23029   1.375   4.619   4.108  0.0694  0.1028  0.0342
 6956W        W23030   9.865   4.336   3.814  0.0332 -0.0867 -0.0326
 6957W        W23031  14.197   6.824   2.033 -0.3944  0.1165  0.1250
 6958W        W23032   0.360   4.453  13.276  0.0276  0.0314  0.1163
 6959W        W23033   7.966   3.959   4.785 -0.2037 -0.1348 -0.1538
 6960W        W23034   8.118   3.659   3.744  0.0818 -0.0566  0.4110
 6961W        W23035   5.912   0.913  14.389 -0.0008 -0.1045 -0.0858
 6962W        W23036   9.321   1.589   5.596 -0.0004 -0.1534 -0.3369
 6963W        W23037   9.156   7.481   3.829  0.3328 -0.0535 -0.0550
 6964W        W23038   2.707   8.420   2.321  0.2836  0.1162 -0.2530
 6965W        W23039  13.334   7.554   3.419 -0.1058 -0.0558  0.0336
 6966W        W23040  13.038  13.863   1.713 -0.0832 -0.0147  0.1216
 6967W        W23041   4.877   8.415   0.155  0.0510  0.3354  0.3301
 6968W        W23042  17.902   5.963  16.298 -0.0413 -0.1164  0.1800
 6969W        W23043   0.176   3.958  12.200 -0.1118 -0.3142 -0.2331
 6970W        W23044  10.321   6.305   2.483 -0.3395  0.0862 -0.1308
 6971W        W23045   0.006   0.140   5.056  0.3479 -0.3493  0.3857
 6972W        W23046  10.597  10.922   0.014  0.2489 -0.2388  0.0147
 6973W        W23047  12.089  11.112   2.996 -0.1403 -0.1204 -0.0831
 6974W        W23048   3.620   0.213  12.120  0.1399  0.2083 -0.6040
 6975W        W23049  12.096  16.586   5.404  0.0107  0.2728 -0.1048
 6976W        W23050   4.978   5.735   2.861  0.6887  0.2152 -0.0852
 6977W        W23051  10.280  16.640   4.489 -0.0116  0.0603  0.0337
 6978W        W23052   6.162  17.693   2.466 -0.2554 -0.1936  0.0713
 6979W        W23053   7.563  12.940  14.003 -0.0635 -0.0202  0.1788
 6980W        W23054  10.363   6.782  16.001 -0.2435 -0.0317  0.0903
 6981W        W23055  17.750   1.160   0.864  0.1040  0.0079  0.3031
 6982W        W23056   9.680   9.039  13.283 -0.3466 -0.1674  0.1301
 6983W        W23057  15.584  17.730   4.100  0.1585  0.2555 -0.1682
 6984W        W23058   5.879  16.758  15.701  0.2595  0.3092  0.0266
 6985W        W23059  16.296  15.427   2.877 -0.1483  0.4159  0.0472
 6986W        W23060   4.713   5.680   1.233 -0.1258  0.1356  0.1385
 6987W        W23061  17.541   2.875  13.601 -0.2025  0.0565  0.0320
 6988W        W23062  16.626  14.847   1.790  0.2786  0.1487 -0.0834
 6989W        W23063   9.198  10.850   0.861  0.0419 -0.0104  0.2807
 6990W        W23064   5.621  15.830   4.534  0.0231  0.0441  0.1770
 6991W        W23065   4.401   0.788   0.844 -0.0621  0.0180 -0.0952
 6992W        W23066   8.184  13.524  12.005  0.1219  0.0245  0.0470
 6993W        W23067   1.229  13.801  15.130  0.1860 -0.0414  0.0919
 6994W        W23068  10.729  12.614   2.759  0.1541  0.1023 -0.1381
 6995W        W23069  15.480  14.495   6.335  0.0244 -0.1051  0.1486
 6996W        W23070   2.261   5.814   3.787  0.1543  0.2936 -0.0607
 6997W        W23071   5.153   8.774  15.480  0.2584  0.1521  0.0437
 6998W        W23072  15.889   7.761   1.193 -0.0678 -0.2913 -0.0743
 6999W        W23073   9.497  16.045   3.478  0.1871  0.2541 -0.2960
 7000W        W23074   9.301  10.291  14.852  0.0772 -0.0549 -0.0256
 7001W        W23075   8.533  13.114  13.965 -0.0966  0.1899 -0.1806
 7002W        W23076   0.822   8.184  13.133  0.2152 -0.2161  0.2571
 7003W        W23077  14.395   3.035   5.029 -0.2184 -0.1256 -0.1888
 7004W        W23078  11.413   9.151   4.278  0.3293  0.3847 -0.0918
 7005W        W23079  16.882  14.445   4.098  0.1342 -0.1095 -0.0592
 7006W        W23080  13.879   8.055  14.825 -0.2286  0.2826 -0.1965
 7007W        W23081  16.783   0.113   4.074 -0.4208 -0.2035  0.0068
 7008W        W23082   4.807  14.718  15.192 -0.0575  0.1662 -0.0045
 7009W        W23083   9.178  16.332  16.001  0.0171  0.3253 -0.1043
 7010W        W23084   3.424  16.609   3.067  0.1255  0.1158 -0.0319
 7011W        W23085  15.960  13.422  15.263  0.2547  0.2323 -0.2456
 7012W        W23086   1.569  12.222   0.549  0.1663  0.0424 -0.1330
 7013W        W23087  12.231  14.915  11.101 -0.1421 -0.1517  0.0105
 7014W        W23088   1.539   1.764  11.767  0.0190  0.0185  0.3053
 7015W        W23089  12.959  12.084  14.453 -0.0449 -0.0892 -0.1494
 7016W        W23090   1.041  12.249  15.247 -0.2341  0.2531 -0.0155
 7017W        W23091   3.618   8.905   4.505 -0.1831 -0.0718 -0.0754
 7018W        W23092   8.750   8.780  15.967  0.1459 -0.0743  0.0971
 7019W        W23093  17.065   1.390   6.083  0.0982  0.0735  0.1193
 7020W        W23094  17.390   1.149  12.200  0.0082 -0.0016  0.1099
 7021W        W23095   5.328   9.832   3.233  0.0109  0.0441 -0.2038
 7022W        W23096  13.155   9.785   1.492  0.3083  0.1143 -0.0743
 7023W        W23097  14.224  10.927  13.333  0.3096 -0.0148 -0.0339
 7024W        W23098  12.363   9.522  11.105 -0.1573  0.4569  0.0190
 7025W        W23099   0.853   0.128   4.346 -0.0347  0.0076  0.0312
 7026W        W23100   1.531   7.340   5.724 -0.3855  0.3111  0.0615
 7027W        W23101   3.543  12.206   1.114 -0.1794  0.1052  0.1197
 7028W        W23102   9.640   4.363   2.583  0.3251  0.3033  0.1347
 7029W        W23103   1.197  12.926   3.844 -0.2812  0.1597 -0.2019
 7030W        W23104   4.262   0.761   3.415  0.1680  0.2847 -0.0455
 7031W        W23105  11.333  13.944   0.278  0.0879 -0.0204  0.0887
 7032W        W23106   2.602  14.495   0.151 -0.1325  0.1395  0.0244
 7033W        W23107   3.434  14.054   0.454 -0.2302  0.1228 -0.1783
 7034W        W23108   8.168   0.665   5.359 -0.1243  0.0503 -0.0813
 7035W        W23109   3.263   3.260   0.192  0.1095  0.0600  0.0860
 7036W        W23110   1.070  10.169   1.972 -0.1943 -0.0766 -0.3125
 7037W        W23111   9.133   3.775   5.243  0.0361 -0.1957  0.1384
 7038W        W23112  16.151  12.929   1.659 -0.0218 -0.0820  0.0024
 7039W        W23113  16.551   7.881  11.255 -0.1393 -0.0854 -0.0879
 7040W        W23114  11.692   4.906  15.416  0.1991  0.0693  0.0080
 7041W        W23115   5.703   2.403  15.453 -0.1357  0.1064  0.0944
 7042W        W23116  14.415   2.012   4.438 -0.4796  0.0607 -0.4269
 7043W        W23117  12.890   5.206  15.794  0.2243 -0.1620  0.0814
 7044W        W23118  14.074  11.514   5.620  0.0409  0.3656  0.1241
 7045W        W23119   0.203  16.749  15.962  0.0504  0.0165 -0.0352
 7046W        W23120  17.736   0.241   5.176  0.1065  0.4152  0.1347
 7047W        W23121  13.710  17.880  12.736 -0.4264  0.1007 -0.0719
 7048W        W23122   4.210   9.965  14.214 -0.1384 -0.1679 -0.0020
 7049W        W23123   8.852  14.681  12.200 -0.0537  0.2127 -0.0710
 7050W        W23124  11.021   9.346   6.221 -0.2231  0.1343  0.1121
 7051W        W23125   3.205   2.073  15.131  0.0586  0.1732  0.3393
 7052W        W23126   2.875  14.600   3.158 -0.3456 -0.1705  0.0255
 7053W        W23127   2.648  11.649   2.567  0.0717 -0.2930  0.0360
 7054W        W23128  10.553  15.424  12.601 -0.4117 -0.4168 -0.3758
 7055W        W23129  13.591   9.989   5.615  0.1175 -0.2268 -0.3309
 7056W        W23130   2.169  12.769  14.747  0.1839 -0.0006 -0.0080
 7057W        W23131   7.430   5.243   2.803  0.1664  0.0024  0.1444
 7058W        W23132  17.856   4.097   3.547  0.3336  0.3242  0.3083
 7059W        W23133   0.668  10.593   4.072  0.0442  0.2613  0.1541
 7060W        W23134   2.835   1.558   3.574  0.1755  0.1686 -0.0649
 7061W        W23135   8.676   5.144  14.153 -0.5136 -0.0563 -0.3671
 7062W        W23136  10.684   8.633   2.332 -0.2207 -0.0384  0.1020
 7063W        W23137   9.878   9.735   2.342 -0.0122  0.0536  0.0851
 7064W        W23138  16.140   8.716   3.807 -0.3971 -0.1990  0.0222
 7065W        W23139  10.613   1.127  14.289  0.1648 -0.0163 -0.0513
 7066W        W23140   1.181   8.154   4.626 -0.0261 -0.2380  0.3591
 7067W        W23141   9.917   1.514   0.667  0.2588 -0.0710 -0.2929
 7068W        W23142   1.359   9.049   3.366 -0.0813 -0.0385  0.1021
 7069W        W23143   3.913  17.725  15.459  0.0332 -0.1210 -0.2023
 7070W        W23144   9.950  12.553  15.868  0.0533 -0.0239 -0.3223
 7071W        W23145   8.414  13.937  15.842  0.4494 -0.1555 -0.2184
 7072W        W23146   5.008  17.180   0.108 -0.1308  0.0530 -0.0233
 7073W        W23147   4.585   7.891  11.910 -0.0098 -0.2294  0.0184
 7074W        W23148   0.708   1.189  11.104 -0.2149 -0.3346 -0.2023
 7075W        W23149  12.535   8.105   6.867  0.4284 -0.1247 -0.3866
 7076W        W23150  15.139  16.771   3.069 -0.1733 -0.2226 -0.0266
 7077W        W23151  15.675   2.191   4.495 -0.0852 -0.3549 -0.0612
 7078W        W23152   4.267   6.553   0.155  0.0550 -0.1201 -0.1743
 7079W        W23153  14.373  16.313  12.569 -0.2876 -0.0929 -0.4202
 7080W        W23154   3.781  18.163  14.745  0.1192  0.1085 -0.4624
 7081W        W23155   1.684   9.882   0.700 -0.0539  0.0435 -0.2929
 7082W        W23156   3.317  14.610  11.652  0.0775 -0.2774  0.2501
 7083W        W23157  15.476   7.877   1.450 -0.2478  0.1567  0.0098
 7084W        W23158  16.503  12.477  15.949  0.2375 -0.2160 -0.2602
 7085W        W23159   1.491   0.790   4.670  0.0756 -0.1639  0.1705
 7086W        W23160   1.474   2.577  12.237  0.1119 -0.0885 -0.0425
 7087W        W23161   8.076   1.571   1.049 -0.0834  0.1190 -0.0405
 7088W        W23162   6.720  11.864  14.141  0.0443  0.0122  0.1604
 7089W        W23163   7.955  17.388   1.514  0.0679  0.1556  0.0827
 7090W        W23164   2.164   4.869   5.198  0.0448  0.3050 -0.3061
 7091W        W23165  10.389  16.216   1.161  0.0077 -0.2075  0.2774
 7092W        W23166  16.756   0.398   0.456 -0.1728  0.3665 -0.1235
 7093W        W23167  13.963   5.503   3.338 -0.1633 -0.2430  0.1212
 7094W        W23168  17.989  15.753   4.497  0.2782 -0.2048 -0.0587
 7095W        W23169   5.321  13.803   0.530 -0.0328 -0.0616 -0.2256
 7096W        W23170  14.940   3.047  12.550 -0.1723  0.5012  0.2167
 7097W        W23171   7.887  12.316   6.750 -0.0114 -0.2094 -0.0588
 7098W        W23172  15.318   3.131  11.808  0.5500  0.2912 -0.0190
 7099W        W23173  15.091   0.344   5.027 -0.0504  0.3218 -0.1396
 7100W        W23174   5.637   6.566  14.935  0.1180 -0.2947 -0.0378
 7101W        W23175  13.258  17.319  14.472  0.1636  0.1608  0.1147
 7102W        W23176   7.329  11.382   0.986  0.0712  0.1505 -0.1056
 7103W        W23177   4.134  15.600   1.975  0.2579 -0.2489  0.3205
 7104W        W23178  14.639   6.906   5.175 -0.2331  0.2383  0.3208
 7105W        W23179   4.597   8.820  13.518  0.0673 -0.0687 -0.3058
 7106W        W23180  16.047   1.687  11.176  0.0600  0.0365  0.2590
 7107W        W23181   3.605  16.845   4.789 -0.1120 -0.2135  0.2572
 7108W        W23182   3.213   5.656  16.492  0.1016  0.0877 -0.3569
 7109W        W23183   6.080  11.314   2.245  0.1630  0.0857 -0.1559
 7110W        W23184   6.142  15.465  11.688  0.1379  0.0457 -0.0393
 7111W        W23185  12.574   4.613  10.506  0.0553  0.1417 -0.3558
 7112W        W23186   3.809  14.681   0.125  0.1325 -0.0589 -0.0563
 7113W        W23187  11.587  15.769   2.958  0.0867  0.1978  0.2669
 7114W        W23188   0.722   8.561   1.169  0.0927 -0.1471 -0.0895
 7115W        W23189  17.943   8.864   5.288  0.1399 -0.1909  0.0931
 7116W        W23190  13.422   4.932   4.774 -0.2758 -0.3795 -0.1158
 7117W        W23191   1.623   5.981   2.194 -0.0029 -0.0653  0.1590
 7118W        W23192  12.269   9.472   0.748  0.1771 -0.0604  0.1253
 7119W        W23193   3.369  16.770   5.655 -0.2499 -0.1445 -0.0554
 7120W        W23194   3.981  10.085   0.322  0.2207  0.0961 -0.0579
 7121W        W23195  15.423  13.366  14.086  0.4026  0.2330  0.1265
 7122W        W23196   1.194   5.819   4.772  0.0249  0.0570 -0.1682
 7123W        W23197   9.798  10.218  12.441 -0.1808  0.1353  0.2703
 7124W        W23198   1.018  18.200   1.346  0.1866 -0.1489  0.0123
 7125W        W23199   4.145  15.144   1.036 -0.0430 -0.1108  0.0198
 7126W        W23200   4.717  16.604  13.494 -0.0267 -0.2760 -0.1072
 7127W        W23201  18.029  15.966  15.067 -0.0217  0.1243 -0.1539
 7128W        W23202  16.951  15.662   4.257  0.0957 -0.0593  0.1538
 7129W        W23203   7.412   9.633   1.189 -0.2548  0.2616  0.0209
 7130W        W23204  17.703   2.571  13.173 -0.0567  0.3409  0.0435
 7131W        W23205   0.062  12.843  13.361  0.1317  0.0151  0.2535
 7132W        W23206  13.519  15.787   2.815 -0.1824  0.2608  0.0590
 7133W        W23207   0.561   9.362   5.119 -0.1409  0.0958  0.2922
 7134W        W23208  16.455  11.537   2.336  0.0408  0.0066  0.0437
 7135W        W23209  10.734   6.399   5.629 -0.0415  0.1156 -0.1540
 7136W        W23210   9.774  17.444   4.134 -0.0254  0.0304  0.1667
 7137W        W23211  11.351  13.011   2.892  0.1214  0.1437 -0.0294
 7138W        W23212   3.297   9.451   5.251 -0.2320 -0.1241 -0.0267
 7139W        W23213   2.853  12.593  11.233  0.2205  0.1045  0.2224
 7140W        W23214  18.123  12.190   1.260  0.1230  0.3298 -0.1862
 7141W        W23215   8.434   4.870   1.896 -0.1468 -0.0655  0.1329
 7142W        W23216  11.510  14.981  11.780 -0.2946 -0.1760 -0.1385
 7143W        W23217  14.091   1.941   5.405  0.2197  0.0745 -0.0103
 7144W        W23218   4.168  13.887  13.064 -0.2295 -0.1106  0.1636
 7145W        W23219  11.131   9.166  12.322 -0.0402  0.1031 -0.1388
 7146W        W23220  12.101   2.231  15.835  0.0265 -0.1583 -0.4258
 7147W        W23221   4.089   6.455   5.530 -0.1161  0.1363 -0.2256
 7148W        W23222   9.373   6.793  16.058 -0.1832  0.0946 -0.0395
 7149W        W23223  11.859   3.375   1.736  0.1272  0.1899  0.0755
 7150W        W23224   6.010   7.873  14.709  0.1521  0.0107  0.0630
 7151W        W23225  17.175   3.789  10.778 -0.0789 -0.0441  0.0084
 7152W        W23226  16.108   7.163   4.996  0.0511  0.1909  0.1403
 7153W        W23227  15.921   3.117   4.587 -0.2238 -0.0147 -0.0561
 7154W        W23228   5.204   9.628  13.939  0.1500  0.1998  0.2115
 7155W        W23229   1.943   8.940   4.592  0.0148  0.3089 -0.4927
 7156W        W23230   0.069  11.942   4.743  0.0530 -0.1168 -0.0464
 7157W        W23231   0.565  16.226  16.038  0.1294 -0.1512 -0.1090
 7158W        W23232  17.057  13.827   4.960  0.1440  0.2086 -0.3375
 7159W        W23233   1.492  11.150  14.346 -0.0086 -0.2078  0.2298
 7160W        W23234   7.410  14.752   5.592  0.1385 -0.1593 -0.1858
 7161W        W23235   4.635  13.801   4.832 -0.0255  0.4243  0.0848
 7162W        W23236   0.468   6.908   4.206  0.2570  0.0750 -0.0929
 7163W        W23237   1.260  15.184   1.792  0.0885 -0.1624 -0.1959
 7164W        W23238   8.841  10.814  15.960 -0.0672  0.1239 -0.2398
 7165W        W23239  11.816  13.199  14.266  0.0896  0.0031  0.0100
 7166W        W23240   4.536  13.696   0.754  0.0632  0.1137 -0.1680
 7167W        W23241   0.961   9.172  11.071 -0.0780  0.3378  0.1618
 7168W        W23242  13.910   1.272   1.795  0.2096  0.0644 -0.0882
 7169W        W23243   6.680  14.122  15.988  0.1596  0.2641 -0.1913
 7170W        W23244   5.286   7.815  14.377  0.1386 -0.1042  0.2287
 7171W        W23245   1.686  15.529  15.604 -0.0396  0.1120  0.2472
 7172W        W23246   8.697  17.859   1.765  0.4116 -0.0912  0.0235
 7173W        W23247  16.132  17.755  13.604  0.1606  0.1132 -0.2710
 7174W        W23248  10.669  16.599   3.096  0.0069  0.4288 -0.0699
 7175W        W23249  12.428  11.668   4.942 -0.3390 -0.0910 -0.0543
 7176W        W23250  15.059   7.249   2.087  0.2385 -0.2533 -0.1415
 7177W        W23251  10.367   1.246   1.540 -0.0570  0.1549  0.3761
 7178W        W23252  14.996   5.998  11.233 -0.1067  0.4711 -0.0024
 7179W        W23253   2.327  13.508  15.539 -0.1223 -0.0965  0.0131
 7180W        W23254  11.623   4.381  15.390 -0.1502 -0.0032 -0.0487
 7181W        W23255  11.999   9.542  13.312  0.2797  0.0466 -0.0692
 7182W        W23256  14.062   6.506   5.047 -0.2592  0.0477  0.0303
 7183W        W23257   8.303  12.179   0.513 -0.1375 -0.1092 -0.1480
 7184W        W23258   5.033  16.707   2.810 -0.0694 -0.2602  0.3584
 7185W        W23259  15.269  13.223  11.312 -0.0010  0.0266 -0.0984
 7186W        W23260  17.203  10.969  13.898 -0.1422  0.0236 -0.1278
 7187W        W23261   4.748   2.462   2.497 -0.1775  0.1455  0.0195
 7188W        W23262  14.436  14.144   2.881  0.0718  0.0659  0.2029
 7189W        W23263   9.436  13.146  14.671  0.1835  0.0649 -0.0285
 7190W        W23264   5.468  16.965   1.733 -0.0650  0.1300 -0.0139
 7191W        W23265  11.820   0.320  12.879  0.1882  0.1441 -0.1377
 7192W        W23266  17.585   8.425   0.405 -0.3116  0.0209 -0.3000
 7193W        W23267   1.207   9.766   0.058 -0.1119 -0.1754 -0.1424
 7194W        W23268  16.066  15.331   4.798  0.1886  0.1155  0.2643
 7195W        W23269  17.402   0.101   1.631  0.2590  0.2352 -0.2471
 7196W        W23270  12.605  16.637  15.234 -0.0470 -0.0532 -0.0880
 7197W        W23271  16.583   3.631   4.743  0.3106 -0.3378 -0.1853
 7198W        W23272  15.683   6.833   2.836 -0.3225 -0.0112  0.0270
 7199W        W23273   0.663   2.320  14.470 -0.0940  0.3829 -0.0184
 7200W        W23274  16.403  11.398  12.642 -0.2158 -0.1092 -0.1852
 7201W        W23275   8.273  12.032   2.809 -0.1694  0.0515  0.0045
 7202W        W23276  18.072  10.047  13.063  0.0365 -0.1272 -0.1410
 7203W        W23277  11.100  15.872  15.565 -0.4687  0.0214  0.1312
 7204W        W23278   3.378  16.697  14.169  0.0215 -0.1602  0.2975
 7205W        W23279   5.804  15.208  15.439 -0.3061  0.2717 -0.0766
 7206W        W23280   3.638  16.480   2.600  0.1733 -0.0051  0.3992
 7207W        W23281   4.178   9.308   6.564  0.1079  0.0403  0.1663
 7208W        W23282   4.260   6.892  14.679 -0.0704  0.1104  0.3146
 7209W        W23283  10.275   5.613   3.874 -0.2028 -0.2574  0.1358
 7210W        W23284  13.698  13.699  11.654 -0.1341 -0.1772 -0.1211
 7211W        W23285  12.112  16.702  13.476 -0.1338 -0.1781 -0.1663
 7212W        W23286   2.669  12.535   5.402  0.1937  0.3369  0.1176
 7213W        W23287  13.945  16.097   4.712  0.2248  0.0095 -0.1798
 7214W        W23288  17.770  17.803  15.911 -0.1475  0.1225 -0.2248
 7215W        W23289   7.436   7.796   4.209  0.1238 -0.1355 -0.0595
 7216W        W23290  16.011   5.949   1.525 -0.0293  0.1921 -0.3123
 7217W        W23291  15.172   0.578   0.452 -0.1872 -0.2951  0.4681
 7218W        W23292   9.297   9.841   3.687 -0.0175  0.0961 -0.4184
 7219W        W23293  15.933   7.029   4.481  0.1388  0.1412  0.0457
 7220W        W23294   4.717   7.125   0.680  0.1011  0.0339 -0.1288
 7221W        W23295   8.222   9.808   0.787  0.0582 -0.1084  0.3000
 7222W        W23296  14.926   1.841  15.705 -0.1967  0.0547 -0.0538
 7223W        W23297   8.489   6.065  12.015  0.0598  0.0859  0.0374
 7224W        W23298  12.452  11.865   3.262  0.1478  0.2766  0.1143
 7225W        W23299   1.059  12.308  13.671 -0.0804 -0.2302  0.0254
 7226W        W23300   5.348   7.916   3.231  0.0507 -0.1105  0.1816
 7227W        W23301   3.119  16.176   2.709 -0.0837  0.2919  0.0352
 7228W        W23302   8.837   0.973  15.782 -0.2577  0.0711  0.0086
 7229W        W23303  11.435   6.818   0.052  0.1569  0.0261 -0.4336
 7230W        W23304  15.588   0.098  14.549 -0.2240  0.1173  0.2679
 7231W        W23305  14.770  17.444  15.546 -0.0206  0.0104  0.1629
 7232W        W23306  13.199   3.135   1.380 -0.1441  0.0284 -0.1641
 7233W        W23307   4.141   0.629   4.782 -0.2543  0.0204 -0.1640
 7234W        W23308   4.517   0.396  14.329 -0.0604 -0.0982  0.2438
 7235W        W23309   0.701  17.640  14.292  0.1445  0.0617  0.4336
 7236W        W23310   0.540   8.291   3.281  0.1440 -0.1999  0.1622
 7237W        W23311  13.478   4.872   4.265 -0.1745 -0.1805  0.0487
 7238W        W23312   9.018  13.510   2.090 -0.1998  0.4901 -0.2074
 7239W        W23313   6.454   2.362  15.796  0.0324  0.4285  0.1560
 7240W        W23314   2.247  13.729  13.908  0.3986 -0.3807  0.2326
 7241W        W23315   4.314   8.372   2.225 -0.3230 -0.0843 -0.2350
 7242W        W23316   8.791   3.017   3.652 -0.0933  0.0478  0.3109
 7243W        W23317   3.274  17.497   3.118  0.2946  0.3620  0.3250
 7244W        W23318  13.110  16.490   1.920 -0.0919 -0.1481  0.0618
 7245W        W23319   7.886   9.076  12.000  0.2184 -0.2592  0.0739
 7246W        W23320  12.325   3.954   5.068  0.0855 -0.3174  0.0883
 7247W        W23321  17.740   2.232   0.938  0.0715  0.0078 -0.3108
 7248W        W23322   1.461   1.996  10.896  0.1018  0.1571 -0.1745
 7249W        W23323  11.323  11.578   6.328  0.1421 -0.0054  0.3297
 7250W        W23324  12.302  12.135   4.764 -0.2538 -0.1480  0.1200
 7251W        W23325   5.836   8.029   1.288 -0.1251  0.2650 -0.0975
 7252W        W23326  12.147   9.890  16.524 -0.1284  0.0104  0.0136
 7253W        W23327  15.747  15.264  12.138 -0.2274 -0.0970  0.2693
 7254W        W23328   0.945  12.967   1.670  0.0154 -0.0136  0.1456
 7255W        W23329   6.101  15.968   4.433  0.1041 -0.0546 -0.2381
 7256W        W23330  14.635  15.418   4.483  0.0874 -0.3188 -0.2254
 7257W        W23331   5.627   5.120   0.799  0.0488 -0.0736 -0.0866
 7258W        W23332   4.868  11.281  16.405  0.0504  0.2213  0.2620
 7259W        W23333  17.143  16.906   1.881 -0.0422  0.2073 -0.1127
 7260W        W23334   6.048  15.793   2.138  0.0096 -0.0825  0.4033
 7261W        W23335   3.493   8.528  11.124  0.1513 -0.2775  0.0306
 7262W        W23336   7.645  16.179  16.250  0.0475 -0.3536 -0.1229
 7263W        W23337   6.343   9.940  14.073 -0.4092 -0.2565 -0.2095
 7264W        W23338  16.670  17.379  12.211  0.0171  0.3982  0.0057
 7265W        W23339   3.097   1.527   0.151 -0.0645  0.2563  0.2649
 7266W        W23340  14.714  12.000   2.811 -0.0036  0.0101 -0.2285
 7267W        W23341  11.174  11.164   4.674 -0.0517  0.2264  0.2854
 7268W        W23342  15.980   1.195  14.056 -0.1515  0.2376  0.3730
 7269W        W23343   9.362   5.266   3.832  0.0902 -0.0466 -0.0264
 7270W        W23344   0.538   2.680   5.881  0.3165 -0.0651 -0.0968
 7271W        W23345  12.572  16.940  11.814 -0.2061  0.1545  0.1895
 7272W        W23346  15.546  15.225   0.496  0.1095  0.1072 -0.0990
 7273W        W23347   4.449   5.500  15.085 -0.1472  0.3836  0.2504
 7274W        W23348  11.831   9.630   2.047  0.1378  0.0525 -0.0914
 7275W        W23349  17.481   9.550  10.983 -0.1334  0.0723 -0.1474
 7276W        W23350  12.629   1.829   3.718  0.1090  0.0247  0.2067
 7277W        W23351   7.763  13.636   0.703 -0.0038 -0.0816 -0.0906
 7278W        W23352   5.014   2.227  14.175  0.2190  0.3721  0.0251
 7279W        W23353  11.355   7.852   4.571 -0.1573 -0.0346 -0.2001
 7280W        W23354   9.135  15.618  14.871  0.0069  0.1327 -0.1262
 7281W        W23355   8.553   8.398   6.030 -0.1990  0.2040  0.0268
 7282W        W23356  13.855   0.151  10.728  0.1354  0.1347 -0.0025
 7283W        W23357   7.567   9.322  13.748  0.1794  0.0404 -0.0906
 7284W        W23358  12.163  14.197   0.273  0.3781 -0.0082 -0.0655
 7285W        W23359   0.535   2.218   4.136 -0.0731 -0.0018 -0.0437
 7286W        W23360  17.036   0.551  11.562  0.0113 -0.0085  0.2294
 7287W        W23361   5.445   2.192  15.104 -0.1703 -0.2880 -0.2480
 7288W        W23362  12.290   6.949   4.672  0.1006  0.3290  0.1339
 7289W        W23363   6.958  14.301  14.917  0.2717  0.1420  0.1109
 7290W        W23364   7.614  14.913  16.254 -0.0955 -0.0152  0.2324
 7291W        W23365  13.664   7.552  13.467 -0.2356  0.0167  0.1402
 7292W        W23366  13.565   7.899  12.131  0.2399  0.3790  0.1536
 7293W        W23367  10.648   4.490   4.750 -0.2542  0.0873 -0.2409
 7294W        W23368   5.733   3.648   1.000  0.0493 -0.0743  0.0251
 7295W        W23369   5.696  10.295  14.878  0.1962  0.2330 -0.0606
 7296W        W23370  16.362  16.128   5.035  0.0818 -0.1497 -0.1224
 7297W        W23371  16.160   0.970   3.658 -0.1452 -0.0147  0.1261
 7298W        W23372   3.537  10.256   1.196  0.0633  0.1958  0.1407
 7299W        W23373   1.049  16.616  12.585  0.0464  0.1371  0.1087
 7300W        W23374   1.712  12.521  12.742  0.2383  0.2007  0.1214
 7301W        W23375  17.330   2.735   2.153  0.0522  0.1990  0.1016
 7302W        W23376  17.795   6.098   3.074 -0.0001 -0.1946  0.0222
 7303W        W23377   4.395   1.611  11.061 -0.3352 -0.3653 -0.2002
 7304W        W23378   3.192   4.929  11.856  0.0205 -0.0050  0.0909
 7305W        W23379   8.937   6.634  13.476 -0.0941  0.0782  0.3396
 7306W        W23380   6.695  14.591   2.155  0.0128  0.1268  0.1667
 7307W        W23381   6.844   7.861  14.352  0.2657  0.2622 -0.1499
 7308W        W23382  17.534  13.806   2.310 -0.1884  0.3402 -0.2272
 7309W        W23383   3.136   9.680  12.212 -0.3608  0.1872 -0.0540
 7310W        W23384   2.036   0.120  13.162 -0.2126 -0.0144  0.1615
 7311W        W23385   8.328  14.697   1.363  0.0447  0.3309  0.0970
 7312W        W23386   6.703  16.410  14.221 -0.0693 -0.2766  0.2883
 7313W        W23387  15.048   6.270  12.047 -0.1030  0.0031 -0.1359
 7314W        W23388   8.199  11.860   2.282 -0.1176  0.4221  0.0331
 7315W        W23389   6.156  17.126  12.773  0.0772  0.1004  0.0099
 7316W        W23390   2.735  11.333  12.891  0.0759  0.0019  0.0544
 7317W        W23391  12.898  14.027  16.234 -0.1405  0.1979 -0.0774
 7318W        W23392   6.694   0.065   2.032 -0.0435  0.2155 -0.0149
 7319W        W23393  11.752  12.477  13.171  0.1885 -0.0153  0.0289
 7320W        W23394  15.097   2.015   3.793 -0.1745 -0.2177  0.2263
 7321W        W23395   5.272  17.534  13.083 -0.3050  0.1449 -0.0418
 7322W        W23396   8.337   5.438   1.634 -0.0599 -0.2648  0.3957
 7323W        W23397  11.115   2.732  12.767 -0.0251 -0.1509 -0.0610
 7324W        W23398   5.298  14.513  12.427 -0.0407 -0.0204 -0.0332
 7325W        W23399  12.036  17.674  16.280  0.1292 -0.0399 -0.0965
 7326W        W23400   7.396   0.741   3.044 -0.1602  0.0538  0.2790
 7327W        W23401   7.928  17.749  14.940 -0.0748 -0.3904 -0.3178
 7328W        W23402  17.621  17.565   4.687  0.0323  0.3226 -0.2032
 7329W        W23403  16.525   0.014  11.893  0.3769 -0.2077 -0.1908
 7330W        W23404   1.088  17.231  15.934  0.2480  0.2324 -0.1091
 7331W        W23405  10.171  14.238   0.920  0.0307  0.2456  0.2687
 7332W        W23406  17.183   1.538   1.988  0.1261 -0.1470 -0.1487
 7333W        W23407  10.662  18.150  14.229 -0.3386  0.1239  0.5396
 7334W        W23408  17.160   6.980  12.027  0.1151 -0.1152  0.2709
 7335W        W23409  13.578  17.314  15.060 -0.1771  0.4237 -0.0846
 7336W        W23410   7.375  10.165   2.612 -0.1505 -0.2246 -0.2485
 7337W        W23411   4.466   3.426   3.662  0.1045 -0.0636  0.0543
 7338W        W23412   9.363  17.362  16.428  0.1958 -0.2720 -0.3003
 7339W        W23413   2.697   9.947  15.135 -0.1962 -0.2348  0.2608
 7340W        W23414   5.344  14.603  13.327  0.2783  0.0161  0.1553
 7341W        W23415   1.790  17.276  15.349 -0.0632 -0.0925  0.1520
 7342W        W23416  14.920   4.047  11.524  0.1708 -0.0199 -0.1328
 7343W        W23417   8.115  10.340   1.485  0.1179  0.1101  0.1557
 7344W        W23418   8.346  11.926  14.775 -0.1931 -0.4045 -0.1629
 7345W        W23419  14.781  14.620   1.546 -0.0071 -0.0054 -0.1464
 7346W        W23420  17.973   4.401   4.009 -0.1256 -0.0865 -0.0613
 7347W        W23421  15.982  14.331   2.162  0.2855 -0.2365 -0.2692
 7348W        W23422   5.560   8.894  11.305  0.2124  0.1043 -0.1095
 7349W        W23423  13.230   3.715   5.105  0.1174  0.0072 -0.0578
 7350W        W23424   2.695  12.905   5.024  0.1634  0.3611 -0.1747
 7351W        W23425   0.702   0.670   3.206  0.2832 -0.2197 -0.0124
 7352W        W23426   0.255  10.154   5.253 -0.0186 -0.2061  0.1688
 7353W        W23427  13.559  14.831   1.756  0.1284  0.0698  0.0677
 7354W        W23428  12.783  17.185  14.228  0.0436  0.0211 -0.3858
 7355W        W23429  18.106   7.905   4.236  0.0932  0.5993 -0.1795
 7356W        W23430  15.457   5.671   3.306 -0.0263 -0.0857  0.1090
 7357W        W23431  13.838   4.859  14.163  0.2091 -0.0284 -0.4430
 7358W        W23432  16.170   8.180   4.762 -0.0720  0.1624 -0.0176
 7359W        W23433   1.173   5.372  12.812 -0.0533 -0.2091 -0.1477
 7360W        W23434   8.191   8.279  14.698  0.1011 -0.2025 -0.1891
 7361W        W23435   5.680   5.159  13.417 -0.0109  0.1014  0.2305
 7362W        W23436  11.787  11.819  16.012  0.1518 -0.1694  0.0474
 7363W        W23437  16.523   5.894   5.422  0.0911 -0.0160 -0.1999
 7364W        W23438  12.928   5.862   4.726 -0.0626 -0.1366 -0.2159
 7365W        W23439   7.437   3.473   3.170 -0.2113  0.1854  0.3484
 7366W        W23440   2.142   6.858  14.875  0.1073 -0.2753  0.1189
 7367W        W23441   8.307   5.443   2.687  0.0208 -0.1472 -0.2967
 7368W        W23442  10.014   0.891   1.431 -0.1826  0.1593 -0.0411
 7369W        W23443  13.291   6.206  15.012  0.1187 -0.1211 -0.3984
 7370W        W23444  12.659   5.629   5.706  0.0717  0.1029 -0.2259
 7371W        W23445  18.026   1.081   4.438  0.4053  0.3315 -0.2147
 7372W        W23446  16.172   9.211  11.564 -0.0800  0.0675 -0.1741
 7373W        W23447  17.480  14.462  13.918  0.0365  0.1853  0.1971
 7374W        W23448   3.317  13.213  11.416  0.2338 -0.2203 -0.0342
 7375W        W23449  17.486   8.927   0.667 -0.0652 -0.0497 -0.2966
 7376W        W23450  13.114   2.320   4.170  0.0346 -0.1120  0.1413
 7377W        W23451  16.486   2.817  14.982  0.3931  0.2818  0.1769
 7378W        W23452  16.962  14.564   5.587  0.3776 -0.4142 -0.3959
 7379W        W23453  17.713   3.461  15.593  0.3540 -0.2165  0.0914
 7380W        W23454   2.754   4.175   0.685 -0.2630  0.1984 -0.3910
 7381W        W23455   6.376  15.041  12.604 -0.0615 -0.1554 -0.0342
 7382W        W23456  12.435  10.381  15.492 -0.0126 -0.1208  0.2357
 7383W        W23457   7.695   7.911   4.641  0.2499  0.2297 -0.0952
 7384W        W23458   9.054   2.894   6.149 -0.0189 -0.3481  0.2842
 7385W        W23459   0.551  14.940  14.226 -0.0915 -0.0264  0.2690
 7386W        W23460  15.553   5.660  15.853 -0.0205 -0.2464 -0.3113
 7387W        W23461   2.698   1.116   3.537 -0.2070  0.0062 -0.0870
 7388W        W23462   9.221  16.620  12.460  0.2676 -0.1543 -0.0087
 7389W        W23463  10.572  15.184  14.735 -0.2824  0.1691 -0.0964
 7390W        W23464   8.873   4.466   1.474  0.0003 -0.1510 -0.1342
 7391W        W23465   4.888  17.273  15.336  0.0431  0.0250  0.0319
 7392W        W23466   9.326   6.446  11.793 -0.3023  0.2992  0.0395
 7393W        W23467   4.763  12.810   1.728 -0.0997  0.1310  0.0351
 7394W        W23468  16.242  13.293  16.418 -0.2097 -0.0538 -0.0896
 7395W        W23469   8.854   6.342   1.814  0.3525  0.1051 -0.0590
 7396W        W23470   5.293   8.296  13.001  0.0729  0.1716 -0.0113
 7397W        W23471   1.332   1.345  12.720 -0.1899  0.0612 -0.3420
 7398W        W23472  15.514  15.385  12.876 -0.1849 -0.2925 -0.3909
 7399W        W23473   8.266  13.527   2.706  0.0914  0.1215 -0.0508
 7400W        W23474   0.589  10.920   2.236 -0.1661 -0.2150  0.0847
 7401W        W23475  17.289  10.824  14.505  0.0188 -0.3263  0.0915
 7402W        W23476   8.369  11.428  14.481  0.2645  0.1696  0.0824
 7403W        W23477   0.354   1.477   2.888  0.0020  0.3160  0.0876
 7404W        W23478  10.895   9.426   1.384  0.0836  0.1489  0.2206
 7405W        W23479   2.688   3.896  14.716  0.2059  0.3302  0.2739
 7406W        W23480  14.899   8.750  13.410  0.0166 -0.0455 -0.0698
 7407W        W23481  10.589   5.195   5.274  0.1879  0.0298  0.3130
 7408W        W23482  14.129   9.280   5.031  0.3004  0.2632 -0.4478
 7409W        W23483   8.228  15.542   1.653  0.1673  0.2009  0.1593
 7410W        W23484   4.453  16.349   0.280  0.0868 -0.0794 -0.2657
 7411W        W23485   1.170   8.063  15.985 -0.1591  0.1819 -0.4077
 7412W        W23486   1.818  15.953   2.856 -0.3033  0.4890 -0.0538
 7413W        W23487  15.936   0.100  15.283 -0.1771 -0.0713  0.0482
 7414W        W23488   6.415  12.932   5.584 -0.0267 -0.0134  0.1441
 7415W        W23489  16.728  12.502  11.783  0.3045 -0.1342  0.0462
 7416W        W23490   6.830  18.107   4.385  0.1958  0.1707  0.1114
 7417W        W23491   8.504  11.467   4.900  0.3983  0.0216  0.1366
 7418W        W23492  14.567  10.547   5.537 -0.1627  0.0473  0.3737
 7419W        W23493   3.918  11.112   2.609 -0.1177  0.0838 -0.0589
 7420W        W23494  13.057  10.990   4.958 -0.1137  0.0047  0.0176
 7421W        W23495  12.264  16.136   2.538 -0.1061  0.2182 -0.2405
 7422W        W23496  17.036  14.589  14.176 -0.1883  0.0573 -0.0153
 7423W        W23497   3.945   2.159   0.986  0.0711 -0.0741  0.2709
 7424W        W23498   6.065  13.293  16.310  0.0832  0.0023  0.1872
 7425W        W23499   6.986   3.820   2.376  0.0228 -0.0341 -0.0107
 7426W        W23500   3.673   6.776  12.120  0.0180  0.2192 -0.0077
 7427W        W23501  11.619   2.380  12.976 -0.3554 -0.3743  0.2085
 7428W        W23502   4.509  15.726   3.069  0.0065  0.2737  0.3249
 7429W        W23503  14.480   6.582  13.046  0.1392  0.2302 -0.0280
 7430W        W23504   8.006  10.554   5.367 -0.0380  0.0123 -0.1332
 7431W        W23505  17.148   7.267  12.488 -0.0386 -0.2670 -0.1616
 7432W        W23506   6.724   7.109   0.670 -0.1066 -0.2745  0.0459
 7433W        W23507   6.635   6.241  14.846  0.1350 -0.2198  0.0040
 7434W        W23508   8.866   4.282  11.572  0.0618 -0.1767 -0.1698
 7435W        W23509  16.108   1.605  14.513 -0.0999  0.3672  0.2378
 7436W        W23510   5.552   0.793  14.930 -0.3657 -0.0451  0.1027
 7437W        W23511   7.109   0.127   1.061 -0.0669  0.1968 -0.1384
 7438W        W23512   7.783  13.611   5.034 -0.1542 -0.1212 -0.1874
 7439W        W23513  12.383  17.278   2.297  0.0193 -0.2643  0.0974
 7440W        W23514  16.330   6.390  12.321  0.0483  0.2715  0.0761
 7441W        W23515   1.579  11.364   5.227  0.2423 -0.2517  0.0488
 7442W        W23516  14.408  10.464  12.464 -0.0594 -0.1391  0.0030
 7443W        W23517  18.208   3.133   3.727  0.0584  0.1764 -0.0861
 7444W        W23518  10.746   7.118  12.028  0.1673 -0.0617 -0.3466
 7445W        W23519   0.273   8.841   5.707 -0.2352 -0.2200 -0.1117
 7446W        W23520  16.281  15.863  11.491 -0.1109  0.0925  0.2501
 7447W        W23521   6.223   7.273  13.247  0.0084  0.3440 -0.2172
 7448W        W23522   3.429  17.635  12.694 -0.1557  0.1030  0.2136
 7449W        W23523   3.087   1.889  14.257  0.1758  0.1400 -0.1862
 7450W        W23524  17.145   8.814  12.666 -0.0331 -0.0157 -0.0569
 7451W        W23525  12.450   3.124   0.816  0.1655  0.1428  0.0727
 7452W        W23526   4.672   7.548   1.917  0.3499  0.3712  0.0828
 7453W        W23527   4.531  14.863  14.372 -0.0617  0.0699  0.2860
 7454W        W23528  14.866  14.048   0.844  0.0587  0.0581 -0.1727
 7455W        W23529   8.872  15.352  10.538  0.1233 -0.0938 -0.2157
 7456W        W23530  15.740  14.476  13.223 -0.2127 -0.2765  0.0570
 7457W        W23531   6.974   7.671   2.096 -0.2044  0.1989 -0.1171
 7458W        W23532  15.546   9.484  12.854  0.1133 -0.1069 -0.0122
 7459W        W23533  16.683  15.482  10.972  0.0312 -0.0709  0.2587
 7460W        W23534  15.506  12.958   0.926  0.1131 -0.1197 -0.1756
 7461W        W23535  14.386   9.872   1.853  0.1468  0.0558 -0.3576
 7462W        W23536   5.906  12.279  13.576  0.1644 -0.1149  0.0151
 7463W        W23537   9.410  10.348  16.483 -0.2025  0.1437  0.0393
 7464W        W23538   6.493   4.368   5.241 -0.0932 -0.1148  0.1287
 7465W        W23539  16.845   2.126  13.462 -0.1084  0.0369  0.0738
 7466W        W23540  15.928  16.364   4.989 -0.1208 -0.4359  0.1267
 7467W        W23541  15.359  15.541   4.157 -0.0820 -0.3201  0.1447
 7468W        W23542  10.908  10.581  13.432  0.0218  0.1027 -0.4024
 7469W        W23543  11.292  17.313   1.246 -0.5140  0.2150 -0.0178
 7470W        W23544   0.859  10.517   1.437 -0.1358  0.0814  0.0229
 7471W        W23545   0.537  14.980   2.515  0.2845 -0.4129  0.0850
 7472W        W23546   8.983  10.790   4.135  0.2875  0.1328 -0.0477
 7473W        W23547  12.328  10.707   1.706  0.0207 -0.2029  0.1627
 7474W        W23548  15.315  15.721   2.985 -0.2083  0.2064 -0.1388
 7475W        W23549  14.574   9.027  14.797  0.1434 -0.2946  0.0577
 7476W        W23550  12.266   1.326  13.762 -0.2256 -0.1198 -0.0354
 7477W        W23551  11.360  10.417   5.693 -0.1546  0.1087 -0.2427
 7478W        W23552  17.164   4.267   6.289  0.4888  0.1245 -0.0900
 7479W        W23553  13.984  16.017   1.945 -0.1905 -0.0305  0.1506
 7480W        W23554  14.894   1.678   2.814 -0.2774  0.0437  0.2702
 7481W        W23555   6.009   9.822   2.647 -0.1628 -0.0878 -0.2410
 7482W        W23556   9.986   5.998  13.421 -0.0016 -0.0251 -0.1305
 7483W        W23557  17.789  16.246   3.599 -0.1703 -0.2711 -0.1554
 7484W        W23558   5.917   0.532  12.455 -0.0511 -0.2522 -0.1944
 7485W        W23559  18.088  15.338   4.958  0.1489 -0.2372 -0.1331
 7486W        W23560   6.601   6.195   5.391  0.1333  0.0257 -0.2192
 7487W        W23561   1.914   0.381   2.388 -0.0143 -0.3052  0.1566
 7488W        W23562   1.274   1.138  13.614 -0.0300  0.1365  0.1603
 7489W        W23563   5.178   1.360   4.830 -0.0245  0.0539 -0.1576
 7490W        W23564   0.574  11.690   2.730  0.0165  0.3190  0.0495
 7491W        W23565   3.222   6.789   5.173  0.0886  0.0631  0.2779
 7492W        W23566  15.932  16.440  15.674  0.2827 -0.0972 -0.2058
 7493W        W23567  17.455   2.848   4.679  0.1951 -0.3547 -0.0038
 7494W        W23568   0.628  11.538  13.953  0.0009 -0.0011  0.0440
 7495W        W23569   0.360  12.516  13.772 -0.0167 -0.3789  0.1716
 7496W        W23570  10.716   0.444  11.835  0.1646 -0.1050 -0.0585
 7497W        W23571   2.445   4.474  12.208 -0.0290 -0.0855 -0.2125
 7498W        W23572  18.077   6.311  11.250  0.1993  0.2759  0.1447
 7499W        W23573   6.861  17.585   1.514  0.1730  0.0937 -0.0379
 7500W        W23574   2.571   6.010   0.409 -0.1068 -0.1016  0.1777
 7501W        W23575   8.794   7.191  15.598 -0.1039 -0.1148  0.1382
 7502W        W23576  17.506  17.434   4.198 -0.0662 -0.0770  0.1399
 7503W        W23577  13.276   5.688   3.118  0.1530 -0.3346 -0.2384
 7504W        W23578   7.715  10.742   0.568  0.1342 -0.0393 -0.0562
 7505W        W23579   0.538   0.189   0.583 -0.1698  0.1550 -0.1182
 7506W        W23580   3.318  10.437   2.852 -0.2826  0.3201  0.3088
 7507W        W23581   2.717  15.167   4.211 -0.2778  0.1422  0.1926
 7508W        W23582  17.565  12.658  15.371 -0.1198 -0.0681 -0.5147
 7509W        W23583   3.140  18.152   5.320  0.1442 -0.0294 -0.1275
 7510W        W23584  13.091  16.860  11.702 -0.0566  0.1652  0.1093
 7511W        W23585   8.908  10.673   4.635  0.3762 -0.2059 -0.1975
 7512W        W23586   6.714   6.570  16.240  0.2422  0.0937 -0.1662
 7513W        W23587   6.076   4.921  14.250 -0.1210  0.1013  0.3233
 7514W        W23588   0.647  17.921   1.537  0.0861  0.2001  0.1999
 7515W        W23589   1.317   7.821   0.334 -0.1667 -0.0209  0.0532
 7516W        W23590   4.884  17.999  16.436  0.1614  0.1114 -0.5526
 7517W        W23591  10.661   8.145  13.093 -0.0049  0.0372 -0.1343
 7518W        W23592  13.577  14.502   3.854  0.0933  0.0378  0.2899
 7519W        W23593   4.132   3.253   4.610  0.0413  0.4340  0.4713
 7520W        W23594   6.468   5.236   4.728 -0.3542  0.0457  0.1776
 7521W        W23595  10.418   2.479   2.015  0.2309  0.1543 -0.0098
 7522W        W23596   2.669   4.599  13.298  0.1161  0.0392  0.2566
 7523W        W23597   4.938   0.863  12.264  0.4154 -0.0726 -0.1489
 7524W        W23598  17.909  13.037   4.800  0.0065  0.0730  0.1100
 7525W        W23599  17.541  17.932  14.409 -0.3045  0.3101 -0.1582
 7526W        W23600   6.324   0.029  14.403 -0.1167 -0.0051  0.0069
 7527W        W23601   5.167   3.046   1.400  0.1952  0.1873  0.1882
 7528W        W23602  17.766  13.290   3.660 -0.1087  0.1004 -0.1054
 7529W        W23603   9.416  13.540  12.805  0.0371 -0.1428 -0.1373
 7530W        W23604   4.274   4.153   0.245 -0.0221  0.0057 -0.4471
 7531W        W23605   0.169  10.099   4.133 -0.2219 -0.0005  0.0062
 7532W        W23606  11.266  10.204   6.132 -0.0942  0.1544  0.0958
 7533W        W23607   9.208  15.974   3.098  0.2101  0.1255  0.0674
 7534W        W23608   6.296  13.813  16.140  0.2976  0.0470 -0.1368
 7535W        W23609  12.846  11.491   5.872  0.2204  0.0936  0.0733
 7536W        W23610   4.884   4.453  15.763 -0.2966 -0.0078  0.0983
 7537W        W23611   5.007   2.022   3.956 -0.2522 -0.1752 -0.2188
 7538W        W23612  16.334  12.090   2.188  0.1741  0.0467 -0.3450
 7539W        W23613   7.461  16.102   1.670  0.3682 -0.3740 -0.0043
 7540W        W23614   6.076  12.186   5.261 -0.0747 -0.0516  0.0410
 7541W        W23615  10.058   6.111   3.674 -0.1230 -0.0136  0.2390
 7542W        W23616  12.962  13.732   2.279  0.0828  0.0223 -0.0358
 7543W        W23617   1.563  16.941   1.771 -0.2329  0.2725 -0.0459
 7544W        W23618   3.501  10.406  14.740 -0.0698 -0.0459  0.0919
 7545W        W23619  15.428   7.087   5.361 -0.2881 -0.1515  0.1462
 7546W        W23620   6.080   4.824  12.297 -0.4090 -0.0467  0.0911
 7547W        W23621  12.176  11.226  13.113  0.0027  0.2495 -0.0001
 7548W        W23622  12.808  14.536   2.937 -0.0681  0.0791  0.1801
 7549W        W23623   0.072  12.240   3.328 -0.1664 -0.1597  0.2501
 7550W        W23624   2.100   9.094   1.050  0.0214 -0.0173  0.0904
 7551W        W23625  17.720   3.320   4.065 -0.0348 -0.0511  0.0931
 7552W        W23626  11.766   0.598   4.681  0.2452 -0.0081  0.2387
 7553W        W23627  10.067  15.211   0.837 -0.0809  0.0499 -0.0732
 7554W        W23628   4.538  14.221  15.127 -0.1045  0.0633 -0.3006
 7555W        W23629  14.875  12.213   5.063 -0.1122 -0.1182 -0.2812
 7556W        W23630   9.592   2.921   4.040  0.0745  0.1653 -0.1030
 7557W        W23631   0.972   5.133   2.825  0.0280  0.1825  0.1104
 7558W        W23632  12.781  11.729  16.137  0.1919  0.1114  0.1183
 7559W        W23633   2.686   9.117  16.457  0.4982  0.0611 -0.0663
 7560W        W23634   8.697   9.214  13.583 -0.3511  0.0326  0.0828
 7561W        W23635   5.336   4.168   4.137 -0.2313  0.0168  0.3076
 7562W        W23636  14.178   8.510  12.850  0.1384  0.0809 -0.0235
 7563W        W23637   8.583   0.270   4.373  0.2326 -0.0417  0.1270
 7564W        W23638   3.658  14.504   2.909 -0.2572  0.3633  0.3160
 7565W        W23639  15.510   5.812  14.377 -0.0236 -0.0490  0.3559
 7566W        W23640   4.338  15.398   4.329  0.1230 -0.5580  0.0541
 7567W        W23641  15.744  12.272  12.932  0.1176  0.0832  0.0260
 7568W        W23642   6.088   9.131  12.251 -0.0424 -0.2235 -0.0574
 7569W        W23643  16.847   8.073  13.630  0.2352  0.0977 -0.1025
 7570W        W23644  17.604   7.719   2.275  0.1916  0.3201  0.0156
 7571W        W23645  10.918   7.280   2.644  0.0538 -0.1330  0.0801
 7572W        W23646   2.222  14.782  12.180  0.2248 -0.0062 -0.0094
 7573W        W23647   1.487  11.213  16.126 -0.0198  0.0536  0.0706
 7574W        W23648   6.262  16.277   4.858 -0.0346 -0.1816 -0.0187
 7575W        W23649   8.357   4.174   3.678 -0.2501  0.1573 -0.0574
 7576W        W23650   1.992  13.083   4.306 -0.0562  0.0569  0.1779
 7577W        W23651  17.507  17.003  14.733  0.0950 -0.0003  0.1856
 7578W        W23652   7.872   7.596  15.975 -0.3326  0.1197  0.1355
 7579W        W23653   9.439   0.281   2.795 -0.0427  0.1424  0.0116
 7580W        W23654  12.172   2.116  15.138 -0.2079 -0.0975  0.0273
 7581W        W23655   4.157  17.855   3.729 -0.0118 -0.4238 -0.0973
 7582W        W23656  11.725   1.607  16.337 -0.0108  0.1051  0.0142
 7583W        W23657   9.545   0.055  15.574 -0.0432 -0.2797 -0.0768
 7584W        W23658  17.098   8.832   4.273  0.1968 -0.2820  0.0287
 7585W        W23659   1.116  11.386  16.404 -0.1772  0.0163 -0.3678
 7586W        W23660   0.753   6.497   6.024  0.0351 -0.1314 -0.4332
 7587W        W23661   6.323   4.521  13.899 -0.1613  0.0402  0.0158
 7588W        W23662   8.975  16.207   2.185  0.1467  0.0335 -0.2223
 7589W        W23663   1.920  17.504  10.912  0.2941 -0.3186 -0.1001
 7590W        W23664   0.973   9.126  14.315 -0.0850  0.0465  0.2065
 7591W        W23665   7.133  14.378   0.931 -0.0100 -0.1615 -0.4164
 7592W        W23666  15.652  12.595   5.627 -0.2032  0.0200  0.0607
 7593W        W23667   2.779   9.502   2.880  0.2313  0.0306 -0.1782
 7594W        W23668   2.625  16.898  11.608 -0.1314 -0.1596 -0.2322
 7595W        W23669  10.628   2.196   1.579 -0.1166  0.0154 -0.1444
 7596W        W23670  14.354   3.520  12.753  0.0881 -0.1256 -0.0313
 7597W        W23671   9.132  18.169   2.735 -0.2106 -0.1530 -0.2604
 7598W        W23672  16.467   6.818  14.535  0.1118 -0.3040  0.1067
 7599W        W23673  16.421  15.325   5.130 -0.1239 -0.1392  0.0795
 7600W        W23674   1.388   2.635  13.133  0.1371  0.2187 -0.1342
 7601W        W23675   9.739  17.537   0.197  0.0980 -0.0820 -0.1160
 7602W        W23676  10.104   8.343  13.977 -0.0780  0.0605 -0.0416
 7603W        W23677  13.138   4.034  12.690  0.0259 -0.1690 -0.1010
 7604W        W23678  12.052  13.156  15.967 -0.0124 -0.1413 -0.0273
 7605W        W23679   9.277  15.249   3.436  0.2206 -0.2920 -0.0097
 7606W        W23680  16.295  11.773  11.215 -0.0801 -0.4110 -0.2997
 7607W        W23681   5.475   6.427  15.918 -0.3975  0.0824  0.0745
 7608W        W23682   3.210   5.344  12.129  0.0570  0.1609  0.2327
 7609W        W23683   7.431   8.222  16.006  0.1108 -0.0055  0.1229
 7610W        W23684   5.997  17.463  14.115  0.0852 -0.0211  0.0421
 7611W        W23685  13.794   8.329  15.883 -0.2354 -0.0668  0.2616
 7612W        W23686   8.075  17.594   2.887  0.2537  0.0149  0.0287
 7613W        W23687   5.589  11.591   3.309 -0.0058 -0.2024  0.2288
 7614W        W23688  14.084   1.988  14.851 -0.0608  0.1861  0.0251
 7615W        W23689  14.401  11.113  11.608 -0.1401  0.1766 -0.2034
 7616W        W23690   7.345   4.842   0.949  0.1721 -0.1399  0.1083
 7617W        W23691   3.262  11.350   5.016  0.0863  0.4431  0.1432
 7618W        W23692  12.494   4.613   4.591 -0.1051  0.1071  0.1070
 7619W        W23693   1.576   3.386  14.003  0.2116 -0.0588  0.1327
 7620W        W23694  13.791  14.552   0.629 -0.0265 -0.1999 -0.0466
 7621W        W23695  15.189   9.378  15.908 -0.0746  0.1996  0.0059
 7622W        W23696  16.131   2.384  10.917  0.0721 -0.0762  0.0207
 7623W        W23697  15.355  12.602  12.085 -0.5042 -0.1009  0.0635
 7624W        W23698  13.815   2.958  13.783 -0.2580 -0.0864 -0.0353
 7625W        W23699  18.077   0.338  13.603 -0.0267  0.0872  0.0171
 7626W        W23700   4.890  13.980  13.799 -0.4497  0.0623  0.0686
 7627W        W23701  13.614   0.129  15.057 -0.3962  0.0846  0.0884
 7628W        W23702  12.961  13.478   1.350  0.3783  0.2139 -0.0280
 7629W        W23703   1.226  13.708  14.639 -0.0608 -0.0812 -0.0929
 7630W        W23704  15.010  17.609  12.707  0.1431  0.0293 -0.1022
 7631W        W23705  10.548  15.518   4.415 -0.0755 -0.0297  0.1971
 7632W        W23706   7.246   5.052  15.488  0.0481  0.1721 -0.3213
 7633W        W23707  13.357  12.242   2.199  0.0856  0.0377 -0.0951
 7634W        W23708  14.454  15.133  11.523 -0.1772 -0.0791 -0.0103
 7635W        W23709   1.034   3.401  15.394  0.1785  0.1852  0.0986
 7636W        W23710   8.149  18.130  16.282  0.4763 -0.3270 -0.1431
 7637W        W23711   6.557  10.612   1.203 -0.3462  0.0889 -0.1154
 7638W        W23712  17.585  15.227   1.961  0.2981 -0.1485  0.0101
 7639W        W23713  13.380   8.679   2.767 -0.0794  0.0017 -0.0162
 7640W        W23714   4.714   7.542  15.749  0.1531 -0.0393  0.0355
 7641W        W23715  12.004   0.967   1.666 -0.0561 -0.0501  0.1355
 7642W        W23716  11.571   9.287  16.263 -0.1799 -0.1987 -0.1404
 7643W        W23717  10.806  14.479   3.601 -0.1207 -0.0506  0.1511
 7644W        W23718  11.830  11.145  13.481  0.0983 -0.0726 -0.2795
 7645W        W23719   1.091   2.196  16.092  0.1854 -0.1782  0.4115
 7646W        W23720  12.014  17.600  12.276 -0.0461  0.1073 -0.0697
 7647W        W23721  17.035   3.393   9.611  0.2752 -0.1175  0.1442
 7648W        W23722   1.396   9.326  16.428  0.0211 -0.0055 -0.0346
 7649W        W23723  13.130  17.218   0.453  0.0355  0.1063  0.0549
 7650W        W23724   7.713   5.876  13.937  0.1525 -0.2794  0.1429
 7651W        W23725   9.318   1.752  15.724  0.0394 -0.1613  0.0527
 7652W        W23726   0.281   2.493  12.401  0.2173  0.1489 -0.0387
 7653W        W23727  17.606   7.002  11.776 -0.1404 -0.0315  0.0985
 7654W        W23728  14.358   6.736   3.458  0.2848  0.0082  0.1269
 7655W        W23729   5.329   8.634   1.627  0.2392  0.1176 -0.0071
 7656W        W23730  16.597   2.773   4.331  0.0124  0.1796  0.3694
 7657W        W23731  11.120   3.731  16.444  0.2035  0.1402  0.2195
 7658W        W23732  17.122  17.773  15.357 -0.0880 -0.0507  0.1102
 7659W        W23733   2.760   9.558   4.756 -0.3464  0.3187 -0.1090
 7660W        W23734  13.273  17.721   5.908 -0.0625 -0.2088  0.3001
 7661W        W23735   0.828   3.662   2.116 -0.1806 -0.2791  0.0654
 7662W        W23736  11.364  12.069   0.709  0.1256  0.1646  0.0508
 7663W        W23737  12.436   1.820  11.553 -0.3167  0.2634 -0.0486
 7664W        W23738  16.537  13.387   3.117  0.0513 -0.0803 -0.2100
 7665W        W23739   8.151  15.396   3.989 -0.1918  0.0078 -0.2242
 7666W        W23740  10.496   4.600  14.176  0.0739  0.1139 -0.0673
 7667W        W23741  13.909  14.872  12.286 -0.1966  0.1672  0.2597
 7668W        W23742   1.335  12.369  16.361  0.0865  0.1798 -0.1208
 7669W        W23743   6.012  13.213   0.235 -0.1173  0.1130 -0.2067
 7670W        W23744  12.757  16.806   2.029  0.2153  0.1100  0.0328
 7671W        W23745  17.228   3.963  11.660  0.1753  0.4506 -0.0939
 7672W        W23746   7.882   4.445   3.504 -0.0019  0.0299 -0.2644
 7673W        W23747   0.543  15.982   2.060 -0.0270 -0.0633 -0.2847
 7674W        W23748  14.115  13.677  13.800 -0.0309 -0.2325  0.0009
 7675W        W23749  16.229   3.706   5.453 -0.2356  0.0395 -0.0222
 7676W        W23750  12.314   3.092   1.635 -0.0458  0.1709  0.1081
 7677W        W23751  16.179  13.406  12.061  0.1999  0.4104 -0.0036
 7678W        W23752   1.852  11.474   2.836 -0.0540 -0.1131  0.0113
 7679W        W23753  11.565   5.402   2.770  0.2762 -0.1225  0.1367
 7680W        W23754  15.236   4.559   4.944  0.1332  0.0750  0.0095
 7681W        W23755  18.120  12.496   4.821  0.1229 -0.2716  0.1147
 7682W        W23756  17.158   6.642  14.748  0.4046  0.3808 -0.1760
 7683W        W23757   8.398   3.270   3.471 -0.3591 -0.1308 -0.3361
 7684W        W23758   5.595   0.194   2.720  0.2259  0.0649 -0.0759
 7685W        W23759   4.625  14.736   2.943  0.0141 -0.0539 -0.2373
 7686W        W23760   3.906   2.593  13.078 -0.0613 -0.1501 -0.2068
 7687W        W23761   8.255  14.015  12.532  0.0528  0.1455 -0.0363
 7688W        W23762  14.768  12.702  12.086 -0.1142 -0.1464 -0.0060
 7689W        W23763  18.034   8.219  11.925  0.0466 -0.0199 -0.0089
 7690W        W23764   5.715  11.759   6.128  0.2021 -0.1381  0.1827
 7691W        W23765  16.900  16.931  13.528 -0.1402 -0.1448 -0.2027
 7692W        W23766  13.077  17.886   2.802 -0.0702  0.0339 -0.0245
 7693W        W23767  10.478   6.421  12.736 -0.0695 -0.0603 -0.1237
 7694W        W23768   0.177  12.891   4.759  0.0643  0.0807 -0.0791
 7695W        W23769   4.392  14.354   1.732 -0.1595  0.1700 -0.0186
 7696W        W23770  11.647   1.448  11.863  0.2878  0.0970  0.0902
 7697W        W23771  15.855   8.699   5.300  0.3124 -0.0302  0.1991
 7698W        W23772  17.398   4.065   1.232  0.1413 -0.0782 -0.1115
 7699W        W23773  11.813  11.981  13.084  0.2870 -0.4196 -0.1891
 7700W        W23774   9.281   4.419  14.484 -0.1834  0.0289  0.2560
 7701W        W23775   0.769  14.009   2.288  0.3648 -0.0122  0.1201
 7702W        W23776   4.039   4.667  15.463 -0.0585  0.0030 -0.2598
 7703W        W23777  11.495  14.025  14.321  0.1844 -0.2127  0.1216
 7704W        W23778  14.820  12.741   3.596 -0.0247  0.1076  0.3344
 7705W        W23779   0.333  11.278   2.432 -0.0428  0.0017  0.2829
 7706W        W23780  13.797  17.967  13.919  0.2723  0.1680 -0.1031
 7707W        W23781  10.316   7.328  14.401 -0.0662  0.0221  0.1245
 7708W        W23782  14.842   9.499  14.548  0.3352 -0.2138 -0.1621
 7709W        W23783   4.155  14.675  12.974  0.3202 -0.0429  0.0711
 7710W        W23784   8.293  17.373   3.354 -0.3925  0.4224  0.2406
 7711W        W23785   2.992   7.000   1.840 -0.3381  0.1477 -0.1845
 7712W        W23786  12.172   0.769   2.152  0.2162 -0.0146 -0.0425
 7713W        W23787  17.785   2.435  13.997 -0.3414  0.3250 -0.3656
 7714W        W23788   9.845  10.932   1.385  0.0374  0.1611 -0.1844
 7715W        W23789  18.180   8.104  14.379 -0.2982 -0.0461 -0.3528
 7716W        W23790  11.585  10.700   0.232  0.0546 -0.2376  0.2724
 7717W        W23791  13.137  14.901  14.257 -0.1758 -0.1095  0.0778
 7718W        W23792  16.391  14.643  12.728 -0.0804  0.3129  0.0313
 7719W        W23793   6.186   0.223  12.221 -0.1042  0.0404 -0.1254
 7720W        W23794  14.419  13.392   1.042  0.0795  0.1326 -0.2783
 7721W        W23795   2.798  13.342   2.624  0.1863  0.2239 -0.0474
 7722W        W23796   2.830  11.336   0.742  0.3948 -0.3409  0.0941
 7723W        W23797  12.302  16.293  13.557  0.0258 -0.2476  0.3177
 7724W        W23798  15.032  11.092   4.927  0.1836 -0.0835 -0.0527
 7725W        W23799   1.013  14.008  12.366 -0.2010 -0.5944  0.0186
 7726W        W23800  16.127   5.665  15.110  0.0617  0.1438 -0.1979
 7727W        W23801  10.194   3.185   1.787 -0.1035 -0.1769 -0.0001
 7728W        W23802   3.075   8.429   1.439  0.1190 -0.1530  0.0279
 7729W        W23803   7.975   8.047  13.757 -0.0641  0.1691 -0.1267
 7730W        W23804   9.091   7.936   5.355 -0.0012  0.0160  0.3625
 7731W        W23805   0.657  14.740  13.206  0.0356 -0.0275 -0.3142
 7732W        W23806  12.243   5.929  16.072  0.2194 -0.2663 -0.1209
 7733W        W23807  14.995   5.837   0.322  0.2659  0.1784  0.6542
 7734W        W23808   6.236   0.920   3.528 -0.1361  0.0847 -0.0910
 7735W        W23809   9.078  14.234  12.946 -0.2128  0.1086  0.0400
 7736W        W23810   3.000  10.864  15.535 -0.0291 -0.0061 -0.5220
 7737W        W23811  14.018   0.916  14.703 -0.2247 -0.0919 -0.0841
 7738W        W23812   3.087  12.952   6.268  0.2234  0.2053 -0.2374
 7739W        W23813  17.067   5.495  11.951 -0.0471 -0.2448 -0.0643
 7740W        W23814   6.641  12.868  13.229  0.0082 -0.1419 -0.0292
 7741W        W23815  16.989   8.066   2.123  0.0515  0.0750 -0.0534
 7742W        W23816   7.562  17.394  16.448 -0.2023 -0.0706 -0.1804
 7743W        W23817   8.912   3.973  15.564 -0.1338 -0.0793  0.2536
 7744W        W23818   5.636  12.503  15.401  0.0651 -0.0853 -0.4563
 7745W        W23819   4.034  17.845   1.387 -0.1115 -0.1994 -0.2539
 7746W        W23820   3.255  16.739  12.241  0.2124  0.3417 -0.0381
 7747W        W23821  15.721   9.360   0.960 -0.0717  0.0518 -0.0613
 7748W        W23822  13.209   6.002  12.807 -0.2424  0.2626  0.2472
 7749W        W23823   1.644   7.777   3.010 -0.4017  0.2732  0.1399
 7750W        W23824   7.800   0.774  15.787 -0.1150  0.0475 -0.2394
 7751W        W23825   1.424   6.145  15.803  0.2111  0.1795 -0.1849
 7752W        W23826   4.708  13.138  12.691 -0.1422  0.0316  0.0422
 7753W        W23827   4.850   5.964   5.837 -0.0236  0.1088  0.0531
 7754W        W23828   8.676   4.991   5.458 -0.0258  0.2950  0.0736
 7755W        W23829   2.496   7.550   1.440  0.2579  0.1617 -0.1578
 7756W        W23830   7.513   7.579  12.576  0.1212  0.1829  0.0734
 7757W        W23831  12.741   8.367  13.803 -0.1657 -0.2554  0.1171
 7758W        W23832  14.836   1.129  13.627  0.2721  0.3713  0.1841
 7759W        W23833   0.458   4.735   1.906 -0.0633 -0.1967  0.0258
 7760W        W23834   1.463  16.727  12.790 -0.2885  0.0050 -0.0753
 7761W        W23835  11.118  17.352  13.035  0.0503 -0.0067  0.0512
 7762W        W23836   2.392   1.389   5.309  0.3599  0.0820  0.2599
 7763W        W23837   1.474  17.326  16.269  0.4242 -0.1807  0.1059
 7764W        W23838   2.419   7.204   0.884  0.2816 -0.1478 -0.1903
 7765W        W23839   4.473   3.336  12.474 -0.1839 -0.0293 -0.0843
 7766W        W23840  17.954   3.010  15.366 -0.1831 -0.0370  0.2213
 7767W        W23841  14.279   3.420   2.772 -0.0205 -0.1062  0.2376
 7768W        W23842   3.004  16.191   0.237  0.2133 -0.0106 -0.0503
 7769W        W23843   3.272  12.441  12.956  0.0736 -0.2811  0.1925
 7770W        W23844   0.284   4.051   5.755 -0.0551 -0.1935 -0.4340
 7771W        W23845   5.744  15.076  12.452  0.0166  0.3992 -0.1023
 7772W        W23846   6.460  10.798   5.126  0.2038 -0.1079  0.1994
 7773W        W23847   7.959   2.974  11.608 -0.2085  0.1183 -0.1731
 7774W        W23848  14.494  13.892  14.173  0.0052  0.1693 -0.1453
 7775W        W23849   6.237   5.064  13.746  0.2658  0.1348 -0.2292
 7776W        W23850  11.557  17.607   4.064  0.0465  0.0218 -0.0160
 7777W        W23851   3.940   6.876  15.616  0.2807  0.1133  0.1357
 7778W        W23852   5.196  10.848   5.707 -0.0093  0.1154  0.0322
 7779W        W23853   0.624   9.845  11.308  0.0419  0.2122  0.0595
 7780W        W23854  17.837  11.224   4.367 -0.1482 -0.0938 -0.2244
 7781W        W23855   1.580   2.104   2.270 -0.0248  0.0809  0.0186
 7782W        W23856  13.310  10.881  13.775  0.3244 -0.0110  0.1738
 7783W        W23857  14.549  14.923  15.007 -0.1635  0.0558 -0.1828
 7784W        W23858   4.512   2.934   4.864 -0.3119 -0.0479  0.2332
 7785W        W23859   6.232  17.261  13.392  0.1026  0.0099 -0.0398
 7786W        W23860   9.002   0.600   0.072 -0.2386  0.0009  0.0368
 7787W        W23861   9.584   9.149   2.453  0.2868 -0.1262 -0.1865
 7788W        W23862   6.284   5.538  11.719 -0.0171  0.1360 -0.3062
 7789W        W23863   4.536   3.347   5.176 -0.3044 -0.1472 -0.2133
 7790W        W23864  14.971   0.874   1.683 -0.2079  0.5196 -0.1114
 7791W        W23865   9.249  11.655   1.285 -0.1245  0.0667  0.0720
 7792W        W23866   1.214   2.430  10.288  0.5375  0.1501 -0.1435
 7793W        W23867  10.730  13.761  14.464  0.0557 -0.1460  0.0746
 7794W        W23868  17.939   7.835  12.320  0.1156  0.0244  0.1068
 7795W        W23869   7.896  17.461   3.895 -0.3465  0.1440  0.0253
 7796W        W23870   6.376   8.715  14.456 -0.1565 -0.0907  0.2247
 7797W        W23871   0.326  16.862  12.867 -0.2861 -0.1935  0.1485
 7798W        W23872   3.341  11.163  16.484  0.0580  0.1130  0.0227
 7799W        W23873  12.608   0.221  14.188 -0.0898 -0.2612  0.0074
 7800W        W23874   1.382   3.142  15.902 -0.1130  0.0145  0.1967
 7801W        W23875  14.206  11.554   4.829  0.0379 -0.2559  0.0970
 7802W        W23876   5.150  10.461   3.896 -0.0430  0.0563  0.0559
 7803W        W23877   2.212   2.043  13.744 -0.0381 -0.0684 -0.2628
 7804W        W23878   9.369   6.441  13.163  0.0633  0.2639 -0.1505
 7805W        W23879  15.867  12.052   4.243  0.1034  0.0247  0.0074
 7806W        W23880   5.061   9.137  11.280  0.1913 -0.1337  0.0185
 7807W        W23881  17.260   6.016   9.972  0.1142  0.1836  0.0280
 7808W        W23882  10.808  13.093   3.686  0.0332  0.3489  0.1899
 7809W        W23883  15.856  11.111   4.567  0.0654 -0.1595 -0.0128
 7810W        W23884  17.366  16.337   3.912  0.0918 -0.0201  0.0819
 7811W        W23885   2.171  10.113   2.074  0.0724  0.2059  0.0357
 7812W        W23886  17.663  10.670  13.901  0.3056 -0.2042 -0.0672
 7813W        W23887   6.782  13.714  14.751  0.1339  0.0545  0.1128
 7814W        W23888   2.855   2.049  13.859  0.3488 -0.1143  0.3490
 7815W        W23889   7.826  12.556  13.258 -0.3144 -0.1868 -0.1129
 7816W        W23890  14.442   0.563   2.325 -0.1417  0.1101 -0.1665
 7817W        W23891  17.721   0.143   2.214  0.2738 -0.0657 -0.2642
 7818W        W23892  11.582   2.126  16.546 -0.1176  0.1042 -0.1196
 7819W        W23893   7.667   1.102  15.402  0.1630  0.2402 -0.2684
 7820W        W23894   6.910  12.120  13.710  0.0550 -0.0461  0.3879
 7821W        W23895   1.061  16.255  13.013 -0.0010 -0.2020 -0.0850
 7822W        W23896  11.718   0.692   3.389  0.1429  0.2011  0.0533
 7823W        W23897   3.071  14.137   2.251 -0.1882  0.3059 -0.0864
 7824W        W23898  14.612  15.944   4.210 -0.3406  0.0215 -0.1606
 7825W        W23899  15.894   3.275  13.692  0.0954  0.2593  0.1560
 7826W        W23900   2.808  16.558   3.582 -0.0075 -0.2824 -0.1354
 7827W        W23901   8.970  15.903   0.586 -0.1427  0.1647 -0.2297
 7828W        W23902   6.942  11.885   5.599 -0.2542  0.0162 -0.1498
 7829W        W23903   4.540   4.969   4.164  0.3025 -0.0633 -0.1732
 7830W        W23904  16.145   3.649   2.242 -0.2104 -0.0763 -0.0652
 7831W        W23905  13.401   8.039   2.649 -0.5222  0.1536  0.2294
 7832W        W23906   5.298   2.043  13.786  0.1476 -0.2228 -0.1802
 7833W        W23907   5.424   0.394  13.708  0.2582  0.1076 -0.1305
 7834W        W23908   5.699  15.939  16.361 -0.2506 -0.1671  0.1767
 7835W        W23909   1.799  12.312  15.527  0.1453 -0.0690  0.0885
 7836W        W23910  15.432   5.392  12.254 -0.2128  0.2630  0.0382
 7837W        W23911   0.626  16.186  11.553 -0.1328 -0.0890 -0.1983
 7838W        W23912   2.667   5.899  11.228  0.1769  0.0087 -0.1915
 7839W        W23913   4.474  12.480   5.398 -0.0472 -0.0083  0.1184
 7840W        W23914   5.276  11.610  11.525  0.2650  0.4350  0.2258
 7841W        W23915   0.010  15.673  14.612 -0.1429 -0.0892  0.4238
 7842W        W23916   1.997   5.244  14.954 -0.0125  0.0446  0.0141
 7843W        W23917   6.620   3.747   0.668  0.0009 -0.4349  0.1043
 7844W        W23918  17.822   5.269   0.399 -0.2115 -0.2810  0.0807
 7845W        W23919  16.834   3.189  15.857  0.0440  0.1094  0.1077
 7846W        W23920   0.886  16.654  13.592  0.0881 -0.1417  0.3224
 7847W        W23921  14.491  10.469   0.074 -0.3687 -0.0322 -0.2505
 7848W        W23922   8.668   3.553   1.316 -0.2788 -0.1716 -0.0714
 7849W        W23923   1.824   0.970  15.304  0.2438 -0.0723  0.1495
 7850W        W23924   1.283   4.719   0.553  0.0206  0.2575  0.0292
 7851W        W23925   5.353   8.140   1.407  0.0953 -0.2497 -0.0037
 7852W        W23926   6.757  11.769  16.034  0.1913 -0.0131  0.1016
 7853W        W23927   1.107  15.982   1.292  0.0828 -0.1754  0.2258
 7854W        W23928   9.853   4.338   4.298  0.0972 -0.0205  0.1607
 7855W        W23929   2.389   6.367  13.622  0.0782  0.2291 -0.3056
 7856W        W23930  17.729   9.264   1.665 -0.0141  0.2028 -0.0821
 7857W        W23931   3.099   9.843  13.384  0.0139 -0.1369  0.0113
 7858W        W23932   6.615   9.288   2.809  0.0324 -0.0689  0.1461
 7859W        W23933   6.602   7.525  11.662 -0.2146  0.3778  0.0981
 7860W        W23934   3.710   2.057  16.405 -0.0150 -0.2659  0.0835
 7861W        W23935   4.409  16.195   4.823  0.1348  0.1535 -0.2938
 7862W        W23936  13.351   8.869   4.817 -0.0163 -0.2510  0.1609
 7863W        W23937  10.055   0.720  15.590 -0.0124 -0.0420 -0.1435
 7864W        W23938  10.182   9.615   3.168 -0.2130 -0.0876  0.1347
 7865W        W23939  15.175  15.028  10.990  0.0835 -0.3838 -0.0171
 7866W        W23940  16.009   9.652  13.568  0.0595  0.2663  0.0345
 7867W        W23941   6.979  17.067   0.761  0.0379 -0.2089  0.1726
 7868W        W23942   0.180   4.963   4.561  0.0778 -0.0004  0.1275
 7869W        W23943  10.050   8.821   5.000  0.0169 -0.0817  0.2006
 7870W        W23944   7.624   8.079  12.799 -0.2250 -0.1026  0.0016
 7871W        W23945   9.290   0.196   1.005  0.2514  0.1813  0.3556
 7872W        W23946   1.830   1.020  14.323  0.2174  0.1160 -0.3759
 7873W        W23947  11.434   8.124  13.841  0.1559 -0.2909  0.1374
 7874W        W23948  13.524  17.525   2.720 -0.1236  0.0383 -0.1553
 7875W        W23949   3.272   2.959   3.607 -0.0732  0.1250  0.0331
 7876W        W23950   0.860   0.577   0.760  0.1537  0.1369 -0.0116
 7877W        W23951  12.066  16.375   2.020 -0.0171  0.3113  0.1468
 7878W        W23952  10.785   5.025  13.851 -0.0559  0.0308 -0.3778
 7879W        W23953   8.367  15.268   0.301  0.0605 -0.0058 -0.0457
 7880W        W23954   9.847  17.369   3.466  0.4670 -0.1511  0.0606
 7881W        W23955   2.597   5.560  14.275 -0.0839 -0.0915 -0.1538
 7882W        W23956   2.610  17.425   1.106  0.0911  0.1314  0.0436
 7883W        W23957   6.766  15.528   0.789 -0.0242  0.1351 -0.2530
 7884W        W23958  12.899  14.523  13.857 -0.1008 -0.1518  0.1078
 7885W        W23959  12.068  17.838   6.392 -0.0010  0.1451 -0.0272
 7886W        W23960   1.086  11.745  14.934 -0.1306 -0.1031 -0.0551
 7887W        W23961   7.416   1.996  12.966 -0.1988 -0.1172 -0.2746
 7888W        W23962  18.054  11.608  15.789  0.0624  0.1529  0.1631
 7889W        W23963  16.042   9.820   3.467  0.2834 -0.0283 -0.1899
 7890W        W23964  17.953   3.702  12.390  0.0250 -0.3212 -0.2184
 7891W        W23965  14.454   1.633   4.950  0.1990 -0.2895  0.1180
 7892W        W23966   8.491  15.652  12.187 -0.0136 -0.2142 -0.0506
 7893W        W23967   1.498   0.267  16.540 -0.2006  0.0051 -0.2109
 7894W        W23968   2.130   3.459   4.609  0.2018 -0.1505  0.2566
 7895W        W23969   9.666  11.786  16.326  0.2268  0.0312  0.0814
 7896W        W23970  12.538   7.233   4.391  0.4111  0.3822  0.2031
 7897W        W23971  15.631   1.296   2.080  0.0532 -0.3755  0.0507
 7898W        W23972   0.390   4.151  15.517  0.0878 -0.2369 -0.4977
 7899W        W23973  12.253   0.806  15.789  0.1905  0.3326  0.0248
 7900W        W23974   0.358   8.411   4.927  0.4873  0.3478  0.0713
 7901W        W23975  13.730   4.637  12.449  0.0434 -0.0121  0.2550
 7902W        W23976  14.887   8.638   4.952  0.0432 -0.0437  0.1467
 7903W        W23977   7.254  13.936  13.573 -0.2112 -0.2644 -0.2026
 7904W        W23978   6.436  13.792   4.773  0.0012  0.1231 -0.2768
 7905W        W23979  14.171  15.808  14.678 -0.1259 -0.0881  0.3721
 7906W        W23980   3.678  17.030  14.716 -0.1891  0.4309 -0.1130
 7907W        W23981  17.768  17.931   4.146  0.1892  0.1126 -0.0007
 7908W        W23982   2.162   8.558  15.597 -0.2207  0.1350 -0.0214
 7909W        W23983   2.874   3.998   4.525 -0.1826 -0.0549 -0.1422
 7910W        W23984   0.016  16.375  13.066 -0.2613 -0.0437  0.0929
 7911W        W23985  13.761   8.300  16.384 -0.3283  0.0564  0.0414
 7912W        W23986  13.481  14.896  13.817 -0.1986 -0.0394  0.1386
 7913W        W23987  17.313  15.887  15.989  0.1469 -0.0831  0.0824
 7914W        W23988  12.454  15.339   3.430 -0.0961  0.1313  0.0524
 7915W        W23989  11.365  16.753  15.560 -0.1222 -0.0413  0.0694
 7916W        W23990  14.409  14.117  14.606  0.1603  0.1781 -0.0317
 7917W        W23991  11.534   0.573   1.364  0.1652 -0.2173 -0.1152
 7918W        W23992   0.062  14.450  14.947 -0.1114 -0.1623  0.4200
 7919W        W23993  14.763  11.853   2.214  0.0295  0.0203  0.1486
 7920W        W23994  10.330   0.302  14.169 -0.3786  0.1348  0.0930
 7921W        W23995  17.296  10.664  13.167  0.0692 -0.0230 -0.3332
 7922W        W23996   2.682   4.775   3.363  0.4390 -0.1645  0.1466
 7923W        W23997   7.829   8.463  15.660  0.0371 -0.0558  0.1611
 7924W        W23998  16.841  14.912   1.265  0.1334 -0.1513  0.2034
 7925W        W23999   6.877   0.667   1.935  0.1588 -0.1955 -0.3133
 7926W        W24000  12.422  16.166   3.235 -0.1493 -0.1142  0.0421
 7927W        W24001   1.076   9.628  11.191  0.0920  0.1284  0.0725
 7928W        W24002   8.541   0.092  13.519  0.2225  0.2204  0.0211
 7929W        W24003  16.328   6.162   3.849  0.2339  0.4068 -0.1666
 7930W        W24004  17.903   8.894  13.777  0.1077 -0.0547  0.1385
 7931W        W24005   5.748   0.859  16.328 -0.0363  0.1365  0.0870
 7932W        W24006  12.376   1.362  14.764 -0.0588 -0.3162 -0.1895
 7933W        W24007  14.782   6.755  16.269 -0.1272  0.0916 -0.0874
 7934W        W24008  11.538  12.918   5.436  0.3209 -0.0234 -0.1285
 7935W        W24009   1.502  13.359   4.567 -0.0465  0.0830  0.1194
 7936W        W24010  10.362  16.281   5.424  0.2859 -0.0115 -0.0784
 7937W        W24011  10.261  12.813  12.990 -0.0568  0.0039 -0.0526
 7938W        W24012  12.411   8.364   5.710 -0.2397  0.1788 -0.0149
 7939W        W24013  11.674   8.180   1.470 -0.1409 -0.0400  0.1374
 7940W        W24014   8.545   2.642  11.576 -0.0134  0.2231 -0.2835
 7941W        W24015  12.088   2.757  16.541 -0.0129 -0.0238 -0.0804
 7942W        W24016  16.936  10.461   4.169 -0.2074  0.0118  0.0856
 7943W        W24017  15.163   8.300  12.182 -0.2095 -0.3164 -0.0284
 7944W        W24018  17.986   3.387  14.405 -0.0228  0.3035 -0.2889
 7945W        W24019   3.106  13.748  14.222 -0.0917 -0.0554  0.0669
 7946W        W24020  11.830  15.242  12.291 -0.0600 -0.0986  0.2088
 7947W        W24021   2.000  17.077  15.802  0.2623  0.3818 -0.1726
 7948W        W24022  14.175   4.334   0.054  0.1805 -0.0070 -0.0977
 7949W        W24023   4.606   8.237  12.297 -0.1300 -0.0408 -0.0386
 7950W        W24024  13.807  17.056   4.406 -0.0562 -0.0533  0.2947
 7951W        W24025  12.299  17.146  15.456  0.0207 -0.0790 -0.2062
 7952W        W24026  17.119  12.115   3.365  0.0708  0.1550  0.1352
 7953W        W24027   7.313  16.362  14.947  0.2039 -0.1524 -0.0611
 7954W        W24028   9.523   4.785  15.126 -0.1925 -0.1340 -0.1124
 7955W        W24029  15.103  17.921   3.690  0.1257 -0.2507  0.0744
 7956W        W24030  15.820   9.090  16.279  0.3505 -0.0482  0.4587
 7957W        W24031   0.688   3.127   0.603  0.0497  0.3248  0.0403
 7958W        W24032  12.271  12.908  14.574  0.0920  0.1585  0.0702
 7959W        W24033   1.927  17.848  12.330  0.1130 -0.1046  0.3055
 7960W        W24034  14.877   8.838   2.686  0.0311  0.1511 -0.0055
 7961W        W24035   8.993   2.036  16.090  0.1805  0.0889  0.0824
 7962W        W24036  13.904   3.342  12.764  0.3530  0.3377  0.2393
 7963W        W24037  13.298   6.577  12.655 -0.0408 -0.0235 -0.2682
 7964W        W24038   5.275  13.661  14.628 -0.1761 -0.0040 -0.1355
 7965W        W24039  12.422  18.216  14.577  0.0991  0.1102  0.0231
 7966W        W24040   0.552  17.122  12.024 -0.0435  0.4306 -0.1181
 7967W        W24041  16.025   8.760   2.571  0.3490 -0.1570 -0.2606
 7968W        W24042  11.142   2.199  12.900 -0.0156  0.0060  0.0154
 7969W        W24043   0.316   4.256   2.794 -0.0751  0.2468  0.2303
 7970W        W24044   9.853   6.812   6.024 -0.1401 -0.0495 -0.0047
 7971W        W24045   2.857   6.588  11.917  0.3821  0.0168 -0.2191
 7972W        W24046  13.469  15.127   4.494  0.0893  0.0634  0.6052
 7973W        W24047   4.541   1.020   3.717  0.1033 -0.1118  0.0959
 7974W        W24048  11.983   9.132  11.510 -0.1878 -0.2205  0.2778
 7975W        W24049  12.355   9.274  13.030 -0.3728 -0.1622  0.0448
 7976W        W24050   8.852   1.166   5.319 -0.2681  0.0376  0.0043
 7977W        W24051  15.833  11.536  14.006 -0.1798 -0.0653  0.0263
 7978W        W24052   1.348  16.130   2.721 -0.2008 -0.1716  0.0721
 7979W        W24053   0.917  10.987  12.584  0.0641  0.1530 -0.2300
 7980W        W24054   7.120  14.884  16.268  0.1381  0.6540 -0.2055
 7981W        W24055   4.204   4.847   2.310 -0.0107  0.0798  0.0475
 7982W        W24056   9.788   2.726  12.780  0.1307  0.0158 -0.0696
 7983W        W24057   2.593  12.807  11.651  0.1569 -0.0504  0.1488
 7984W        W24058   2.085  16.354   2.829  0.1981 -0.1797 -0.0131
 7985W        W24059   2.416   0.112  16.234  0.1416 -0.0265 -0.2472
 7986W        W24060  15.161  13.649  13.671  0.2100  0.0288  0.3225
 7987W        W24061   0.160   5.103   1.756 -0.0428  0.0362 -0.1806
 7988W        W24062   0.205  18.187   4.651  0.5908  0.2598  0.1126
 7989W        W24063  14.561   8.721   5.388  0.2685 -0.2535 -0.1971
 7990W        W24064   0.072   6.666  13.984 -0.2157  0.0563 -0.2153
 7991W        W24065  17.424   8.428   4.641 -0.0376  0.0534 -0.2443
 7992W        W24066   4.234  15.654  12.694 -0.1850  0.2477 -0.0954
 7993W        W24067   8.037  10.742   2.902  0.0053  0.0598 -0.0129
 7994W        W24068   2.859   0.554  13.293 -0.0077 -0.0545  0.0312
 7995W        W24069   0.366  12.032  14.123 -0.2083  0.0516  0.1124
 7996W        W24070   6.434   6.101   0.555 -0.2014 -0.0840 -0.0786
 7997W        W24071  13.292   6.867  13.072  0.0042 -0.2238 -0.3006
 7998W        W24072   1.486   9.100  14.075  0.1214  0.0023 -0.0832
 7999W        W24073  16.303  17.264   5.452 -0.2962 -0.0683 -0.1339
 8000W        W24074  11.168  15.822   3.249 -0.0783  0.1049  0.2441
 8001W        W24075   3.731   4.604   4.469  0.0236 -0.0847  0.2443
 8002W        W24076   0.240   5.447  11.618  0.3511  0.4280  0.0127
 8003W        W24077  16.791  14.842   3.003 -0.0273 -0.0118 -0.1239
 8004W        W24078   0.023  12.169   5.213 -0.1461 -0.0531  0.1331
 8005W        W24079   4.986  15.658   1.109 -0.0591  0.1443  0.1676
 8006W        W24080   1.711  13.824  15.240 -0.1403  0.4412  0.0926
 8007W        W24081  13.740   3.070   1.493  0.0117  0.0554  0.1625
 8008W        W24082   1.099   4.418   3.744  0.0511 -0.1712  0.3996
 8009W        W24083   9.309   2.039   5.296  0.0757 -0.1316  0.3510
 8010W        W24084   7.663   3.372   2.694  0.1243 -0.1557  0.0984
 8011W        W24085  17.152   9.048   1.154 -0.0451 -0.4690  0.2562
 8012W        W24086   6.983  16.900  13.182 -0.0733  0.0240  0.3447
 8013W        W24087   6.519   4.131  12.866  0.0334 -0.0169 -0.1297
 8014W        W24088  16.958   0.519   1.998 -0.1770 -0.1694  0.0642
 8015W        W24089  17.731  13.100  16.361  0.0307 -0.0862  0.0619
 8016W        W24090   6.466  11.061  13.449  0.1263  0.0024  0.0222
 8017W        W24091  10.000  14.261   2.789 -0.2926 -0.0213 -0.0720
 8018W        W24092   7.915  17.301   0.787 -0.1256  0.4062 -0.0710
 8019W        W24093  17.353  17.081   1.145 -0.0774 -0.0214  0.2668
 8020W        W24094  14.163  11.806   1.065 -0.1384  0.1233  0.0411
 8021W        W24095   0.674   4.933  16.243  0.1109  0.1808 -0.0261
 8022W        W24096  12.274  18.208  13.649 -0.1205  0.0635  0.0707
 8023W        W24097  10.346   2.008  15.255 -0.4294 -0.0902  0.0134
 8024W        W24098  17.287  15.420  12.953 -0.1474 -0.3321  0.1162
 8025W        W24099  13.869  14.182   2.170  0.4031 -0.1159  0.1723
 8026W        W24100   7.948   7.017   6.447  0.4039  0.1581 -0.2043
 8027W        W24101   3.574   0.615   2.961  0.2454  0.1981  0.1931
 8028W        W24102   6.714  14.578  16.309 -0.0949 -0.0371 -0.1088
 8029W        W24103   2.209  11.631   1.185  0.3665  0.1943 -0.0848
 8030W        W24104  17.742  10.073  14.830  0.3192 -0.2242 -0.1758
 8031W        W24105   4.028   6.060  15.446 -0.1598  0.2159  0.0494
 8032W        W24106   0.516  13.665  16.508  0.1883  0.1552  0.2952
 8033W        W24107   1.630   8.265   1.189  0.1280  0.1231 -0.1993
 8034W        W24108   6.469   2.242   6.084  0.0765 -0.1107  0.1432
 8035W        W24109   5.678  11.364   0.712 -0.0625 -0.0061  0.0713
 8036W        W24110   0.224  12.370  12.697  0.0599 -0.0051 -0.1624
 8037W        W24111   9.709  15.166   3.110  0.0490  0.1295  0.0776
 8038W        W24112   3.115   7.512   1.927  0.0401  0.0075  0.0549
 8039W        W24113   2.813   7.584   1.030  0.1475  0.0363 -0.1255
 8040W        W24114  11.507   8.612  12.056  0.0022 -0.0643 -0.1214
 8041W        W24115   1.917  12.246  15.028  0.2368  0.3082  0.1834
 8042W        W24116   5.737  15.331   5.249 -0.1600 -0.1347 -0.2943
 8043W        W24117   7.712  11.026   1.656  0.0022 -0.0058  0.0900
 8044W        W24118  10.199   0.023   0.765 -0.0813  0.0340 -0.1415
 8045W        W24119   7.208  15.906  11.104  0.1036  0.3074  0.0073
 8046W        W24120   3.128   3.468   4.608  0.1698 -0.2195  0.0266
 8047W        W24121   2.248   0.829   2.298 -0.2459  0.0236  0.1537
 8048W        W24122   4.317   7.387   2.760  0.1105  0.2705 -0.0439
 8049W        W24123  11.926  10.844   0.580  0.1283  0.1592  0.0754
 8050W        W24124   9.948   8.809   6.591  0.2014 -0.2945 -0.2758
 8051W        W24125  15.033   2.383  14.057  0.0468 -0.1366  0.0181
 8052W        W24126  18.156   8.370   5.252  0.2862 -0.0889  0.1670
 8053W        W24127   4.072  15.667   2.886 -0.0484  0.3081  0.1059
 8054W        W24128  12.240   6.745   1.631 -0.1812  0.2009  0.0012
 8055W        W24129   4.620  14.951  16.159  0.0334 -0.1569 -0.0030
 8056W        W24130   1.177   8.912  14.736 -0.1586 -0.1729  0.0590
 8057W        W24131  17.708   0.711   4.625  0.3310 -0.2592  0.0556
 8058W        W24132  12.665  14.624   0.249 -0.3031 -0.0644 -0.1498
 8059W        W24133  16.107   8.918   3.312  0.3439 -0.0950 -0.0150
 8060W        W24134  14.364  15.957  15.311 -0.0554 -0.2939  0.0887
 8061W        W24135  10.449   8.251  11.586  0.2729 -0.2411 -0.2009
 8062W        W24136   6.876   1.321   1.325 -0.0169  0.0285  0.2120
 8063W        W24137   8.257   5.577  15.312  0.3710  0.6156  0.0198
 8064W        W24138   9.911   6.382  15.539 -0.0816  0.1348  0.0698
 8065W        W24139  16.742  10.709  13.792  0.0060  0.0792 -0.2279
 8066W        W24140   7.693   4.956   3.173 -0.1560  0.0583 -0.2406
 8067W        W24141   0.160  17.346  13.262  0.0240  0.1428  0.0990
 8068W        W24142   6.621   0.162  14.784  0.0942 -0.2320 -0.0973
 8069W        W24143   6.123   9.201   0.217 -0.1265 -0.0444  0.2404
 8070W        W24144  17.836  15.337  13.123  0.3390 -0.0399 -0.4914
 8071W        W24145  12.733  17.129  15.716  0.1288 -0.0665  0.2538
 8072W        W24146   1.284   7.385   0.782 -0.0571  0.0774 -0.0068
 8073W        W24147  11.300   6.167  11.577 -0.1725  0.1426  0.1806
 8074W        W24148  16.397  10.344   4.268 -0.0625  0.4749  0.2146
 8075W        W24149  12.051  12.234   4.009  0.2431  0.1080 -0.1515
 8076W        W24150   6.853   1.546   0.867 -0.1889  0.0520 -0.2164
 8077W        W24151   8.338   2.560  12.866  0.4232  0.3863 -0.3163
 8078W        W24152   5.567   3.373   4.407 -0.2204 -0.0615  0.4572
 8079W        W24153   3.420   1.554   1.020 -0.2801 -0.0627 -0.0621
 8080W        W24154   3.830   6.580   0.532 -0.4124 -0.0626 -0.4055
 8081W        W24155   7.245  16.537  14.435  0.1256  0.1503  0.1877
 8082W        W24156   4.670  16.014  13.469  0.2111 -0.0255 -0.3339
 8083W        W24157  16.408  14.609   3.216  0.0491 -0.2656  0.0814
 8084W        W24158   4.488   6.458  14.708 -0.0515  0.0433  0.1153
 8085W        W24159   6.313  13.235   0.838 -0.0697 -0.3390  0.3231
 8086W        W24160  16.396  12.775   3.975 -0.1228 -0.1118  0.1592
 8087W        W24161  13.987   5.818   4.502 -0.1072  0.0928 -0.1795
 8088W        W24162   6.218   1.219   4.139 -0.1912 -0.2019  0.2190
 8089W        W24163   7.889   6.525   1.427 -0.0234  0.3948  0.0341
 8090W        W24164   6.323   6.285   1.266 -0.1010 -0.1396 -0.1350
 8091W        W24165  14.056  12.629   4.515 -0.0020  0.2207 -0.3255
 8092W        W24166  14.692  17.882  16.299 -0.0597  0.1022 -0.0940
 8093W        W24167   3.598  10.204  16.316  0.1276  0.1984  0.0954
 8094W        W24168  11.768  16.179  12.257 -0.1542  0.1896  0.1452
 8095W        W24169   3.307  11.350  12.301 -0.1032 -0.1400  0.1548
 8096W        W24170  11.436   6.962   1.434 -0.2910  0.1271 -0.2167
 8097W        W24171   6.142   7.287   2.374 -0.3090 -0.1722  0.0022
 8098W        W24172  15.444  15.365  14.905 -0.2675  0.2792  0.1008
 8099W        W24173   3.307   5.615  14.856 -0.1345 -0.2322  0.0031
 8100W        W24174   0.761   6.832   4.613  0.1950 -0.3657  0.0160
 8101W        W24175   7.705   2.365  13.966  0.0842 -0.1910 -0.0506
 8102W        W24176   5.570  13.288   5.589 -0.0584  0.1585  0.1308
 8103W        W24177  16.345   7.287  15.507  0.0937 -0.3491  0.0008
 8104W        W24178  11.208   7.491   2.210 -0.2646  0.1405  0.0853
 8105W        W24179  12.554   1.210  12.857 -0.0867 -0.0021  0.1440
 8106W        W24180   7.627  14.028  15.584 -0.0473 -0.1338  0.0861
 8107W        W24181   3.109   4.644  13.549 -0.1646  0.0501 -0.0439
 8108W        W24182   9.162   9.014  12.383 -0.1604 -0.1668  0.4775
 8109W        W24183   9.816  14.403   1.322  0.4097 -0.1877  0.2938
 8110W        W24184   3.450   2.284  14.358 -0.0948  0.3634 -0.2764
 8111W        W24185   8.430  17.336  13.030 -0.0064  0.0607 -0.2015
 8112W        W24186   9.590  17.855  16.391 -0.1441 -0.3845 -0.1332
 8113W        W24187   5.980  17.057   2.681  0.0988  0.1620 -0.0847
 8114W        W24188   0.454  15.487  12.715 -0.0512  0.2523 -0.0639
 8115W        W24189   1.735   3.620   4.902 -0.0478 -0.1710 -0.0580
 8116W        W24190  12.189   9.108  12.491  0.2551  0.0995  0.1886
 8117W        W24191   0.381  10.300  14.498 -0.1846 -0.0956  0.4161
 8118W        W24192   8.161  17.794  12.465  0.1768 -0.0193  0.0597
 8119W        W24193  14.586  11.459  15.007 -0.0452  0.0448 -0.1323
 8120W        W24194   3.200  11.738   5.357  0.1563 -0.0212 -0.0522
 8121W        W24195   0.426  15.845  10.026  0.0792  0.1538  0.1373
 8122W        W24196  13.674   2.213  11.107  0.4147 -0.0656 -0.0443
 8123W        W24197   9.107   2.003   0.975  0.1500  0.1419  0.1376
 8124W        W24198   9.832  13.982   5.071  0.0703 -0.0000 -0.1029
 8125W        W24199   8.135  18.140  11.214  0.1119  0.1747  0.1784
 8126W        W24200   9.101   1.387   1.918  0.0052  0.2731  0.1411
 8127W        W24201   0.710   4.223   4.859 -0.1169  0.1231  0.0532
 8128W        W24202  15.169  10.584   1.091  0.2500 -0.1091 -0.1406
 8129W        W24203  10.736   5.349   3.713  0.2232 -0.2386 -0.2255
 8130W        W24204  10.910   6.351  14.196 -0.1328  0.2080 -0.1514
 8131W        W24205   1.197   4.950  13.257  0.0044 -0.1168  0.0224
 8132W        W24206  15.582  16.593  11.815 -0.0659 -0.0484 -0.0286
 8133W        W24207  14.760  16.299  11.698  0.2052  0.2730  0.2753
 8134W        W24208   4.744  12.817   5.074  0.1802 -0.0375 -0.0698
 8135W        W24209   8.633  15.884   2.365 -0.4749 -0.0546 -0.2302
 8136W        W24210   2.851   2.278  16.083 -0.0475  0.1525 -0.4368
 8137W        W24211  16.947   3.087   3.628  0.1416  0.1242 -0.0280
 8138W        W24212   7.345  13.435   1.517  0.2135  0.1706 -0.0875
 8139W        W24213   2.233   9.524  12.849  0.0520 -0.0190  0.2493
 8140W        W24214  13.581   9.800  13.983 -0.0205  0.2850 -0.1298
 8141W        W24215   8.890   2.642   1.447  0.1176 -0.3011 -0.0167
 8142W        W24216  16.677   3.066  14.548 -0.3941 -0.0085 -0.3387
 8143W        W24217   6.321  16.204   3.563  0.1486  0.1351  0.0311
 8144W        W24218  12.563  12.516   6.461  0.1709 -0.0288 -0.0884
 8145W        W24219   0.787   6.589   4.111 -0.2568  0.0387 -0.0394
 8146W        W24220  17.966   0.460   3.074  0.2453 -0.1301 -0.1587
 8147W        W24221   1.200   1.571  15.957 -0.0078  0.0592 -0.3717
 8148W        W24222   7.950  16.063   0.898  0.0947  0.0859  0.0882
 8149W        W24223   1.169   6.968  11.980 -0.0987 -0.1083  0.5710
 8150W        W24224  10.119   3.892   4.521 -0.2532  0.0470  0.0194
 8151W        W24225   5.683   8.068   2.343  0.4621 -0.4131 -0.1913
 8152W        W24226   6.307  11.245   6.824 -0.4256  0.0173  0.0096
 8153W        W24227  16.854   2.905  11.355  0.0770 -0.0749 -0.2329
 8154W        W24228   2.264  14.149   1.345  0.0936 -0.2237 -0.3027
 8155W        W24229   5.616   7.872  12.301 -0.0208 -0.2053 -0.0600
 8156W        W24230   1.553  15.907   0.611 -0.0017  0.1592 -0.2613
 8157W        W24231   6.354   5.036  15.285  0.1215 -0.0435  0.0339
 8158W        W24232   7.967   0.189  14.816 -0.0515 -0.2712  0.0905
 8159W        W24233  10.257   2.385  16.091  0.0151  0.1374  0.2494
 8160W        W24234   1.218   9.705   0.531 -0.1987  0.4157  0.2718
 8161W        W24235  17.792  15.872   9.841  0.0917 -0.0586 -0.2933
 8162W        W24236  12.602   5.035  15.012 -0.0510 -0.2202  0.0789
 8163W        W24237  15.562  15.051  15.976 -0.0530  0.0562  0.1816
 8164W        W24238   0.100  12.775  11.197 -0.1421 -0.1884 -0.1476
 8165W        W24239   5.734   4.190  13.490  0.1703  0.0498  0.2253
 8166W        W24240   2.444  12.434   0.814  0.1611  0.4745 -0.1741
 8167W        W24241   2.121   0.733   0.128  0.4243  0.1260  0.3976
 8168W        W24242  17.215  16.455   0.048  0.0792  0.0350  0.2864
 8169W        W24243   7.966  11.899  13.024  0.5000 -0.0742  0.1097
 8170W        W24244   0.392  17.794  12.387  0.2927 -0.0301  0.2489
 8171W        W24245   6.046   6.151   5.337 -0.3363  0.1149 -0.1235
 8172W        W24246  16.690   5.822  13.905  0.0730 -0.3277  0.1640
 8173W        W24247  10.640   0.679  15.713 -0.0892 -0.2470 -0.1138
 8174W        W24248   0.262   2.754   0.435 -0.2548 -0.2182  0.1806
 8175W        W24249  10.886   3.718   1.425 -0.4715 -0.1009  0.3419
 8176W        W24250  16.472   6.119  13.064  0.1736 -0.0325 -0.1946
 8177W        W24251   3.488  17.711   2.372  0.1727 -0.0152  0.1363
 8178W        W24252   1.442   6.352   5.026 -0.3478 -0.1821 -0.1454
 8179W        W24253   0.156   1.287   2.402 -0.1854  0.1437  0.1575
 8180W        W24254   1.733  17.812  14.917  0.0065 -0.3471  0.0105
 8181W        W24255   6.941  12.541  15.263  0.0643  0.1250 -0.0989
 8182W        W24256   9.380  10.906  12.217  0.0125  0.2036 -0.0503
 8183W        W24257   0.799  10.719  15.623 -0.0570  0.0855 -0.2277
 8184W        W24258   2.513  17.548   3.705 -0.2159 -0.0314 -0.2138
 8185W        W24259  15.049   1.772  16.238 -0.1185 -0.1249  0.2907
 8186W        W24260  13.009  10.944  14.222  0.1676 -0.2828 -0.0099
 8187W        W24261   0.597  14.376  14.759  0.0976  0.2836 -0.0606
 8188W        W24262  13.537   7.627   1.072  0.0380  0.1299 -0.0093
 8189W        W24263   3.382   1.934  12.393 -0.1099 -0.0533 -0.1101
 8190W        W24264   0.861   8.137   1.493  0.0255 -0.0587  0.1679
 8191W        W24265   1.670   4.313   3.142 -0.0549  0.0619  0.0317
 8192W        W24266   1.501   9.321   0.735 -0.2363  0.1662  0.2091
 8193W        W24267   1.081   5.884  12.799 -0.0685 -0.1839  0.0853
 8194W        W24268   9.431   3.655   2.373 -0.1236 -0.0182  0.2121
 8195W        W24269   7.643   4.618   1.364  0.0245  0.1297  0.2749
 8196W        W24270  15.356   5.074   0.926 -0.1572 -0.1770 -0.2022
 8197W        W24271   2.653   8.240  14.281 -0.0958  0.0257  0.0497
 8198W        W24272  15.977  16.982   5.249  0.2868 -0.1258  0.2181
 8199W        W24273  15.888   2.763  14.141 -0.1198  0.0306 -0.0240
 8200W        W24274   0.352  11.454   5.545  0.0086 -0.5431 -0.1409
 8201W        W24275  15.430   5.123   3.441  0.3146 -0.3021 -0.1870
 8202W        W24276  17.555  14.672  10.635  0.0111  0.1642 -0.1688
 8203W        W24277   2.559   3.560  14.133 -0.1408  0.0956 -0.0757
 8204W        W24278   5.228   5.329   1.088  0.0551 -0.1154  0.0451
 8205W        W24279  16.273   8.275   1.758 -0.2766 -0.2220  0.2072
 8206W        W24280   6.329   8.571   4.839 -0.0338 -0.3238 -0.2181
 8207W        W24281  11.523   0.745   4.281 -0.0370 -0.0078 -0.0723
 8208W        W24282   7.506  15.826   4.074 -0.2103  0.0132  0.3127
 8209W        W24283   7.486  17.731   3.597  0.1162 -0.0863  0.1919
 8210W        W24284  18.177   5.512  15.910 -0.0790  0.0704 -0.0165
 8211W        W24285   4.906  14.762  13.295  0.2073 -0.0901  0.0731
 8212W        W24286  13.646   9.558   4.284 -0.2660 -0.0769  0.0470
 8213W        W24287  17.597  11.965   0.462 -0.0368 -0.1686  0.0386
 8214W        W24288   5.787  15.608  12.531  0.1675 -0.2922 -0.3113
 8215W        W24289  16.335   0.949  15.230  0.0189 -0.2605 -0.1494
 8216W        W24290   2.567   6.839   5.128  0.1505 -0.0382 -0.0348
 8217W        W24291   6.289  14.591   0.481  0.3119  0.0030 -0.0853
 8218W        W24292   8.076   2.283  15.750  0.0942  0.0469 -0.1214
 8219W        W24293  12.191  15.720   3.329 -0.3959 -0.0952 -0.0773
 8220W        W24294   2.653   3.001   5.891 -0.0999 -0.3994 -0.0252
 8221W        W24295   0.387   8.823   3.902 -0.2646 -0.0699 -0.0997
 8222W        W24296  12.289  10.368  13.309  0.4701  0.1858  0.1317
 8223W        W24297  13.067   6.325   2.292  0.0605  0.2049  0.1961
 8224W        W24298   0.795   5.400  15.269 -0.2312 -0.1643  0.2732
 8225W        W24299   5.793   2.925  15.288  0.1376 -0.1550 -0.3742
 8226W        W24300  11.391   4.940  16.438  0.2408  0.3291  0.1027
 8227W        W24301   0.945   1.293   1.560 -0.2870 -0.2431  0.2379
 8228W        W24302   5.695   4.663   1.454 -0.1419 -0.1758  0.2639
 8229W        W24303   8.507   6.533  11.921  0.1848 -0.0735  0.2559
 8230W        W24304   3.682   5.226  13.955 -0.0488 -0.2205 -0.1937
 8231W        W24305   5.993  16.842  13.238 -0.0115 -0.1345  0.1625
 8232W        W24306  10.184   8.598  16.525  0.0237  0.0619  0.4198
 8233W        W24307   5.142  14.399   2.946 -0.0852 -0.2741 -0.0672
 8234W        W24308   7.970  11.630   3.936  0.1140  0.1350  0.3371
 8235W        W24309   8.846  11.270   0.879  0.0065 -0.0805 -0.2010
 8236W        W24310  13.921   0.462   2.516 -0.3791  0.2871 -0.2764
 8237W        W24311   3.812  14.263  13.047 -0.2108 -0.2706 -0.3637
 8238W        W24312   3.187   2.890   4.655  0.2447  0.0609 -0.0506
 8239W        W24313  13.967  17.742  15.149 -0.1766 -0.0623 -0.1392
 8240W        W24314   0.077   8.610  11.700  0.0941 -0.1122 -0.3575
 8241W        W24315  10.639   1.313  11.597 -0.0204  0.1497  0.2941
 8242W        W24316  17.262  12.056   1.849  0.0188  0.2009 -0.3227
 8243W        W24317   7.879  17.795  15.454 -0.2531 -0.0716  0.0715
 8244W        W24318   6.635   1.157  16.322  0.2699  0.0008 -0.0580
 8245W        W24319   2.639  12.202  12.466  0.1242 -0.2022  0.1333
 8246W        W24320  17.320   1.547  11.902 -0.4116 -0.0192  0.6416
 8247W        W24321   8.742  16.349   4.955  0.1620  0.2113  0.0225
 8248W        W24322   8.422  16.422   4.575 -0.2835  0.4293 -0.2892
 8249W        W24323  16.076  12.374   0.099 -0.1208  0.2785  0.1886
 8250W        W24324  15.380  16.957  13.885  0.1922  0.1592  0.3615
 8251W        W24325   5.633  16.093  15.671 -0.0900 -0.1105 -0.1213
 8252W        W24326  10.876   9.768  13.790  0.0550 -0.1877 -0.1975
 8253W        W24327   4.475   1.406   4.241 -0.0836  0.0776  0.1904
 8254W        W24328  12.981  14.399   3.828 -0.0557 -0.0257 -0.2347
 8255W        W24329   0.297  13.977   3.974 -0.2369  0.0050  0.0729
 8256W        W24330  16.122   3.030   1.627  0.0845 -0.0668  0.3089
 8257W        W24331   9.347   7.642   0.659 -0.1161  0.0168 -0.2093
 8258W        W24332  15.725   7.288  15.082  0.2342  0.0366  0.1275
 8259W        W24333   0.748   1.696  13.155  0.0693 -0.0851  0.2766
 8260W        W24334   9.099  17.370  14.605 -0.1023  0.2186 -0.0960
 8261W        W24335   7.975  15.650  12.261  0.3458 -0.1851  0.2551
 8262W        W24336   6.035  12.342   3.113 -0.0310  0.1110  0.0277
 8263W        W24337  16.155   5.439  13.293 -0.2265 -0.0107  0.1197
 8264W        W24338   4.215   8.142  15.377  0.1856 -0.2152 -0.2175
 8265W        W24339   3.858  13.127   4.294  0.0437  0.0390 -0.2123
 8266W        W24340  13.931  17.482   6.296  0.1351 -0.4003  0.3694
 8267W        W24341   8.537  17.276   0.268  0.1938  0.0321  0.2885
 8268W        W24342   6.544   9.783   2.813 -0.0982  0.0944  0.2008
 8269W        W24343   8.743  15.870  13.866  0.0728  0.2187  0.2614
 8270W        W24344  15.193  16.465  11.483 -0.1271 -0.2494 -0.2252
 8271W        W24345  15.411   0.755   2.903  0.2258  0.2628 -0.3377
 8272W        W24346   3.139  12.789   5.235 -0.1288  0.0465  0.1511
 8273W        W24347  15.913   6.888   0.685 -0.0332 -0.0420  0.0203
 8274W        W24348  17.621   5.860  15.006  0.2409  0.0107  0.0856
 8275W        W24349   3.527  17.728  14.648  0.0933 -0.1836  0.0167
 8276W        W24350  17.809  12.682   4.464  0.1567  0.0303 -0.3595
 8277W        W24351   5.706   1.282   4.232  0.1210 -0.1429  0.2575
 8278W        W24352   4.159   5.202   5.217  0.2460  0.0054  0.1293
 8279W        W24353   4.513   4.192  15.979 -0.0430 -0.0315  0.0521
 8280W        W24354   3.757  17.959  16.430  0.1628 -0.1345 -0.0670
 8281W        W24355  16.811  12.128   3.764  0.2193 -0.0700  0.1303
 8282W        W24356   1.911  16.711   2.111  0.1241  0.2393  0.4600
 8283W        W24357   0.592   8.610  15.586  0.0380 -0.0553  0.0078
 8284W        W24358   2.653  13.893   3.552 -0.3262  0.0892  0.0710
 8285W        W24359   3.057  15.001   5.240  0.0335 -0.0304  0.3122
 8286W        W24360   1.287  10.978   5.382 -0.2200 -0.0247  0.1824
 8287W        W24361  16.996  16.686   3.733  0.1662  0.4536  0.4370
 8288W        W24362  16.940   1.460  12.249 -0.0506  0.0916 -0.1594
 8289W        W24363   2.228  12.559  15.928  0.1291 -0.4467 -0.0402
 8290W        W24364   7.254   0.650   5.091  0.0505 -0.2424  0.2593
 8291W        W24365   3.209   8.247   4.587  0.1971 -0.2037 -0.2523
 8292W        W24366   1.722   1.703  12.900  0.0935  0.0157  0.0215
 8293W        W24367   4.658   6.542  15.180 -0.1764  0.0788  0.2893
 8294W        W24368  17.866   7.665   5.324  0.1993  0.1066  0.2556
 8295W        W24369   6.375  14.102   2.206  0.0615 -0.2844  0.1698
 8296W        W24370   8.753  13.077  15.327 -0.1368 -0.3592  0.1307
 8297W        W24371  11.125  16.331   3.312 -0.0424  0.2312 -0.2114
 8298W        W24372   0.168  14.092   1.905 -0.0982  0.2929 -0.1299
 8299W        W24373   6.496   4.791  13.439  0.0241  0.0489  0.0937
 8300W        W24374  11.383   2.764  15.943  0.2655 -0.0359 -0.1133
 8301W        W24375   4.765   4.615   1.598 -0.0213  0.2226 -0.0344
 8302W        W24376   4.643  16.611   4.929  0.0793  0.0596  0.1492
 8303W        W24377  16.617   4.875  16.241 -0.0358  0.1051 -0.1111
 8304W        W24378   3.049  10.166   6.110 -0.3295  0.3974  0.1454
 8305W        W24379  16.910   5.676   1.809  0.2198 -0.0136 -0.3793
 8306W        W24380  13.152   1.650  13.455 -0.1511 -0.1533  0.0168
 8307W        W24381   9.409   3.235   6.353 -0.0023  0.1062 -0.2213
 8308W        W24382  11.572  14.261   2.315  0.0616 -0.0292 -0.0531
 8309W        W24383   6.444   9.702  11.814 -0.1355 -0.0122  0.1590
 8310W        W24384   4.809  10.216  15.579 -0.2153 -0.1149  0.1083
 8311W        W24385  10.541  11.024   2.384  0.1083 -0.1303  0.2503
 8312W        W24386   2.221  17.048  13.697 -0.0065 -0.1199 -0.1224
 8313W        W24387  16.337   2.706  16.180 -0.0472  0.2448 -0.0081
 8314W        W24388   0.592  17.629  13.453 -0.0279  0.1944 -0.2709
 8315W        W24389   9.252  15.565  11.821 -0.0498  0.1151 -0.0635
 8316W        W24390  14.791  16.742   2.676  0.0188  0.1079 -0.1368
 8317W        W24391   9.964  17.603   1.543 -0.1952  0.0168 -0.0481
 8318W        W24392   4.165   5.198   1.327 -0.0298  0.0794  0.0100
 8319W        W24393  15.045  15.249  15.713 -0.0877  0.0065 -0.1821
 8320W        W24394   4.040  12.032  11.362  0.2155  0.0099 -0.3466
 8321W        W24395   7.799   7.969   3.944 -0.0654  0.2821  0.0622
 8322W        W24396   3.534  13.010  11.976 -0.2039 -0.1037 -0.0468
 8323W        W24397  12.072   5.612  15.567  0.4466  0.2124  0.1538
 8324W        W24398  10.897  16.321  14.910  0.1055 -0.1670  0.3700
 8325W        W24399   6.438  14.288  13.748  0.0868 -0.2069 -0.0326
 8326W        W24400  13.044   6.584  13.494  0.0603  0.2100 -0.3182
 8327W        W24401   4.559   6.625   1.087 -0.0433 -0.0570 -0.0588
 8328W        W24402   1.384  13.671  15.567 -0.0640 -0.0750 -0.2072
 8329W        W24403   8.181   0.411  13.789  0.1851 -0.2318  0.5119
 8330W        W24404   8.301   7.589  11.567  0.2836 -0.1964  0.2114
 8331W        W24405   9.874  16.096  16.402 -0.1451 -0.0856 -0.0933
 8332W        W24406   7.661  16.904  13.508 -0.2875 -0.3022  0.0278
 8333W        W24407   6.549  10.848  13.905  0.2687 -0.3268  0.2347
 8334W        W24408   0.221   1.245   0.747  0.4226  0.0636 -0.0089
 8335W        W24409   5.297   8.808   3.716 -0.1036  0.0406 -0.1057
 8336W        W24410   5.599  12.746   1.446 -0.1501  0.0812 -0.2494
 8337W        W24411  14.149   3.437   2.146 -0.2633  0.1377 -0.0130
 8338W        W24412  14.822   5.249  14.867 -0.0341 -0.2201 -0.0884
 8339W        W24413   2.403   9.986  12.713 -0.1464  0.1836  0.2049
 8340W        W24414   8.916   3.787   0.333  0.1169 -0.0054  0.2267
 8341W        W24415  15.292   3.410  16.303  0.0903 -0.3970  0.1583
 8342W        W24416   1.056   3.431  12.452 -0.0882 -0.4418 -0.4024
 8343W        W24417  17.948   9.724  15.584 -0.1429 -0.0036 -0.1553
 8344W        W24418  11.287  15.815   5.551  0.1420 -0.0867 -0.1180
 8345W        W24419   7.820  11.449   5.274 -0.3753  0.0124  0.2762
 8346W        W24420   4.630   7.365  14.957 -0.3057  0.2110 -0.1679
 8347W        W24421   2.047   0.301  15.517  0.2619 -0.2048  0.1067
 8348W        W24422   0.836   4.559   4.192  0.1937 -0.1054 -0.1445
 8349W        W24423  11.984  13.043  12.192 -0.1557  0.1511  0.0420
 8350W        W24424   4.282  15.637   5.065  0.0771 -0.1111 -0.0031
 8351W        W24425  14.612  11.897   3.393  0.3152  0.4660 -0.2735
 8352W        W24426  10.583  17.404   2.779 -0.1574 -0.1238  0.0855
 8353W        W24427   3.067   1.168   5.621  0.1681 -0.0504  0.0385
 8354W        W24428   9.797  16.622   4.716 -0.2277  0.1325 -0.2060
 8355W        W24429   3.539   1.929  13.948  0.2084 -0.0496 -0.1038
 8356W        W24430  12.046   5.191  13.611 -0.1742  0.4391 -0.1465
 8357W        W24431   6.976   0.587   2.968  0.0238  0.3378  0.1063
 8358W        W24432   5.231   2.086   3.157 -0.0688 -0.0123  0.6315
 8359W        W24433   4.696  17.677   1.874  0.0709  0.0853 -0.0348
 8360W        W24434  14.381  17.483  12.788  0.2238  0.2457  0.1293
 8361W        W24435   7.312   3.608  12.184  0.0687  0.1433  0.3390
 8362W        W24436   2.211   5.767  10.819  0.2879  0.1271  0.0929
 8363W        W24437  17.834   3.475   0.852 -0.1048  0.1188 -0.1107
 8364W        W24438   5.463   8.590   4.321 -0.0390  0.1454  0.1072
 8365W        W24439   0.909   2.589  14.088 -0.0304 -0.1557  0.0821
 8366W        W24440   2.530  17.634  15.109  0.2175  0.2389  0.1123
 8367W        W24441   0.879   7.764   4.396  0.1491  0.0263 -0.3814
 8368W        W24442   3.437  15.992   0.816  0.1726 -0.0403 -0.0417
 8369W        W24443   7.994  15.633   0.200 -0.0098 -0.0849 -0.1000
 8370W        W24444  14.983  15.243  13.844 -0.1201 -0.1619  0.2249
 8371W        W24445   2.620   5.782   1.750 -0.0546  0.0505 -0.1351
 8372W        W24446  10.038   2.067  12.488 -0.2052  0.1109  0.0616
 8373W        W24447   6.395  11.029   1.018  0.2514 -0.0177 -0.1256
 8374W        W24448  17.263   0.548   4.271  0.1759 -0.1616 -0.0445
 8375W        W24449  12.319   5.223  14.052 -0.0992  0.3790 -0.0516
 8376W        W24450   5.717   8.003  13.203 -0.3276 -0.0266 -0.0209
 8377W        W24451  16.836  15.522  12.668 -0.3086  0.2463 -0.1296
 8378W        W24452   1.959   7.667   0.015 -0.3492  0.1258  0.0897
 8379W        W24453   4.597   4.888  14.203 -0.0426  0.2414  0.0825
 8380W        W24454  14.249   0.236  14.723  0.0478  0.2706 -0.2825
 8381W        W24455  17.205   5.506  11.045 -0.0778 -0.1679 -0.0362
 8382W        W24456   9.379  11.864   4.632 -0.0859 -0.1775  0.0886
 8383W        W24457   1.024  14.687   9.842  0.0115  0.1721  0.0572
 8384W        W24458  11.108   6.742   5.719  0.1582  0.0713 -0.1795
 8385W        W24459  14.716  10.825   1.161 -0.1258  0.2414 -0.0663
 8386W        W24460   1.825  10.097   1.719 -0.1437 -0.0874 -0.0861
 8387W        W24461   0.172  17.986   1.755  0.1801 -0.0535  0.0296
 8388W        W24462   9.795  12.452   6.415 -0.1363 -0.2202 -0.0369
 8389W        W24463   6.393   5.740  16.321 -0.0160 -0.0400 -0.0377
 8390W        W24464  13.793   2.611  11.785  0.2694  0.0714 -0.1855
 8391W        W24465   3.998   7.521  12.695 -0.0289 -0.0433 -0.1613
 8392W        W24466   3.149  17.177  13.439  0.0060 -0.0367 -0.2463
 8393W        W24467  12.041  12.075  15.443 -0.1824 -0.1913 -0.0324
 8394W        W24468   6.372   7.629   4.746 -0.0064  0.1257 -0.1100
 8395W        W24469   1.927  13.324   1.018  0.3521  0.0366 -0.1973
 8396W        W24470  18.002   2.047  11.777  0.2936  0.1530  0.1345
 8397W        W24471   1.749  16.021   5.112 -0.2859  0.1226 -0.0675
 8398W        W24472  15.642  12.256   0.875  0.0390 -0.1911  0.0027
 8399W        W24473   8.352  13.290   4.037  0.0722  0.1532  0.1569
 8400W        W24474   5.439   6.105   5.954 -0.2390  0.0489  0.2751
 8401W        W24475   9.547  10.166   4.963  0.1112 -0.2426  0.0286
 8402W        W24476   5.799   6.629   0.498 -0.2202  0.4050  0.2111
 8403W        W24477   7.971   1.137  11.270  0.1989 -0.2292 -0.0551
 8404W        W24478   9.478  14.081   2.785  0.0068 -0.0205 -0.1890
 8405W        W24479  15.953   4.212  16.178 -0.1168 -0.1937 -0.2321
 8406W        W24480  15.375   1.797   0.882  0.0118  0.0735 -0.0265
 8407W        W24481  12.525  17.786  13.453 -0.1219 -0.2039 -0.1598
 8408W        W24482  17.777   4.066   0.041  0.0808 -0.2519  0.0074
 8409W        W24483  12.239   3.454  12.498  0.3599 -0.2053 -0.1477
 8410W        W24484   5.549   0.012  11.563  0.3356  0.0280 -0.0116
 8411W        W24485  15.745  15.698  15.138  0.3572  0.3963 -0.2754
 8412W        W24486   0.152   2.090  16.366 -0.1016  0.2218 -0.0057
 8413W        W24487  13.574  12.241  13.050 -0.0361 -0.2474 -0.1117
 8414W        W24488  10.649   3.974  13.518 -0.0987  0.2415  0.3594
 8415W        W24489  14.987  12.316   2.034  0.0302  0.2258 -0.3807
 8416W        W24490   3.441  11.099  15.451  0.1397  0.1510 -0.1167
 8417W        W24491   9.063  10.165  13.157 -0.0766  0.0333  0.2213
 8418W        W24492   8.146   6.540   3.874  0.3063  0.0519  0.0269
 8419W        W24493   4.851   5.832  15.556  0.1172  0.0344  0.0725
 8420W        W24494  13.281   2.775  12.421 -0.0335  0.0293  0.2215
 8421W        W24495  16.528  12.102  13.834 -0.3019  0.0499 -0.0415
 8422W        W24496  12.139  16.518  14.186 -0.1435 -0.0055  0.0865
 8423W        W24497  16.647  12.992  13.552  0.0860 -0.0215 -0.1231
 8424W        W24498   7.454   9.431   0.576  0.2515 -0.1145 -0.1255
 8425W        W24499  10.689   2.212  11.478 -0.1992  0.1643 -0.1017
 8426W        W24500   7.134   0.806   0.560  0.0705  0.3532 -0.0053
 8427W        W24501   2.602   5.318   3.087  0.1372  0.1988  0.0638
 8428W        W24502   9.711  18.211  13.031  0.0063  0.2042  0.0023
 8429W        W24503   7.702   7.643   0.260  0.3502 -0.0551  0.0680
 8430W        W24504  13.607   7.082  15.349 -0.2062  0.1432 -0.2740
 8431W        W24505  13.613   9.748   6.057 -0.1420  0.0546  0.0897
 8432W        W24506  11.303   1.335  13.851 -0.1522 -0.0431 -0.3664
 8433W        W24507  10.535  13.123   1.122  0.0802  0.3219  0.1021
 8434W        W24508   8.020   9.246  14.603 -0.3090  0.1155  0.1213
 8435W        W24509  17.868   7.780  11.777 -0.0328 -0.2336  0.2887
 8436W        W24510   3.644   1.982  15.364  0.2577  0.1654 -0.1713
 8437W        W24511   0.190   3.152  14.123  0.2023  0.3003  0.3443
 8438W        W24512  13.237  12.405   5.007  0.0214  0.1653  0.1147
 8439W        W24513   7.335   6.667  15.211 -0.1873  0.1707  0.4144
 8440W        W24514  13.307   8.075  16.266  0.0160  0.0399  0.0345
 8441W        W24515  11.745  14.424   0.184 -0.0044 -0.1411  0.0741
 8442W        W24516  10.865  10.917  15.139  0.4514 -0.1003 -0.8254
 8443W        W24517  11.933   9.434   2.557 -0.4216 -0.4575 -0.3949
 8444W        W24518   3.250   4.019   4.057  0.2017 -0.2527 -0.0189
 8445W        W24519   3.210  17.967   0.987  0.1576 -0.0569  0.0065
 8446W        W24520   0.291   0.772   1.648  0.2926  0.3317  0.2579
 8447W        W24521  17.046  15.060  14.275  0.1037  0.1067  0.2936
 8448W        W24522   7.239   1.289  11.880 -0.0874 -0.1996  0.2304
 8449W        W24523  17.688   6.036   4.283  0.1319  0.3218 -0.1292
 8450W        W24524  15.152   6.014  14.796 -0.1160 -0.4053  0.0036
 8451W        W24525   4.565  15.581   0.919 -0.3904  0.1255  0.1137
 8452W        W24526   9.370  17.834  13.227  0.0743  0.2463 -0.0174
 8453W        W24527  12.484  17.180   3.993 -0.0067  0.3409  0.1167
 8454W        W24528  17.751   6.721   3.312 -0.1236 -0.0220  0.3473
 8455W        W24529   0.245  13.242  15.756 -0.0641  0.1536  0.0670
 8456W        W24530  16.479   2.735   2.515 -0.4430  0.1991  0.0480
 8457W        W24531   6.546   2.275  14.072 -0.0372  0.2658 -0.3179
 8458W        W24532   4.779   7.205  13.770  0.1700  0.0955 -0.0971
 8459W        W24533   9.827   0.469   1.599 -0.0068  0.0909 -0.1065
 8460W        W24534  13.784  14.570  13.575  0.0405  0.0622  0.1058
 8461W        W24535  16.117  11.497  14.406  0.0028  0.0352 -0.1200
 8462W        W24536   3.418   0.243  15.118  0.0988  0.1759  0.0063
 8463W        W24537   8.361  15.139  15.274 -0.0951 -0.0031  0.0765
 8464W        W24538   2.369   9.045   5.551 -0.1591  0.2007  0.0479
 8465W        W24539   4.950   6.280  14.008  0.1766 -0.2193  0.1368
 8466W        W24540  10.778   4.633   4.307  0.1082 -0.1812 -0.4700
 8467W        W24541   3.337   8.701  11.550 -0.2061  0.3735 -0.1360
 8468W        W24542   2.431   9.400  14.792 -0.3527  0.2603  0.0546
 8469W        W24543   6.346  14.745   4.282 -0.1601 -0.1775  0.0588
 8470W        W24544   3.261   9.987  12.905 -0.0995 -0.3079 -0.3450
 8471W        W24545  11.622  15.543   1.894 -0.0699  0.0233 -0.0596
 8472W        W24546   6.024  15.866  12.923 -0.0871  0.2689 -0.0006
 8473W        W24547  13.202   9.305   4.349 -0.4657 -0.0214  0.3315
 8474W        W24548  15.323   6.348   1.946 -0.2088 -0.0235  0.0965
 8475W        W24549   2.945   8.888  16.102 -0.2508  0.1973  0.0751
 8476W        W24550   9.964   2.878  15.484 -0.2707 -0.0707  0.1344
 8477W        W24551  12.278   1.510  14.266 -0.0970 -0.1440  0.2665
 8478W        W24552  17.452   7.002   4.421 -0.2931 -0.1331 -0.2189
 8479W        W24553  17.078  13.410  12.701  0.0513 -0.1361 -0.0521
 8480W        W24554   2.041  11.859  15.271  0.3002  0.0227 -0.1080
 8481W        W24555  11.954   0.841  13.832 -0.0456 -0.0321  0.0319
 8482W        W24556  17.059   2.234   2.989  0.1718 -0.0812  0.3258
 8483W        W24557  17.315   9.758   2.395 -0.0990  0.3362 -0.3276
 8484W        W24558  12.643  16.790   3.137  0.1659 -0.0970 -0.0744
 8485W        W24559   7.899  12.083   3.788  0.0736 -0.0998 -0.0083
 8486W        W24560  15.570  16.054   0.144 -0.1979  0.0536 -0.0873
 8487W        W24561  10.157  15.934  14.892  0.0387 -0.0519  0.0489
 8488W        W24562   2.435   1.952  11.513  0.0466 -0.2804 -0.0992
 8489W        W24563  10.815  10.539   1.366  0.1324  0.1026  0.2542
 8490W        W24564   6.483   1.770   1.170 -0.2138 -0.1010 -0.0615
 8491W        W24565   9.848   0.338   2.115 -0.2099 -0.1097 -0.0164
 8492W        W24566   0.685  16.987   0.921  0.0715 -0.0031 -0.3103
 8493W        W24567   8.704  15.381   2.556  0.0442  0.0178 -0.0278
 8494W        W24568  16.126  18.070   0.903 -0.4505  0.0479 -0.1821
 8495W        W24569   4.672  14.142   4.403  0.0726 -0.1509  0.0205
 8496W        W24570  15.664   1.556   3.500 -0.0411  0.2401 -0.2529
 8497W        W24571   9.886  10.990  12.202 -0.0507 -0.1202  0.3990
 8498W        W24572   3.520   5.114   0.633 -0.1164  0.1649  0.3158
 8499W        W24573  17.384   5.066  12.088  0.1285 -0.1535 -0.0111
 8500W        W24574  11.448   1.470  12.743  0.1406  0.2920 -0.4420
 8501W        W24575   7.324  13.367   4.996 -0.0137 -0.0627 -0.0702
 8502W        W24576   3.884   6.264   1.392  0.2730  0.0361 -0.1520
 8503W        W24577   1.246   4.771  12.145  0.2544  0.1346 -0.2118
 8504W        W24578   3.785   3.443   1.103  0.2025 -0.2887  0.0324
 8505W        W24579   7.360  13.755  12.723  0.1152 -0.1258 -0.0170
 8506W        W24580   7.762   8.051   2.914 -0.2890 -0.0990  0.0734
 8507W        W24581  16.728   4.544  12.763  0.2571  0.1039  0.2294
 8508W        W24582  12.983   4.456   4.380 -0.1427  0.0908  0.0646
 8509W        W24583  10.297   8.486   0.686 -0.0190  0.1186 -0.0961
 8510W        W24584   9.254  13.594   0.754 -0.0558 -0.4544 -0.0635
 8511W        W24585  14.946   3.580   5.668  0.1130  0.3431  0.0470
 8512W        W24586  11.241  10.526  13.090  0.0403 -0.2618  0.3013
 8513W        W24587   4.749  17.162   2.880 -0.3704 -0.0820 -0.1149
 8514W        W24588   7.182   0.972   1.066 -0.3112  0.1847  0.1830
 8515W        W24589  12.658   8.079  14.205 -0.2160  0.0878 -0.0725
 8516W        W24590  13.550   8.470  15.082  0.2337 -0.0121 -0.0203
 8517W        W24591   3.064   3.819   0.654 -0.1288  0.0330 -0.0340
 8518W        W24592   3.153  13.094  13.598 -0.0930  0.1406  0.2143
 8519W        W24593  16.025   6.613   0.223  0.1074  0.1719 -0.0541
 8520W        W24594  13.986  13.755   1.199 -0.0634  0.1222  0.0274
 8521W        W24595  16.192   1.498  13.655  0.2577 -0.3149 -0.1298
 8522W        W24596  16.035   9.188  13.418  0.1005  0.0722  0.0998
 8523W        W24597   0.722  10.584   3.579 -0.0146  0.0125  0.0950
 8524W        W24598  10.628  17.846   4.191 -0.0529  0.0925  0.2580
 8525W        W24599   9.824   1.643  11.717  0.1871 -0.0978  0.0659
 8526W        W24600   2.757   7.577   4.533 -0.4498  0.2309  0.2545
 8527W        W24601   0.105  10.066  11.944  0.0373 -0.1357 -0.0358
 8528W        W24602  13.433   8.280  13.130 -0.0040  0.3589  0.0848
 8529W        W24603   4.879  17.298  11.407  0.1163  0.3658  0.0473
 8530W        W24604  13.998   8.619   4.462  0.1060 -0.0557  0.1270
 8531W        W24605   8.425   2.302  13.359 -0.0078  0.0633 -0.0557
 8532W        W24606  14.913   1.206  14.928 -0.0476  0.3406 -0.0695
 8533W        W24607   2.905   7.963   2.111  0.0578  0.1728 -0.0549
 8534W        W24608   2.866  16.493  14.991 -0.3768  0.0719 -0.2422
 8535W        W24609   8.879  17.248   3.685  0.1327 -0.2102 -0.4346
 8536W        W24610  13.397  16.583  13.113 -0.2071 -0.2416  0.0682
 8537W        W24611   0.924  17.947  14.653 -0.3841  0.1598  0.0402
 8538W        W24612  14.042   3.434  12.289 -0.1351 -0.1338  0.1821
 8539W        W24613   6.837  17.000  14.497  0.3252 -0.1560 -0.0095
 8540W        W24614  13.885   0.133   0.578  0.1983  0.0486 -0.2629
 8541W        W24615   2.550   6.550  14.120 -0.0372 -0.0665 -0.3873
 8542W        W24616   1.624   6.596   3.639  0.0518 -0.0976  0.2753
 8543W        W24617  11.403  15.460   0.400 -0.0972  0.1308  0.2855
 8544W        W24618  14.506   5.682   3.069  0.0253 -0.0943 -0.0269
 8545W        W24619   2.647  12.524  15.487  0.0565 -0.0171  0.2740
 8546W        W24620   9.687   5.401  13.661 -0.1239 -0.1280  0.4894
 8547W        W24621   7.271   9.325   4.163  0.1248 -0.1654 -0.0378
 8548W        W24622  17.910  16.494   0.154 -0.0707  0.0204  0.4828
 8549W        W24623   2.336  11.828   5.034  0.0435 -0.0395 -0.0024
 8550W        W24624   7.570   6.573   1.830  0.2025 -0.1229 -0.1254
 8551W        W24625  16.311   8.750  11.502 -0.1576 -0.1128 -0.1389
 8552W        W24626  10.074   4.684  13.265 -0.0328 -0.2432  0.0360
 8553W        W24627  17.695   0.974  16.389 -0.1282 -0.1736 -0.0394
 8554W        W24628  17.290   5.964  16.362 -0.1542 -0.2336 -0.0125
 8555W        W24629   4.169  16.531   5.100 -0.0699 -0.2036 -0.1546
 8556W        W24630   4.996   7.067   3.329 -0.1545 -0.3691 -0.0640
 8557W        W24631   1.712  11.627   3.753  0.2782 -0.0515  0.1608
 8558W        W24632  12.174  13.389   4.677 -0.0012 -0.3569  0.1708
 8559W        W24633  12.893   4.102   6.304 -0.1693  0.2896 -0.0493
 8560W        W24634   8.987   0.611  15.344  0.2056 -0.0825  0.0494
 8561W        W24635   0.318  12.351  11.449  0.0465 -0.1795  0.2467
 8562W        W24636   0.348  17.669   1.235  0.2289  0.2391 -0.0848
 8563W        W24637   5.441   7.592  13.093 -0.0994  0.1978 -0.0097
 8564W        W24638   1.988  13.795  12.160 -0.0472  0.2289  0.4069
 8565W        W24639  14.115   8.355   2.427  0.1233  0.2938 -0.0723
 8566W        W24640   7.100   1.425  13.576 -0.2286  0.2065 -0.0937
 8567W        W24641  14.921   4.543  14.186  0.0234 -0.1885  0.1584
 8568W        W24642   8.607   1.242   0.907 -0.0266  0.0702  0.0092
 8569W        W24643  11.558   9.794   0.915  0.2020 -0.0352  0.2214
 8570W        W24644   3.011   7.699   3.020 -0.0174 -0.0635  0.1643
 8571W        W24645   1.462  15.677   1.096  0.3782 -0.0514 -0.2237
 8572W        W24646  10.257  15.744   5.430 -0.1372  0.4076 -0.1670
 8573W        W24647   7.236  16.509  15.440  0.0817 -0.0132 -0.3735
 8574W        W24648   0.665   7.596   1.498 -0.4089  0.1473 -0.0873
 8575W        W24649   4.693  15.241   0.528  0.0660  0.0762 -0.2256
 8576W        W24650  11.339   4.416   0.837 -0.1428 -0.1389  0.2652
 8577W        W24651   6.804   5.633   3.886  0.2487 -0.0671  0.2767
 8578W        W24652   9.188  11.182   5.012  0.2949  0.4636 -0.0339
 8579W        W24653  11.806  13.301   5.219 -0.0417 -0.1273 -0.0555
 8580W        W24654   6.548   3.876  13.877  0.3340  0.0963 -0.0608
 8581W        W24655  14.317  14.253  15.590 -0.0466 -0.0270  0.2820
 8582W        W24656  14.994  13.840   3.898  0.1296  0.0472  0.0129
 8583W        W24657  10.487   4.802  12.915 -0.2569  0.0032  0.0077
 8584W        W24658  10.305   9.405  15.865  0.2279 -0.1108 -0.1343
 8585W        W24659  14.406   9.714   0.564 -0.2080 -0.1255 -0.3348
 8586W        W24660   7.650   1.320  15.960 -0.1307  0.2350 -0.2978
 8587W        W24661   4.261  14.512  12.546 -0.4626  0.0248  0.1764
 8588W        W24662   9.281  12.987  11.646  0.1265 -0.2240 -0.0598
 8589W        W24663   0.308  12.467  12.108  0.4960 -0.0371 -0.2682
 8590W        W24664   1.790   4.650   2.736  0.1742  0.2014  0.0553
 8591W        W24665  12.472  11.473   0.141  0.2445 -0.3401  0.3939
 8592W        W24666  10.276  13.828   0.643  0.0943  0.0791  0.1867
 8593W        W24667  17.091  17.540   0.358  0.0859  0.1981 -0.1296
 8594W        W24668  11.384   5.415  12.880  0.1955 -0.0861 -0.0905
 8595W        W24669   8.756  10.540   3.129  0.0264  0.1914 -0.0829
 8596W        W24670  15.630   9.005   2.298 -0.1296  0.1054  0.2096
 8597W        W24671  11.692   4.396   2.680  0.0796 -0.1663 -0.0443
 8598W        W24672   5.901   4.192   1.643 -0.1964  0.2307  0.0039
 8599W        W24673   7.362   1.305   2.735 -0.0588  0.1959  0.2465
 8600W        W24674   1.047   0.616   0.176 -0.2748  0.0652 -0.1143
 8601W        W24675  14.692  14.187   0.410  0.2401 -0.1568 -0.0545
 8602W        W24676  13.277  15.630   3.269 -0.1018 -0.1622  0.0941
 8603W        W24677   6.525   7.564   4.267 -0.1405  0.1918  0.0009
 8604W        W24678   9.213   9.033   4.067  0.1446  0.0137  0.1344
 8605W        W24679   2.324   6.531   4.835  0.1142  0.0812  0.0596
 8606W        W24680   1.496   6.465   0.255  0.2596 -0.2624 -0.1128
 8607W        W24681  15.380   7.077  12.824  0.0793 -0.2758 -0.1669
 8608W        W24682   4.961  12.168   3.100 -0.1161 -0.4374  0.0353
 8609W        W24683  16.186  11.361   0.170  0.1862 -0.1469  0.0731
 8610W        W24684  16.258   7.230   2.495  0.1618  0.2101 -0.0269
 8611W        W24685  12.401  11.593   2.849  0.2077 -0.4566 -0.1836
 8612W        W24686   7.570   9.220   3.613  0.0878 -0.1310 -0.1938
 8613W        W24687  16.208   2.315  14.916  0.1461 -0.0941  0.0295
 8614W        W24688  11.389   3.456  14.970  0.3193  0.0413 -0.2405
 8615W        W24689   5.816  13.727   0.362  0.2772  0.1652  0.0521
 8616W        W24690  13.577   2.285   1.704  0.2497  0.0851  0.0668
 8617W        W24691  13.831   9.621  13.158  0.0904 -0.2355 -0.0185
 8618W        W24692   8.998   3.860   2.562 -0.0614 -0.0530  0.0739
 8619W        W24693  12.071   1.584   4.362  0.3577  0.2512 -0.1888
 8620W        W24694   5.377  17.948  15.682  0.2141  0.3957  0.3081
 8621W        W24695   7.892   0.106   5.313 -0.1835  0.1904 -0.0805
 8622W        W24696   0.442  10.793  15.942 -0.2545 -0.2161  0.1049
 8623W        W24697  10.217   6.757   1.164  0.0784  0.2942 -0.2083
 8624W        W24698  12.180   5.987  13.089  0.0149  0.1108 -0.0510
 8625W        W24699   1.611  13.428   5.175 -0.0603  0.2083 -0.1593
 8626W        W24700   8.885  15.878   6.171  0.2510  0.0613 -0.0150
 8627W        W24701   3.692   9.156  15.065 -0.2778  0.1415 -0.0157
 8628W        W24702  15.831  16.388  10.027 -0.0137  0.2390  0.4027
 8629W        W24703  12.310  16.241   1.355  0.0017  0.0844  0.0426
 8630W        W24704  14.359   4.266   4.365  0.1327 -0.1983 -0.1118
 8631W        W24705   3.581   4.093  16.369  0.0184  0.1408  0.0191
 8632W        W24706   1.633  11.666  16.444 -0.2154 -0.1507  0.1645
 8633W        W24707   7.048   3.881   0.931 -0.0880  0.3539  0.1322
 8634W        W24708   8.117  14.985   4.358 -0.1038  0.2434  0.1759
 8635W        W24709  13.768  15.934  11.382 -0.0259  0.2279  0.0247
 8636W        W24710  17.207  15.998  12.949 -0.2152  0.1760  0.1748
 8637W        W24711   0.521   3.967   0.383 -0.2006 -0.0976 -0.1783
 8638W        W24712   5.145   0.056   1.621  0.0044  0.1457 -0.1773
 8639W        W24713   2.531  15.451   4.640  0.3683  0.0810  0.3564
 8640W        W24714  17.936  16.670   4.692  0.2510  0.2179  0.1129
 8641W        W24715   0.684  11.476  15.161 -0.0307 -0.0788 -0.2214
 8642W        W24716   5.985   6.510   1.532  0.0408  0.3837 -0.3180
 8643W        W24717  16.880   3.922   0.091  0.3436  0.0593  0.1732
 8644W        W24718  16.535   6.136  11.853 -0.0338  0.2615  0.1358
 8645W        W24719  12.443   5.151  12.237  0.0954  0.1492  0.1781
 8646W        W24720  12.809  11.346  14.480  0.2659  0.1297  0.0903
 8647W        W24721   5.434  12.084  12.354  0.0649 -0.4993 -0.0012
 8648W        W24722  10.105  11.279   2.256  0.1717 -0.0392  0.3987
 8649W        W24723   6.118  17.760  14.467 -0.1477  0.1909  0.2248
 8650W        W24724  12.345   0.577   1.523  0.0988  0.1697  0.1197
 8651W        W24725   8.064   6.036  13.063 -0.0337 -0.1298  0.0248
 8652W        W24726  16.422  13.557   2.470 -0.0159 -0.4851  0.0520
 8653W        W24727  16.926  16.234  10.957  0.3939  0.0557 -0.0705
 8654W        W24728   6.776  17.220  11.162 -0.2146 -0.0228 -0.4665
 8655W        W24729   5.301  12.599  12.248 -0.2524  0.3486 -0.2176
 8656W        W24730  16.301   8.254   4.286  0.3346  0.2509 -0.1635
 8657W        W24731   5.936   9.231  11.285  0.1593  0.1746  0.1650
 8658W        W24732   3.488   4.198  13.683  0.1917  0.1709 -0.2420
 8659W        W24733   4.147   3.476  11.223  0.2837 -0.2808 -0.0539
 8660W        W24734  11.074  12.118   2.850  0.0383 -0.1540  0.0520
 8661W        W24735  11.623   4.632   3.220 -0.2126 -0.0211  0.0601
 8662W        W24736  11.715   7.551  15.873 -0.3214  0.0096 -0.0276
 8663W        W24737  14.298   1.341   4.537  0.1623  0.0522  0.1069
 8664W        W24738   9.275   0.502   1.480  0.0571 -0.2048 -0.0531
 8665W        W24739  11.731   9.119   6.687  0.0282  0.0505 -0.2521
 8666W        W24740   3.682   8.441   1.425 -0.2197 -0.4090 -0.3590
 8667W        W24741  16.604  11.949  14.410  0.2236 -0.2527  0.3162
 8668W        W24742  16.849   6.286   0.015 -0.1263 -0.0616 -0.1849
 8669W        W24743   9.922  17.057   4.430  0.0666 -0.0433  0.1654
 8670W        W24744  16.231   4.306  12.261  0.1905 -0.0126  0.1052
 8671W        W24745  10.622  17.771  10.701  0.0507 -0.0797 -0.2069
 8672W        W24746   1.045   8.441   4.217 -0.2236  0.0360  0.0372
 8673W        W24747   0.698   2.038   2.324  0.1872  0.2235  0.2781
 8674W        W24748   7.825   9.961  11.822 -0.2317 -0.1442  0.2306
 8675W        W24749  14.070   3.004  11.959  0.0001 -0.2274  0.0342
 8676W        W24750   8.746  10.912   0.577 -0.0439  0.0853 -0.0714
 8677W        W24751   0.795  16.106  12.432 -0.1202 -0.0348  0.1193
 8678W        W24752   5.546  10.754   5.282 -0.2547  0.1164 -0.1932
 8679W        W24753  14.179   8.858  11.591  0.1366 -0.0300 -0.1047
 8680W        W24754   5.102   4.382  14.295 -0.0644 -0.0750 -0.1932
 8681W        W24755   0.276   9.485  12.101  0.0618  0.1501 -0.0972
 8682W        W24756   1.762  15.011  13.551  0.0233 -0.0127  0.0079
 8683W        W24757  12.958   3.496   5.700  0.1157  0.2437  0.2377
 8684W        W24758  10.439   1.706  12.363 -0.1176  0.2194 -0.1226
 8685W        W24759  12.262   6.019   1.796  0.0970  0.0955  0.1512
 8686W        W24760  12.577   4.000  15.002 -0.1998 -0.2720  0.0365
 8687W        W24761  15.859   0.647  12.971  0.1868  0.5407 -0.2685
 8688W        W24762  18.107   8.557   2.545 -0.1647  0.1465  0.3852
 8689W        W24763  17.278   9.465  14.363  0.1526  0.0086 -0.2417
 8690W        W24764   8.545   9.625  12.609 -0.0736  0.0033  0.0500
 8691W        W24765   9.630  12.935  13.111  0.0679 -0.1293 -0.0477
 8692W        W24766  13.994   5.280  14.408  0.0074 -0.0164  0.2661
 8693W        W24767   2.469  17.534  10.733  0.0036 -0.0017 -0.0400
 8694W        W24768   4.630  15.759   4.563 -0.0737  0.2569 -0.0045
 8695W        W24769  17.501  12.480   1.888  0.3672  0.3062 -0.1922
 8696W        W24770  16.810  12.925  15.914  0.3081 -0.1064 -0.1552
 8697W        W24771   3.659   4.805  11.953  0.0633  0.1786  0.2474
 8698W        W24772  11.841  14.410  15.128  0.2746 -0.0013 -0.0993
 8699W        W24773   3.069   6.439  16.291  0.0282  0.2402  0.0367
 8700W        W24774  17.863   5.463   1.476  0.0997  0.0370 -0.1111
 8701W        W24775   7.939   1.472   5.426 -0.0168  0.2110 -0.0687
 8702W        W24776  15.212   8.434  15.975  0.3582  0.2461 -0.1471
 8703W        W24777  11.734  13.714   0.964  0.0827  0.2246  0.0244
 8704W        W24778  11.009   3.412   1.881 -0.0447  0.0917  0.1455
 8705W        W24779   9.433   5.744   2.383  0.0216  0.0794 -0.0141
 8706W        W24780  17.973   7.374  15.402  0.2781  0.1612 -0.2894
 8707W        W24781   3.012  17.028   4.063 -0.0333  0.0208 -0.1738
 8708W        W24782   9.790  10.260   4.317 -0.1426 -0.2443  0.3331
 8709W        W24783   0.824  11.384  12.938  0.1214  0.0176 -0.3717
 8710W        W24784   3.468  13.764  16.475  0.0682 -0.3299  0.0635
 8711W        W24785   1.390  10.198   1.581  0.0740 -0.3905  0.1807
 8712W        W24786  10.307   5.487  15.647 -0.0259  0.0279 -0.0155
 8713W        W24787   0.770  10.878  11.386  0.0532  0.0403 -0.0273
 8714W        W24788  13.389   7.317   3.931 -0.1524  0.0168  0.1707
 8715W        W24789  16.191  17.265   3.640  0.0332 -0.0383 -0.2146
 8716W        W24790   0.970   2.415  12.281  0.0668  0.0901  0.0552
 8717W        W24791  10.714  11.951   4.723  0.0535  0.1821  0.0195
 8718W        W24792   8.179   8.601   1.480 -0.0044  0.0062 -0.0355
 8719W        W24793  11.757  14.819   1.311  0.0527  0.1158 -0.4233
 8720W        W24794   1.376   8.267  12.550  0.0312  0.1556  0.0328
 8721W        W24795   3.399  15.993  15.404 -0.1038  0.0529  0.0585
 8722W        W24796   1.756  16.345  15.239 -0.2448  0.1688  0.0298
 8723W        W24797   1.953   4.569   0.116  0.3615  0.2487 -0.0390
 8724W        W24798   8.853   0.366  14.414  0.1059  0.1284  0.1035
 8725W        W24799   4.270   9.404   2.766  0.0613  0.1334  0.2281
 8726W        W24800   1.433   1.626  11.266 -0.2711  0.1278  0.0320
 8727W        W24801   2.143   2.484  11.825  0.0710  0.2037 -0.4090
 8728W        W24802   2.747  16.464  13.763  0.0043 -0.2346  0.1030
 8729W        W24803   1.334  11.538   1.162  0.1366 -0.1113  0.0789
 8730W        W24804   5.348   5.204  12.565  0.1012 -0.2449 -0.1035
 8731W        W24805  10.891   1.792  12.666 -0.1226 -0.0111  0.0762
 8732W        W24806  14.038   1.539  13.728 -0.0224 -0.3390 -0.0676
 8733W        W24807   0.830   5.625   5.069 -0.0488  0.0974 -0.3333
 8734W        W24808  13.480   7.519  12.618 -0.0601  0.0849 -0.0601
 8735W        W24809   7.639   7.507   2.527  0.1052 -0.1112  0.0471
 8736W        W24810  16.415   8.722  11.973  0.1143 -0.1427  0.0062
 8737W        W24811   9.492   0.389   3.320 -0.0248  0.0888 -0.0773
 8738W        W24812   7.336  10.337  13.823 -0.2251  0.3576 -0.0357
 8739W        W24813   8.963  12.155  15.481  0.1324 -0.3555 -0.1235
 8740W        W24814   8.994   0.726  12.944  0.1331 -0.1023 -0.0462
 8741W        W24815  16.417  15.200  13.671  0.0041 -0.0522 -0.0624
 8742W        W24816  16.949  14.760   5.013 -0.1739  0.0243 -0.0620
 8743W        W24817   2.043   6.552  11.865 -0.1463 -0.0104 -0.2064
 8744W        W24818  15.962  14.116   3.942  0.2011  0.0108 -0.2227
 8745W        W24819  11.771   1.899   1.100  0.1188 -0.0452 -0.4895
 8746W        W24820   5.667   5.668   1.014 -0.0711 -0.2316 -0.0511
 8747W        W24821   0.037  16.264  15.825 -0.1855 -0.0214 -0.3665
 8748W        W24822  10.707   5.822   3.890  0.0145  0.1744  0.1255
 8749W        W24823   4.426  15.979  16.421 -0.3482  0.1926  0.4055
 8750W        W24824   5.373   4.499  12.170  0.0831  0.3042  0.0638
 8751W        W24825  12.782  16.533  13.583 -0.0215 -0.0892 -0.4156
 8752W        W24826  16.815  15.478   2.942 -0.2157 -0.0117 -0.0901
 8753W        W24827  15.675   6.939   0.179  0.1930  0.1772  0.2007
 8754W        W24828  15.114   3.844   1.218 -0.0381 -0.1436  0.2383
 8755W        W24829   6.582   9.854   4.241 -0.1950 -0.1220  0.3328
 8756W        W24830   3.478  15.153   5.569  0.2991  0.4628 -0.1736
 8757W        W24831   0.237   9.471   5.939 -0.1340 -0.1118 -0.0648
 8758W        W24832  13.712   2.245   0.214  0.1137  0.2902  0.1226
 8759W        W24833  16.024  14.805  16.219 -0.0679 -0.0380  0.2402
 8760W        W24834  13.803  15.518  14.573 -0.4011  0.2577 -0.0591
 8761W        W24835   9.156  12.392   2.316 -0.0679  0.0516 -0.2989
 8762W        W24836   6.371   7.041  15.331 -0.1851  0.0014 -0.2447
 8763W        W24837  14.655   2.254  11.865  0.0672 -0.1596 -0.1799
 8764W        W24838  12.778   2.137   0.524  0.3097  0.0117  0.0459
 8765W        W24839  12.888   2.542  11.506 -0.0061 -0.3590 -0.0592
 8766W        W24840  15.855  16.090   4.164  0.0932 -0.1837 -0.0372
 8767W        W24841   4.459  12.920   1.320  0.0875  0.2894 -0.1145
 8768W        W24842   7.042   3.704   4.193  0.0043  0.1533  0.1585
 8769W        W24843   6.183  12.240  15.315 -0.0229 -0.0904 -0.1676
 8770W        W24844  11.615   6.318   4.838  0.0371  0.2751  0.2865
 8771W        W24845   3.064   7.989  12.085 -0.0847  0.2850  0.0130
 8772W        W24846  10.977  10.609  16.518  0.1006  0.0190  0.0535
 8773W        W24847   8.318  14.649  15.154  0.0835 -0.0740 -0.3041
 8774W        W24848  16.843   2.526   5.950 -0.1559 -0.2191 -0.3403
 8775W        W24849  16.522  13.762   4.786 -0.0209  0.2813 -0.0234
 8776W        W24850  13.574   0.328   0.942 -0.0140 -0.0520 -0.0583
 8777W        W24851  14.473   8.901   0.366  0.1776  0.0743  0.2343
 8778W        W24852  14.204  14.368   0.411  0.0776  0.1729 -0.0401
 8779W        W24853  11.000  10.807  14.681 -0.1217  0.0382  0.2424
 8780W        W24854   3.001   1.169  15.766  0.4101 -0.1360 -0.2169
 8781W        W24855  11.054   3.461  15.460 -0.0764 -0.0096  0.2479
 8782W        W24856   4.218  13.884   0.338  0.0926  0.0467 -0.1936
 8783W        W24857   2.624  10.091   0.123  0.0060  0.1405 -0.1579
 8784W        W24858  13.023  10.570   2.806  0.0191 -0.0676 -0.1055
 8785W        W24859  15.339   2.461   3.558  0.1674 -0.0377  0.0958
 8786W        W24860   8.380  15.491   4.470  0.0390 -0.0761  0.0712
 8787W        W24861  16.576   8.345  11.696  0.0413  0.0883  0.0443
 8788W        W24862   6.622   5.171   2.176 -0.0926 -0.0933  0.0169
 8789W        W24863  15.627  17.047  13.050 -0.0122  0.1301 -0.2676
 8790W        W24864  17.564  16.170  16.345  0.1607 -0.0433 -0.1779
 8791W        W24865   1.957  10.191  15.346 -0.2547  0.1045  0.0175
 8792W        W24866  14.963  16.777  13.661  0.2893 -0.0435  0.1420
 8793W        W24867  15.447   9.944   2.484  0.0880 -0.1222 -0.1367
 8794W        W24868  11.828  12.619  16.199  0.1288  0.1367 -0.0516
 8795W        W24869  10.902   6.919   6.142 -0.5381 -0.2488  0.0651
 8796W        W24870  16.374   4.771   2.251  0.1753 -0.0529  0.1640
 8797W        W24871   5.899  13.141   5.205 -0.1719 -0.1070  0.2061
 8798W        W24872   3.127   4.870  15.234 -0.0392 -0.2907  0.2046
 8799W        W24873   0.484  12.899  11.876  0.2757  0.0862 -0.0631
 8800W        W24874   7.599  17.871  15.905 -0.0106 -0.2121  0.2974
 8801W        W24875  10.404   3.206   0.269 -0.0304  0.0975  0.0763
 8802W        W24876  17.276   8.261  13.948  0.1189 -0.2061 -0.3507
 8803W        W24877   5.491  15.920  12.935 -0.1022 -0.0128  0.1958
 8804W        W24878   8.959   4.366  14.090  0.1215  0.0249 -0.0294
 8805W        W24879  12.400   6.306  14.213  0.0091  0.2077  0.1208
 8806W        W24880   3.432  10.040  15.797  0.1738 -0.1467 -0.0784
 8807W        W24881   4.238   8.147  16.003  0.2664 -0.1542  0.1083
 8808W        W24882   2.445   6.962  15.301 -0.3718 -0.0184 -0.2388
 8809W        W24883   7.763   1.012   5.182 -0.1063 -0.0418 -0.0120
 8810W        W24884  16.901  12.756  16.472  0.1567 -0.0573  0.3168
 8811W        W24885   5.373  15.224   4.099 -0.0853  0.2549 -0.0741
 8812W        W24886   9.318   2.746  12.309  0.2218  0.3392  0.1702
 8813W        W24887   7.299   9.905  14.766 -0.0366 -0.3036  0.5341
 8814W        W24888   4.670   1.653   4.652  0.0245 -0.2597 -0.1000
 8815W        W24889   0.247  15.487   3.754  0.1367  0.0541  0.0671
 8816W        W24890   2.851   0.326   2.610 -0.1772  0.4425 -0.2244
 8817W        W24891  14.664   6.056  12.298 -0.0799 -0.0397 -0.1345
 8818W        W24892  17.403   9.203  14.792 -0.1963 -0.1110 -0.0268
 8819W        W24893  14.678   7.757  15.048  0.0618 -0.1862  0.0513
 8820W        W24894   3.197  16.174   1.278  0.0504  0.0001 -0.0821
 8821W        W24895   6.990  18.017   0.102  0.2444  0.2313 -0.0837
 8822W        W24896   5.946   1.674  11.309 -0.0020 -0.1290 -0.1682
 8823W        W24897  18.146   3.866   1.671 -0.2132  0.0588 -0.0920
 8824W        W24898   2.201  15.501  15.411 -0.3114  0.1554 -0.1973
 8825W        W24899  10.274   3.710   1.914 -0.0300 -0.3384  0.1075
 8826W        W24900   0.428  12.296  16.169  0.4560  0.0414 -0.1550
 8827W        W24901   9.935  14.669  15.930 -0.2435 -0.4276 -0.0486
 8828W        W24902  15.617   2.443  15.409 -0.2120 -0.1527  0.0838
 8829W        W24903  16.407  14.291   2.867 -0.1243  0.0953  0.1000
 8830W        W24904  15.667   6.044  13.730 -0.1140  0.0071 -0.3249
 8831W        W24905   2.308  11.839  12.212 -0.0138  0.0210  0.1355
 8832W        W24906   1.374   3.841   0.078 -0.2508  0.0579 -0.0499
 8833W        W24907  15.631   0.418  15.077 -0.1570 -0.1534  0.2313
 8834W        W24908   3.227   4.111  14.659  0.1811 -0.1322 -0.1464
 8835W        W24909   4.693   1.637   5.163  0.0962  0.1510  0.0767
 8836W        W24910  11.102  17.934   5.405 -0.3428 -0.0367  0.0106
 8837W        W24911   1.244   2.480   0.889 -0.2019 -0.3553  0.1014
 8838W        W24912   2.791   3.204   3.875  0.0752  0.1535  0.1282
 8839W        W24913   3.157  15.793   0.461  0.1311 -0.1518 -0.1322
 8840W        W24914  16.373   6.246   4.895  0.0674  0.0833  0.2260
 8841W        W24915  17.044  17.870   0.746 -0.1964 -0.4017 -0.0703
 8842W        W24916  10.830  10.884  15.630  0.0345  0.2533  0.1026
 8843W        W24917   9.501  17.497  13.759  0.0499 -0.2086  0.0414
 8844W        W24918   0.847  14.482   4.824  0.1199  0.2006 -0.0839
 8845W        W24919   9.572   0.937   3.386 -0.2367 -0.1319 -0.0171
 8846W        W24920  14.328   1.894  13.582 -0.0443 -0.2058  0.3409
 8847W        W24921   8.054  15.083   1.379 -0.2349 -0.0985  0.1738
 8848W        W24922   5.082  13.474   2.839 -0.1634 -0.0014  0.0393
 8849W        W24923   0.725   8.257   1.956 -0.1079 -0.1704 -0.0793
 8850W        W24924  11.751  11.864  14.984  0.3528 -0.1314 -0.1467
 8851W        W24925   4.200   1.422   4.693 -0.0771  0.0949  0.1457
 8852W        W24926  11.993   3.798   3.072 -0.0878  0.0660  0.1489
 8853W        W24927   3.488   8.995  12.794  0.3279 -0.0376  0.4324
 8854W        W24928  14.238   7.569   3.117  0.2863 -0.0254  0.1166
 8855W        W24929  12.386  14.648   3.949 -0.3250 -0.0700 -0.1587
 8856W        W24930  12.909  15.195   5.047 -0.3737 -0.3046  0.2563
 8857W        W24931  15.469  16.012   2.057 -0.0611  0.0637  0.3283
 8858W        W24932   2.432   3.847   4.235  0.0062  0.0611 -0.0099
 8859W        W24933   6.498  18.203   0.434 -0.1067  0.2571 -0.0500
 8860W        W24934  15.490  15.291  15.433 -0.2912 -0.0110 -0.0770
 8861W        W24935   4.824  10.990   4.238 -0.0121  0.3446  0.2231
 8862W        W24936   0.258   5.576   4.576  0.0890  0.0245 -0.0838
 8863W        W24937  13.799  15.178   4.901 -0.1816 -0.0868  0.1456
 8864W        W24938  10.853  15.131   4.231 -0.1446  0.0685 -0.0259
 8865W        W24939   8.120   5.720  15.765  0.0087 -0.2227  0.3113
 8866W        W24940  10.278  15.255  15.578  0.3551 -0.0403 -0.2459
 8867W        W24941   7.057  17.461  11.526  0.1633 -0.2226  0.0791
 8868W        W24942   2.998  16.029   4.258  0.5441 -0.0174  0.0203
 8869W        W24943   5.058   5.508  15.219  0.1190 -0.1706  0.0676
 8870W        W24944  18.124  14.625  12.604  0.1279 -0.0063 -0.2690
 8871W        W24945   0.768  12.868   4.810 -0.2741 -0.0186  0.1158
 8872W        W24946   3.291   8.958   5.246 -0.3488  0.2519  0.2499
 8873W        W24947  18.078   2.919   0.237  0.2332  0.0203  0.1020
 8874W        W24948   8.195  13.415   0.733  0.2755 -0.0883 -0.0299
 8875W        W24949  14.850   0.660   2.590  0.3337 -0.3516  0.0000
 8876W        W24950   4.856  11.857  11.624 -0.0271  0.0101 -0.3389
 8877W        W24951   3.312  10.756   4.333 -0.1249  0.1031  0.0952
 8878W        W24952  10.083  15.275  13.812  0.0246 -0.2321 -0.0921
 8879W        W24953   1.600  15.518  14.733 -0.1163 -0.3532 -0.0354
 8880W        W24954   0.326   6.375  10.988  0.1062  0.2604 -0.1466
 8881W        W24955  14.518   9.639   5.524  0.2090  0.0841 -0.2928
 8882W        W24956   8.449  13.127   5.120 -0.2087  0.2758  0.2680
 8883W        W24957  11.718   5.187   2.197  0.0832 -0.3586 -0.0198
 8884W        W24958   7.423   6.812  16.318  0.4184 -0.3093  0.0401
 8885W        W24959  12.437  12.020  12.947  0.0650 -0.0864  0.3153
 8886W        W24960  14.196   4.100   0.853  0.1391  0.3452  0.1890
 8887W        W24961  11.344  10.681  15.281  0.1051 -0.1638  0.0099
 8888W        W24962  14.849   0.258   4.078  0.0533 -0.0679 -0.0430
 8889W        W24963  15.145   8.671  14.908 -0.3740  0.3323 -0.1082
 8890W        W24964   1.763  10.490  13.854 -0.0285 -0.0761  0.0056
 8891W        W24965   6.793  14.888  12.851 -0.2494 -0.1569  0.1125
 8892W        W24966   3.078  13.643   0.425  0.2226  0.1696  0.3293
 8893W        W24967  17.770  10.174   0.009  0.1090  0.0016 -0.2499
 8894W        W24968  12.043  11.046   1.499  0.0437  0.3407  0.0043
 8895W        W24969   6.109   4.179  11.678  0.1663  0.1903  0.0176
 8896W        W24970   9.065  17.174  11.741 -0.2256  0.0147 -0.1418
 8897W        W24971  12.608  11.817   2.438 -0.3259 -0.1762  0.0419
 8898W        W24972  12.936   8.193  12.502  0.2063 -0.3365 -0.4511
 8899W        W24973  12.183  14.835  15.152  0.1600 -0.0655  0.0231
 8900W        W24974   5.795  12.282  11.872 -0.0037  0.2598 -0.1010
 8901W        W24975  12.651  15.364   2.886  0.0388  0.1389  0.1522
 8902W        W24976   9.600   7.756   2.755 -0.1234 -0.2990 -0.2021
 8903W        W24977   2.335   5.841   4.280 -0.0921  0.0051 -0.2116
 8904W        W24978  15.239   5.193   4.807  0.1411  0.1364 -0.2582
 8905W        W24979  14.396   0.101  10.824 -0.1399  0.1850 -0.0170
 8906W        W24980   8.140   6.965   5.163  0.1099 -0.2006  0.0099
 8907W        W24981  17.433   5.506  12.339  0.0566  0.0419  0.1677
 8908W        W24982   4.235   0.021  14.153 -0.0256 -0.0975 -0.2014
 8909W        W24983   0.320   6.967   0.540  0.0929  0.2441 -0.0052
 8910W        W24984   7.246   1.535   4.939 -0.1028 -0.0120  0.1128
 8911W        W24985   7.994  13.095   5.282 -0.5639  0.1080 -0.1841
 8912W        W24986   6.876  13.298   1.209  0.3371 -0.0391  0.2368
 8913W        W24987   5.637   7.903   2.798  0.1113 -0.1876 -0.1306
 8914W        W24988   5.251   3.596  11.642  0.0407  0.2984  0.0728
 8915W        W24989   3.324   9.809   6.311  0.0052  0.0316 -0.1866
 8916W        W24990   4.299   8.157  12.683 -0.1911 -0.1297  0.0766
 8917W        W24991  14.180   6.140  11.703  0.1624 -0.1054  0.2228
 8918W        W24992   5.967   6.723  15.444  0.3226  0.1718 -0.2808
 8919W        W24993  15.319   3.846  12.399 -0.4067 -0.1373  0.0661
 8920W        W24994  14.229   8.262  11.922 -0.1847 -0.0038 -0.6015
 8921W        W24995   7.151   3.994   4.680 -0.0701 -0.1195  0.0906
 8922W        W24996  16.251   6.159   1.193 -0.1986  0.0769 -0.1077
 8923W        W24997  15.810  16.573   4.127 -0.0835 -0.4318 -0.3755
 8924W        W24998  15.598  16.700   2.208 -0.3397  0.3225 -0.4319
 8925W        W24999   3.654   2.480   1.249  0.0299 -0.1772  0.1233
 8926W        W25000  10.129   4.929  11.658  0.0252 -0.1068 -0.3388
 8927W        W25001  15.370  16.615  13.420  0.0832  0.0024 -0.1873
 8928W        W25002   2.201   0.755  11.887 -0.1281  0.0598  0.2752
 8929W        W25003   0.654   5.043   9.855  0.2287  0.0691  0.4386
 8930W        W25004   4.664  13.537  13.968  0.0606  0.1423 -0.2058
 8931W        W25005  13.139   0.893  14.750 -0.2504  0.0999 -0.0615
 8932W        W25006  15.209  17.976   0.236 -0.0129 -0.1226 -0.4023
 8933W        W25007   1.092   9.448   4.998  0.0221 -0.0896 -0.1194
 8934W        W25008  11.691   5.044  14.821 -0.0129 -0.0121 -0.1893
 8935W        W25009   2.727   3.651   2.603  0.4832 -0.0669 -0.1279
 8936W        W25010   6.921  13.310   0.120 -0.0859 -0.0205  0.0520
 8937W        W25011  11.695   2.936   3.152 -0.0876 -0.3530  0.1596
 8938W        W25012   9.568  14.145  15.122 -0.0354 -0.0864 -0.0163
 8939W        W25013   3.906   8.442   1.992 -0.2551  0.0202  0.0903
 8940W        W25014   0.840  12.300  16.455  0.5868  0.0653  0.2208
 8941W        W25015   7.585   6.309  16.468  0.0342 -0.1345 -0.2043
 8942W        W25016   9.139   3.763  11.803  0.1759 -0.0158 -0.2100
 8943W        W25017   8.417  17.872  15.626  0.4663 -0.0042 -0.0583
 8944W        W25018   8.186   6.817   4.321  0.1598 -0.3065  0.1012
 8945W        W25019   6.178   0.343   5.230 -0.0236  0.1838  0.2751
 8946W        W25020   6.905   6.897  15.238  0.1393  0.0621 -0.0979
 8947W        W25021  15.619   0.906   3.461  0.1016  0.3736 -0.0953
 8948W        W25022  11.485   5.850   3.545 -0.1693 -0.0282  0.0814
 8949W        W25023   2.770  15.391  12.060  0.0175  0.0053  0.0400
 8950W        W25024   1.059  17.582  13.289  0.2320 -0.3701 -0.1157
 8951W        W25025   4.306  15.113   5.920 -0.1144  0.1216  0.1372
 8952W        W25026  11.922   8.092   5.791 -0.0412  0.2972  0.2035
 8953W        W25027   9.333  17.281  15.525  0.0132  0.0992  0.1563
 8954W        W25028   4.072   8.824   2.302  0.2788  0.1462  0.0469
 8955W        W25029  13.365   6.502   4.699  0.0174 -0.2107  0.2510
 8956W        W25030   7.575   4.160  14.375  0.4106 -0.3585  0.1002
 8957W        W25031  16.798   1.936   1.844  0.0005 -0.0242  0.0320
 8958W        W25032   2.617  11.845  12.776 -0.1046  0.1797  0.0974
 8959W        W25033  16.019   4.435   3.589 -0.3055 -0.0154 -0.0831
 8960W        W25034  12.675   7.009  15.339  0.2158 -0.0820  0.3629
 8961W        W25035  10.034  15.758  14.006  0.0738 -0.1829 -0.0215
 8962W        W25036  13.180   4.573  12.331  0.1002 -0.0202  0.2248
 8963W        W25037  10.121   0.193   5.320 -0.0303 -0.3618 -0.3151
 8964W        W25038  10.427   7.390   4.540  0.0172 -0.2178  0.2284
 8965W        W25039   1.503   0.035  12.204  0.2414  0.0967  0.1136
 8966W        W25040  12.377   7.810   0.122 -0.0279 -0.0470 -0.0014
 8967W        W25041   8.891   4.251  12.652  0.0824  0.2973  0.1348
 8968W        W25042   3.660  13.301  10.329 -0.0213  0.0927 -0.0296
 8969W        W25043  11.243   6.897  12.103  0.0098  0.3918  0.0773
 8970W        W25044   1.652  10.655  13.206  0.2230 -0.0456 -0.0163
 8971W        W25045   2.830  10.598  12.212 -0.0740 -0.0777 -0.2193
 8972W        W25046   1.493  14.142  15.686  0.0223  0.2198  0.1397
 8973W        W25047   5.929   8.956  13.232  0.0703 -0.1009 -0.0918
 8974W        W25048   9.689   9.908  16.409  0.1125  0.2953  0.0445
 8975W        W25049   9.550   2.546   0.763 -0.1342 -0.2704  0.1352
 8976W        W25050   9.513  10.762   2.592  0.0058 -0.1507  0.2691
 8977W        W25051   8.157  11.268   1.712  0.1923 -0.5041  0.0526
 8978W        W25052  13.059  16.222  13.881 -0.0407  0.2069  0.0602
 8979W        W25053   3.956   4.312  12.841  0.0306 -0.1702  0.3088
 8980W        W25054   7.688   4.369   0.188 -0.2047  0.0300  0.0237
 8981W        W25055  10.924   4.249   5.589  0.0142  0.0449 -0.0325
 8982W        W25056  14.656   1.246   0.638  0.1507 -0.0040 -0.1336
 8983W        W25057  13.579  14.421  11.774 -0.2022  0.0482 -0.0681
 8984W        W25058  16.072  15.044  12.593 -0.1285  0.1282  0.2075
 8985W        W25059  17.070   0.132   2.845  0.0686 -0.0968 -0.0721
 8986W        W25060   4.672   2.030   3.209 -0.2260 -0.0688  0.0687
 8987W        W25061   6.123  17.201  15.648  0.3327  0.3963  0.0285
 8988W        W25062   1.054  14.751   0.363  0.0188 -0.0634  0.3730
 8989W        W25063   7.693   3.258   1.512 -0.1167 -0.0183  0.0753
 8990W        W25064   3.722   6.239  12.015 -0.2142  0.4026  0.1120
 8991W        W25065   5.611   2.614   5.431  0.0867  0.1046 -0.0043
 8992W        W25066   1.034  12.651   2.072 -0.1013 -0.3062  0.0494
 8993W        W25067   1.212   5.545  14.613 -0.3571  0.2863  0.2047
 8994W        W25068   8.422  14.974   1.770 -0.2607 -0.1736 -0.0026
 8995W        W25069  14.668  15.988   3.635  0.0445 -0.0249  0.1466
 8996W        W25070   1.333  16.560   1.395  0.0006 -0.0026  0.0289
 8997W        W25071   6.466   1.513  12.707  0.2954 -0.0467  0.0756
 8998W        W25072  17.941   5.612   1.951  0.0067  0.0757 -0.0265
 8999W        W25073   3.210   8.705   3.153 -0.0861  0.0640  0.1142
 9000W        W25074  17.563  11.096  14.182  0.0159 -0.0995 -0.1370
 9001W        W25075  17.891   8.575   4.751 -0.1513  0.1136  0.1176
 9002W        W25076  13.339  10.383   0.805 -0.1322 -0.0712 -0.1549
 9003W        W25077   6.560  18.175   4.817  0.0662 -0.0143  0.3569
 9004W        W25078  17.834   8.495   5.609 -0.3474 -0.0331 -0.1896
 9005W        W25079   7.245   9.938   6.526  0.2496 -0.0016 -0.0069
 9006W        W25080   9.402  12.929  16.535 -0.1828  0.1120 -0.0853
 9007W        W25081   7.461   2.712  16.208  0.1698  0.0868 -0.1642
 9008W        W25082  16.348  16.351   1.886 -0.0026  0.1905  0.1395
 9009W        W25083  13.502   5.838  16.346 -0.1539 -0.3704  0.1968
 9010W        W25084  15.280  11.335  14.170 -0.2432  0.2190  0.0508
 9011W        W25085  12.157   2.075   4.409  0.3151  0.0449  0.0850
 9012W        W25086   8.417   3.944  16.242  0.1696  0.1939  0.2781
 9013W        W25087  12.253   4.528  16.237 -0.0919  0.0367  0.0781
 9014W        W25088   0.712   3.904  14.676 -0.1124  0.0575 -0.2094
 9015W        W25089  10.740  11.806  14.989  0.0119  0.0537 -0.1534
 9016W        W25090   6.018  17.692   2.913  0.2662  0.2750 -0.0089
 9017W        W25091   1.123   2.965  14.981  0.0286  0.0980 -0.0263
 9018W        W25092  11.651  15.228   2.872 -0.2730  0.0087  0.1108
 9019W        W25093  17.826   9.926  16.028  0.0299  0.0559  0.0640
 9020W        W25094   5.900  11.384  12.366 -0.0820 -0.0647  0.0469
 9021W        W25095  15.035   1.290  11.167  0.1566 -0.0289  0.1028
 9022W        W25096  12.663   3.697   4.778 -0.1355 -0.2659 -0.0121
 9023W        W25097   5.876   2.205   3.963 -0.0550 -0.1584 -0.0424
 9024W        W25098  18.163   2.356   5.819  0.0293 -0.0468 -0.2587
 9025W        W25099  13.340   7.009   4.814  0.0777  0.1445  0.1328
 9026W        W25100  14.032  14.262  16.040 -0.1061 -0.0237 -0.0438
 9027W        W25101   6.262   3.795   1.056 -0.1309 -0.0337  0.0720
 9028W        W25102   5.595  14.520  10.604  0.1925  0.2922 -0.1532
 9029W        W25103   4.492   9.104   3.287  0.2978 -0.0091 -0.2956
 9030W        W25104   5.163  15.244  13.803  0.2986  0.2029 -0.0221
 9031W        W25105   0.469  18.214  11.390  0.0037 -0.0547  0.2123
 9032W        W25106  12.438   4.793  13.791 -0.1040 -0.3139 -0.1220
 9033W        W25107  10.441  15.437   2.523  0.0168  0.2366 -0.0249
 9034W        W25108  13.030   6.579  14.755 -0.0397 -0.1572 -0.1409
 9035W        W25109   8.234   1.417   4.502 -0.0693  0.2140 -0.1706
 9036W        W25110  12.690  16.171   4.989 -0.1433  0.2395 -0.2034
 9037W        W25111   5.352   9.051  15.067  0.0818  0.1097  0.3485
 9038W        W25112   1.564  17.586   5.572  0.2726 -0.0406 -0.0011
 9039W        W25113   2.925   3.592  11.822  0.2633  0.0698  0.4018
 9040W        W25114  15.352  14.333  15.602  0.0560 -0.2660 -0.0360
 9041W        W25115   3.151  16.695   0.207  0.0535 -0.0896  0.0573
 9042W        W25116   8.222   1.558   3.701  0.0302  0.3474 -0.2490
 9043W        W25117   9.213  15.258  12.990 -0.0842  0.1659 -0.1041
 9044W        W25118   4.754  17.339  14.390 -0.3093  0.0602 -0.7109
 9045W        W25119   8.988   6.469   4.970 -0.0930 -0.2719 -0.0170
 9046W        W25120   0.206   7.620  14.521 -0.0284 -0.0844  0.2191
 9047W        W25121  15.370   9.940   0.051 -0.1105  0.1545  0.0122
 9048W        W25122   0.312   0.281  10.967  0.1188 -0.0287 -0.2699
 9049W        W25123  14.695   5.415   0.146 -0.2421 -0.1521  0.3556
 9050W        W25124  16.188  13.848  15.450  0.0569  0.1209 -0.2320
 9051W        W25125   9.312  14.229   5.327 -0.1861  0.0469 -0.3697
 9052W        W25126   6.109   7.990  13.716 -0.0870  0.1771  0.0776
 9053W        W25127  16.436  13.948  13.630 -0.0338 -0.3002  0.1751
 9054W        W25128   6.022   8.186  12.021  0.3034  0.0775 -0.1952
 9055W        W25129  11.733   5.839  14.717 -0.1483 -0.0234 -0.1364
 9056W        W25130   9.575  17.101  12.013  0.2637 -0.0971  0.2438
 9057W        W25131  11.591   9.660  11.719 -0.4001 -0.0350 -0.2235
 9058W        W25132  16.126   5.194  14.229 -0.2270  0.1128 -0.1818
 9059W        W25133   3.575  11.615   5.653  0.1493 -0.4074  0.0091
 9060W        W25134   2.521   3.039  14.018 -0.2871  0.1052 -0.1921
 9061W        W25135  15.594   3.429   4.921 -0.1571 -0.2225  0.3600
 9062W        W25136  17.976  17.164  13.471  0.1574  0.3388  0.1820
 9063W        W25137  11.893  11.640   5.180  0.0191  0.0580  0.2018
 9064W        W25138   1.492  17.436   1.827  0.0509  0.0176  0.2977
 9065W        W25139   5.849  10.023  13.299  0.0285  0.3021 -0.0569
 9066W        W25140   0.904   5.031  10.793 -0.1429 -0.2182 -0.2402
 9067W        W25141   4.505   9.479   3.679  0.0523  0.0474 -0.0895
 9068W        W25142   6.410   2.285  15.259  0.3502  0.1096 -0.0151
 9069W        W25143  13.567   4.040  12.975  0.3547  0.0128  0.0115
 9070W        W25144  16.271  15.414   1.164  0.0310 -0.0547 -0.4471
 9071W        W25145   0.773  15.107   2.059 -0.0863 -0.1058 -0.0867
 9072W        W25146   9.134  15.707   3.499  0.2581 -0.0974  0.0450
 9073W        W25147  12.837   8.718   1.035 -0.1311  0.0069  0.0545
 9074W        W25148  17.387   8.410  12.461 -0.1813  0.1044  0.1044
 9075W        W25149   3.788   5.795  14.609  0.3900  0.3393 -0.2620
 9076W        W25150  16.307   5.838  16.125 -0.0317 -0.1104  0.1233
 9077W        W25151  12.546   2.495   4.747 -0.1182  0.3407  0.1052
 9078W        W25152   0.817  14.326  13.487 -0.1141 -0.0131  0.1338
 9079W        W25153  16.009   8.422  12.212 -0.3814 -0.1300  0.0130
 9080W        W25154   5.746  11.746  16.076 -0.0372  0.0491  0.1319
 9081W        W25155   1.428  11.920   5.652 -0.0927  0.0215 -0.3256
 9082W        W25156  17.576   3.140   0.095  0.2554  0.1888  0.1563
 9083W        W25157  15.123  11.570   5.226  0.1179  0.3610  0.2330
 9084W        W25158   9.363   2.848   1.223 -0.2633 -0.0963 -0.1944
 9085W        W25159  12.511   0.338   2.360 -0.1627  0.2030 -0.3499
 9086W        W25160   0.966   4.937   1.798  0.1724 -0.2042  0.0933
 9087W        W25161  12.360  18.199   1.488  0.0048  0.0420  0.0757
 9088W        W25162  13.963   1.187   1.210 -0.3030 -0.0987 -0.0055
 9089W        W25163   4.397   6.965  15.159 -0.0508 -0.0066  0.3726
 9090W        W25164   9.526  10.020   1.219  0.2392  0.2423  0.0861
 9091W        W25165   1.476  11.106   1.579 -0.0547  0.0073 -0.1349
 9092W        W25166   1.877  10.218   3.538 -0.1861 -0.0311 -0.0921
 9093W        W25167  16.068  10.387  12.108 -0.0380  0.3388  0.0202
 9094W        W25168   0.460   0.038  12.176  0.0365 -0.2466 -0.2398
 9095W        W25169  13.424   6.961   0.727 -0.0140 -0.2039  0.0370
 9096W        W25170  10.864   1.545   0.417 -0.3347  0.1517  0.4460
 9097W        W25171   3.134   4.506   3.086 -0.0549  0.1607  0.0015
 9098W        W25172   0.231   3.888   1.068 -0.0224  0.0560 -0.2216
 9099W        W25173   1.700   6.211  15.388 -0.0831 -0.3292  0.0123
 9100W        W25174  11.073  17.596   5.774 -0.0272  0.2047 -0.1552
 9101W        W25175   3.304   3.600  14.460 -0.1247  0.1692  0.2396
 9102W        W25176  10.302  17.307   1.895 -0.0267 -0.1280  0.0879
 9103W        W25177   4.042   5.105  14.311 -0.0465 -0.0182 -0.1248
 9104W        W25178   2.452  10.979  13.170 -0.0568 -0.2140 -0.1572
 9105W        W25179  15.645   1.559  14.340  0.0771  0.0344  0.2112
 9106W        W25180  14.344  18.001   3.259 -0.0565 -0.0251  0.2364
 9107W        W25181   6.088   7.445  14.490  0.3359  0.4288 -0.2662
 9108W        W25182   4.803  18.129  11.926  0.0246 -0.2885  0.0284
 9109W        W25183  13.452  10.336   3.019 -0.3264 -0.0513  0.1113
 9110W        W25184   1.041  15.014   0.827 -0.3534  0.0700 -0.4623
 9111W        W25185  12.948  18.087  12.276  0.1371 -0.4151 -0.0085
 9112W        W25186   7.595   7.301  16.450  0.0826 -0.1378  0.3704
 9113W        W25187  13.149  13.459   0.856  0.1674 -0.1522  0.0550
 9114W        W25188   4.397   1.958   1.772 -0.3023  0.0541 -0.2159
 9115W        W25189  14.148  14.526   5.491 -0.1339  0.0621  0.0513
 9116W        W25190  12.278   8.158   0.958 -0.0540  0.0400  0.1411
 9117W        W25191  12.308   9.067   0.424 -0.2093  0.3306  0.0044
 9118W        W25192   4.922  16.743  15.322 -0.1464 -0.0603  0.1677
 9119W        W25193   1.517   1.359   0.454 -0.1420 -0.2776  0.0432
 9120W        W25194  14.568  12.395  12.804  0.0469 -0.2436 -0.3559
 9121W        W25195  14.471   3.061   4.417  0.1562  0.0319 -0.2806
 9122W        W25196   3.008  17.701   0.019 -0.1590 -0.2798 -0.0595
 9123W        W25197  15.210   8.042  11.790 -0.1176  0.0238 -0.4616
 9124W        W25198   0.954   5.768   1.583  0.0411  0.1467  0.2509
 9125W        W25199   6.388   0.884  16.015  0.2446  0.0084 -0.0009
 9126W        W25200   2.356   8.024  16.456 -0.3012  0.0823 -0.1497
 9127W        W25201   2.839   7.157  12.489 -0.1709  0.0500  0.0891
 9128W        W25202   4.148   4.935   4.396 -0.2275  0.4872 -0.1642
 9129W        W25203   0.187  14.916   1.018 -0.1124  0.2552  0.0210
 9130W        W25204   6.238  16.982   4.511  0.0157 -0.1514 -0.2303
 9131W        W25205   6.065   0.423  14.170  0.1130 -0.0040  0.1295
 9132W        W25206   3.940  14.107   3.476 -0.0283 -0.0334 -0.0561
 9133W        W25207  14.234  14.326   3.312  0.0218 -0.3089 -0.3417
 9134W        W25208   3.002   6.977  12.895 -0.0816 -0.0370  0.4515
 9135W        W25209   4.129  18.120  16.140 -0.0770  0.2142 -0.0306
 9136W        W25210   1.782  16.235  13.903  0.3906  0.1566 -0.1901
 9137W        W25211  18.211  16.165   9.993  0.2569 -0.2098 -0.1598
 9138W        W25212  14.011  16.415  13.967 -0.0427 -0.5051 -0.1695
 9139W        W25213   1.726  11.989  14.563 -0.0157 -0.3969 -0.0515
 9140W        W25214  12.138   4.346   0.940  0.1060 -0.0178  0.1580
 9141W        W25215  12.911  13.033   1.193 -0.1232  0.0262 -0.1134
 9142W        W25216   6.820  16.319   3.523 -0.1151 -0.2421  0.0621
 9143W        W25217   8.372   0.472   3.939 -0.1055  0.0017 -0.3586
 9144W        W25218   6.642  16.903   5.140 -0.1023 -0.0271 -0.2777
 9145W        W25219  17.063   2.958   3.160  0.0791 -0.0917 -0.2347
 9146W        W25220  11.544  17.867  13.110  0.1865 -0.1826 -0.1019
 9147W        W25221   2.110  17.424  13.161 -0.0725  0.0527  0.2467
 9148W        W25222   8.307  11.773  13.374 -0.0005 -0.2669 -0.1694
 9149W        W25223  12.424   7.605  13.625 -0.1215 -0.1082  0.1399
 9150W        W25224  10.386  12.123   1.678  0.1027 -0.1322 -0.0457
 9151W        W25225  16.107   5.606  12.297 -0.0673 -0.0896  0.4738
 9152W        W25226  12.643   5.492   2.492  0.1936 -0.1559 -0.2177
 9153W        W25227   8.976   5.732   0.518 -0.1157 -0.0234 -0.0306
 9154W        W25228  17.878  16.622   2.258 -0.1055 -0.2515  0.1159
 9155W        W25229   2.800  17.442   3.166 -0.1506  0.2321 -0.0857
 9156W        W25230   1.939   7.782  15.062  0.1222 -0.1708 -0.1299
 9157W        W25231  17.934   4.298   2.641 -0.2546  0.1330  0.0288
 9158W        W25232   2.870  15.608  13.256  0.1848  0.1525 -0.0030
 9159W        W25233   4.354   6.179  12.619  0.1067 -0.2111  0.1351
 9160W        W25234   1.987  15.224  11.464  0.1011  0.3831 -0.3793
 9161W        W25235  12.197  12.706  11.784  0.0758  0.0241 -0.1324
 9162W        W25236   8.187   3.593   5.051  0.1065 -0.1401  0.1739
 9163W        W25237  16.757   6.779  14.966 -0.0373 -0.0349 -0.0897
 9164W        W25238   4.411  12.275   4.015  0.0706  0.1125  0.1813
 9165W        W25239  14.243   6.280  14.090 -0.0257 -0.0854  0.8587
 9166W        W25240   5.446  15.865   0.690 -0.2624  0.1908  0.1283
 9167W        W25241   4.986   7.640  15.167  0.0271 -0.0538 -0.2329
 9168W        W25242   7.590  17.493   4.853  0.1735 -0.1143  0.0681
 9169W        W25243  17.043  16.193   3.490 -0.0694  0.1126  0.1059
 9170W        W25244   6.547  13.728   3.138 -0.0209  0.0711  0.1673
 9171W        W25245  14.225  10.254   1.423 -0.4386 -0.0096  0.0537
 9172W        W25246   4.586   0.835   1.851  0.1726  0.0149 -0.0432
 9173W        W25247  17.466  15.292   4.066  0.0503  0.0771  0.0172
 9174W        W25248   4.754   1.389   2.404  0.0010 -0.2205 -0.1128
 9175W        W25249  10.721  16.471   4.898 -0.0607 -0.2101  0.0297
 9176W        W25250   7.107   1.344  16.452  0.2458  0.1047  0.2971
 9177W        W25251   3.928   3.276  13.763  0.0823 -0.1786  0.0138
 9178W        W25252   0.944  15.346  11.948  0.0727 -0.2838 -0.3311
 9179W        W25253   8.085  15.325  15.655 -0.0092  0.0128  0.0645
 9180W        W25254   7.312   2.234  12.560  0.0048 -0.0517  0.3226
 9181W        W25255  16.382   3.260  16.120  0.1131 -0.3949  0.1090
 9182W        W25256  14.254   7.309  12.470 -0.1452  0.0760  0.1822
 9183W        W25257  11.995  15.129   0.526 -0.1101 -0.0328 -0.3186
 9184W        W25258   1.380  12.266  14.118  0.0556  0.3670 -0.1149
 9185W        W25259   1.046   7.164   5.053 -0.1991 -0.1715  0.0670
 9186W        W25260   9.875  13.511   3.914  0.1257  0.2089  0.2835
 9187W        W25261  14.452   2.434  16.146 -0.2117 -0.0488 -0.0040
 9188W        W25262   7.712  10.076   3.561  0.0673 -0.0643 -0.2040
 9189W        W25263  10.890   6.559   3.552 -0.0831  0.0619  0.0944
 9190W        W25264  13.682   4.831  15.244 -0.0198 -0.4297  0.0376
 9191W        W25265  17.265  16.908  15.903  0.1611  0.0950 -0.1753
 9192W        W25266   0.568  14.724  10.627 -0.2146 -0.0078  0.2096
 9193W        W25267  12.045  15.521  14.642 -0.1150 -0.2616 -0.0121
 9194W        W25268  17.159  16.355   4.801  0.0856 -0.0946 -0.0401
 9195W        W25269   4.101  12.550  11.596  0.1813 -0.1309 -0.0152
 9196W        W25270   9.242   8.706  16.326 -0.0950  0.0918 -0.3281
 9197W        W25271  10.917   4.052   4.006 -0.0750  0.0731  0.3512
 9198W        W25272  12.364   3.556   3.329 -0.2517  0.2414  0.2897
 9199W        W25273   1.087   4.494   2.187 -0.2445 -0.0637  0.1100
 9200W        W25274  16.900  15.452  14.661  0.1338  0.2032  0.1925
 9201W        W25275  17.754   7.915  14.175  0.0384  0.0589 -0.2267
 9202W        W25276  18.135   8.686  14.956  0.0694  0.1298 -0.1069
 9203W        W25277   8.630   9.538   1.479  0.2821  0.0476 -0.1703
 9204W        W25278   0.533   0.454  14.457 -0.0668 -0.1088 -0.1264
 9205W        W25279   8.473   2.294   2.721 -0.0754 -0.2784  0.0410
 9206W        W25280   6.149  14.647  11.635 -0.3722 -0.3558  0.2040
 9207W        W25281   8.949  16.214   5.734  0.0025  0.2317  0.1322
 9208W        W25282   8.357  10.779  15.727  0.0683  0.0547 -0.1999
 9209W        W25283   7.451  12.815  15.095 -0.1930  0.0034 -0.0013
 9210W        W25284   8.882  12.553   1.828  0.1551  0.1637 -0.1027
 9211W        W25285   1.758  18.015  11.840 -0.0393  0.2035  0.3374
 9212W        W25286   9.305   2.343   6.369  0.0818  0.1739  0.3626
 9213W        W25287  14.187  15.442  16.163 -0.3700 -0.2127  0.0509
 9214W        W25288   0.251  11.500   6.066 -0.4284  0.1087 -0.1205
 9215W        W25289   9.402   2.969  16.376 -0.0026  0.1917  0.0117
 9216W        W25290  15.170  10.245   2.834 -0.1023  0.0717 -0.2003
 9217W        W25291  10.826   4.145  16.074 -0.0034  0.1015 -0.1539
 9218W        W25292   0.380  16.571   0.599 -0.0116  0.0221  0.0714
 9219W        W25293  15.827  14.366  15.535 -0.1268 -0.1650 -0.0899
 9220W        W25294  12.039  16.786   5.935  0.0346 -0.0871  0.0612
 9221W        W25295  10.327   5.528  13.041 -0.3941 -0.2006 -0.0427
 9222W        W25296  14.818   0.898   5.049  0.0198 -0.1398  0.1351
 9223W        W25297   2.490  11.748   0.819  0.0996  0.0249 -0.1304
 9224W        W25298   1.774  14.218   2.513  0.1021  0.1152  0.0456
 9225W        W25299  18.215  11.595  14.036  0.3592  0.0541  0.1057
 9226W        W25300  16.615  14.767  16.034  0.3469  0.3567 -0.0615
 9227W        W25301   4.221  13.649  12.593 -0.0735 -0.0923  0.2217
 9228W        W25302  16.710   0.052   2.183 -0.1748  0.0043 -0.1954
 9229W        W25303   2.919   9.014   4.922 -0.0885 -0.0612 -0.0765
 9230W        W25304   8.937   3.104  12.519 -0.2743 -0.0630 -0.3381
 9231W        W25305   4.721   2.342   4.254 -0.0195 -0.1557 -0.0896
 9232W        W25306  12.240  10.014   5.938 -0.4248  0.1805  0.1073
 9233W        W25307  15.180  10.386  16.457 -0.3219  0.0631  0.3083
 9234W        W25308  18.151  11.710   5.195 -0.1241  0.3887 -0.0067
 9235W        W25309   7.283  12.791   2.637  0.0514 -0.1251 -0.1836
 9236W        W25310  16.109   1.341  14.949 -0.1261  0.2672 -0.0192
 9237W        W25311  14.889   5.477   3.917  0.0808  0.3668  0.4872
 9238W        W25312   2.224   2.597  14.911  0.3220 -0.1656  0.1812
 9239W        W25313  17.879   4.175   2.141 -0.1498  0.0238  0.1390
 9240W        W25314   7.054  16.565   3.845  0.2004 -0.0541 -0.2226
 9241W        W25315   1.748  12.053  10.980 -0.0359  0.1209 -0.0370
 9242W        W25316   8.363   5.181   0.531 -0.1452 -0.2522  0.0676
 9243W        W25317   8.446   6.324   6.179 -0.2345 -0.1292 -0.1002
 9244W        W25318   5.525   5.503  15.345  0.2212 -0.0090 -0.2227
 9245W        W25319   2.106  10.679  12.915 -0.4322  0.2976  0.0656
 9246W        W25320   5.932  12.703   0.173  0.0737  0.0066 -0.2776
 9247W        W25321   3.451   8.983   1.660 -0.1081 -0.2122 -0.2275
 9248W        W25322  10.908  16.759  11.255  0.0649 -0.1165 -0.2901
 9249W        W25323  10.040   1.027   0.665 -0.0742 -0.0974  0.0340
 9250W        W25324  11.062  12.621   4.493 -0.2997  0.3293 -0.1358
 9251W        W25325  11.304   5.008   3.142 -0.2424 -0.0445  0.0711
 9252W        W25326   5.201  12.390  13.146 -0.2688  0.0035 -0.0580
 9253W        W25327  11.606   4.839  10.680 -0.1608  0.0918 -0.2807
 9254W        W25328  16.700  11.143   2.071 -0.0411  0.3616  0.3427
 9255W        W25329  16.382   3.146   1.200  0.1303 -0.1482  0.0737
 9256W        W25330   0.632   2.481  13.659 -0.2564  0.2954  0.0593
 9257W        W25331   0.054  13.559   0.120  0.0900 -0.1833  0.1017
 9258W        W25332   1.038  13.799   2.739  0.0149  0.1289  0.1024
 9259W        W25333   4.439  17.275  13.272 -0.1808 -0.1663  0.0083
 9260W        W25334  10.489   4.102  14.069  0.1251  0.2664  0.0691
 9261W        W25335  14.323   4.028  16.127 -0.2006 -0.1792  0.3269
 9262W        W25336  11.516  11.702   4.797 -0.5245  0.0268 -0.1892
 9263W        W25337   7.615   5.643   2.025  0.0973 -0.1556 -0.1768
 9264W        W25338   3.789   7.026   3.099 -0.0285  0.3272 -0.2021
 9265W        W25339   0.542  16.460  15.560 -0.0653 -0.0958  0.0963
 9266W        W25340   6.391   6.625   3.275 -0.0908  0.1743 -0.0175
 9267W        W25341   9.817  14.301   1.862  0.2121 -0.0210  0.2767
 9268W        W25342   7.437   3.406  13.358  0.0845  0.1931 -0.0817
 9269W        W25343  11.340  11.766  16.429 -0.2038 -0.1029  0.0608
 9270W        W25344   2.432   5.753   2.886  0.0653 -0.1962  0.3962
 9271W        W25345  15.878  12.153   1.962  0.2382 -0.1234  0.1968
 9272W        W25346  13.949   2.239  13.495  0.0991 -0.1436  0.0642
 9273W        W25347  15.936  11.326  15.305  0.1041  0.0682 -0.1065
 9274W        W25348  18.196   1.851   1.640  0.1564 -0.3442  0.3373
 9275W        W25349   7.991   7.845  12.541 -0.0031 -0.1261  0.0515
 9276W        W25350   9.423   2.465  14.430  0.2646  0.2472  0.2849
 9277W        W25351   3.147   8.878   3.711  0.0687 -0.1728  0.1574
 9278W        W25352  14.866   8.077  12.735  0.0341 -0.1010  0.0768
 9279W        W25353   8.757  13.202   4.349 -0.0831  0.0150  0.1943
 9280W        W25354  10.632   0.141   2.735  0.3349  0.0383 -0.0443
 9281W        W25355   3.569  14.864   4.141  0.1847 -0.2003  0.2967
 9282W        W25356  12.923  14.301   0.687 -0.1320 -0.2576  0.1550
 9283W        W25357  14.111  14.031   5.330  0.2845 -0.1255  0.2249
 9284W        W25358   8.261   9.400   4.389 -0.0250 -0.1995 -0.4072
 9285W        W25359  15.706  14.949   3.682  0.0206 -0.4009  0.0046
 9286W        W25360   0.037  12.002  12.221 -0.3078  0.0017  0.0946
 9287W        W25361   3.781   0.844  16.156 -0.3092  0.1432 -0.1817
 9288W        W25362  16.853  13.695   3.469 -0.1206  0.1157  0.2511
 9289W        W25363  14.784   7.320  12.324  0.1533 -0.1173  0.4248
 9290W        W25364   4.080   5.671  12.634  0.2851 -0.3941  0.1114
 9291W        W25365   7.794  16.744   0.471  0.0152 -0.0512 -0.1678
 9292W        W25366  13.133  18.189   4.037 -0.1211 -0.1130 -0.0976
 9293W        W25367  15.563  17.776  13.691  0.1206 -0.0370 -0.0274
 9294W        W25368   0.236  16.669   1.065 -0.1602  0.1630  0.1676
 9295W        W25369   9.887  11.387   0.803  0.3162 -0.0206  0.2176
 9296W        W25370   7.274  12.937   1.338  0.0389 -0.1165 -0.2270
 9297W        W25371   2.927   3.846  14.312 -0.3935  0.2481  0.0289
 9298W        W25372  10.330   6.515   3.472  0.1209 -0.1568  0.3120
 9299W        W25373   2.295   2.477  15.811 -0.3966 -0.0796 -0.1952
 9300W        W25374  12.498   1.960  16.069 -0.2346 -0.2101 -0.3417
 9301W        W25375   1.973  12.417  13.190 -0.0211 -0.0804  0.1625
 9302W        W25376   8.659   4.700   0.402 -0.1173 -0.3434 -0.0094
 9303W        W25377   0.630  10.843  12.058  0.0498 -0.1039  0.0157
 9304W        W25378  13.031   7.759   6.054  0.5591  0.0889 -0.2018
 9305W        W25379  14.257  15.361  12.432 -0.3225 -0.2452  0.1963
 9306W        W25380  17.900   1.644  13.031  0.1635 -0.0548  0.2556
 9307W        W25381   8.153  16.774  13.508  0.0132 -0.2236  0.1965
 9308W        W25382   0.724   3.073  12.896  0.0159 -0.3436 -0.0177
 9309W        W25383  11.324  11.561   0.481  0.1426 -0.1744 -0.2157
 9310W        W25384   4.395   1.677  13.619  0.1299  0.1092  0.0175
 9311W        W25385   0.791   8.572   4.665  0.0725  0.3256  0.0520
 9312W        W25386  13.187  11.232  12.550  0.1616 -0.0566  0.1048
 9313W        W25387   1.954   2.400   5.337  0.0264 -0.1941 -0.2481
 9314W        W25388  13.552   1.154  13.581  0.0392  0.1789  0.1281
 9315W        W25389   1.670  10.852   2.074  0.1259  0.1824  0.0506
 9316W        W25390   0.924  11.841  11.931 -0.2563 -0.0089 -0.2536
 9317W        W25391  12.454   8.370   3.057  0.1583  0.1923  0.0577
 9318W        W25392   1.464  14.546   0.061 -0.1891 -0.0175 -0.0149
 9319W        W25393  14.552   3.248   2.374 -0.0388 -0.4341 -0.1943
 9320W        W25394  14.899   4.400   4.558 -0.0762  0.1024 -0.0391
 9321W        W25395   9.874  14.508  14.971  0.2085  0.1436 -0.2887
 9322W        W25396   9.140  15.848  16.229 -0.2073 -0.0676 -0.2201
 9323W        W25397   2.021   0.600  14.565 -0.0689 -0.0840  0.0188
 9324W        W25398  17.664   0.047  13.377 -0.0301 -0.2490  0.3789
 9325W        W25399  15.164   6.253   4.986  0.1823  0.1085 -0.0987
 9326W        W25400  17.532   3.705  12.121  0.1149  0.2498  0.1838
 9327W        W25401  11.194  13.971   3.169 -0.0071 -0.1466 -0.3063
 9328W        W25402  10.250   6.289  15.184 -0.1957 -0.1263  0.1146
 9329W        W25403  10.393   6.492  13.369 -0.0717 -0.1182  0.1283
 9330W        W25404   4.762   1.900   0.233 -0.0402 -0.1059  0.2201
 9331W        W25405   5.375   2.814  12.575 -0.0299  0.0749  0.0209
 9332W        W25406  16.338   9.283   5.927  0.0719  0.1433 -0.2322
 9333W        W25407   2.387  15.663  11.231  0.1157 -0.1164  0.0048
 9334W        W25408   5.138  17.749  12.653  0.4820  0.1795 -0.2706
 9335W        W25409  16.433  14.002  14.938  0.0140 -0.3365 -0.0246
 9336W        W25410  15.579  13.771  16.503 -0.1774 -0.1726  0.1321
 9337W        W25411   8.042   4.000   1.662  0.1064 -0.1386  0.1984
 9338W        W25412  17.439  15.150  15.700 -0.5245  0.0027  0.0298
 9339W        W25413   8.621   3.692   2.953  0.2066 -0.2129  0.0739
 9340W        W25414   0.217  10.687   2.579 -0.0031 -0.0857 -0.2243
 9341W        W25415  11.234  12.912   3.487 -0.0627 -0.1536 -0.2110
 9342W        W25416  14.097   7.484   6.117  0.1203  0.0578  0.2784
 9343W        W25417   9.073   0.473  12.459 -0.2719  0.0837 -0.0429
 9344W        W25418   9.246  14.707  13.005  0.0535 -0.4619  0.0031
 9345W        W25419  15.739  13.850  12.358  0.1645 -0.1179 -0.1984
 9346W        W25420  13.006   3.144  12.779  0.0363 -0.0675  0.1294
 9347W        W25421   5.644   4.097   4.519  0.0232 -0.0402 -0.3461
 9348W        W25422  13.786  15.654   0.104  0.2514 -0.1979 -0.2067
 9349W        W25423   5.091   5.989   0.399  0.0257 -0.1006  0.1046
 9350W        W25424   2.737   3.167  12.097  0.2946  0.1165 -0.3161
 9351W        W25425  12.801  17.487   0.858 -0.3726 -0.0067  0.4598
 9352W        W25426   8.218  16.274  13.625 -0.4053 -0.2518  0.2960
 9353W        W25427   4.842  16.641  12.697 -0.3851 -0.0623 -0.1542
 9354W        W25428   1.351  17.017  13.827 -0.1401 -0.0997 -0.0130
 9355W        W25429   3.982   7.053  12.544 -0.1206  0.0648 -0.0602
 9356W        W25430  14.814   4.615   0.331  0.4580  0.0593  0.0599
 9357W        W25431   1.475  18.073   5.266 -0.0538  0.3032 -0.1514
 9358W        W25432  14.564  13.900  13.242 -0.1856 -0.0138 -0.2865
 9359W        W25433  14.006   0.288  15.722 -0.2277  0.1833  0.0525
 9360W        W25434  14.366   6.865  13.917  0.1131 -0.0616  0.0882
 9361W        W25435   2.129  12.150   1.207 -0.0248  0.2786 -0.3459
 9362W        W25436   0.669   7.520   2.597 -0.0076 -0.1054  0.2854
 9363W        W25437  12.290  14.522   0.639  0.1550  0.2691 -0.2531
 9364W        W25438  15.102   5.371  13.084  0.0867 -0.3229 -0.0786
 9365W        W25439   2.123   9.085  14.619  0.2326 -0.0652 -0.4169
 9366W        W25440   1.038   7.552   5.362 -0.3916 -0.0226  0.1282
 9367W        W25441   0.139  12.756   3.331  0.2348 -0.1822 -0.1439
 9368W        W25442   8.751  10.172   2.796  0.0039  0.1712 -0.1986
 9369W        W25443   9.949  10.939   5.468  0.2211 -0.0300 -0.1892
 9370W        W25444   8.266  12.756  14.613  0.2168  0.2605  0.1496
 9371W        W25445   8.931   7.327   1.471 -0.0162  0.3664  0.0291
 9372W        W25446   5.129   8.756  12.560  0.0760  0.2558  0.1198
 9373W        W25447  12.244  13.388  13.382 -0.0892  0.0401  0.1901
 9374W        W25448   4.846  11.918   2.501  0.0119  0.0864  0.0084
 9375W        W25449  13.761   9.347   2.430 -0.3093  0.1085 -0.3208
 9376W        W25450   4.575  10.873  15.529 -0.0636 -0.2341  0.0485
 9377W        W25451   7.245   2.577   3.213  0.0698  0.1099 -0.1351
 9378W        W25452  17.243  14.086   1.935 -0.2878  0.2236 -0.0968
 9379W        W25453  14.868   3.061  13.398 -0.1301 -0.0997 -0.6014
 9380W        W25454   6.516   9.318   5.439  0.1021  0.1650  0.1125
 9381W        W25455   8.883   2.913   0.042  0.3170 -0.2649  0.2799
 9382W        W25456   0.550  14.683  15.151 -0.3019  0.2348  0.2468
 9383W        W25457   0.151   4.731   3.072 -0.1748 -0.0198  0.4327
 9384W        W25458   7.011   2.888   2.664 -0.2825  0.0027  0.0354
 9385W        W25459   3.231  11.729   4.174  0.3276  0.1489  0.5590
 9386W        W25460   2.303  17.764  13.956  0.0260  0.0167  0.0323
 9387W        W25461  13.129   1.711   5.429 -0.0444  0.0830  0.0064
 9388W        W25462  13.538   1.402  12.351 -0.1601 -0.0222  0.1809
 9389W        W25463   1.244   3.796  15.021  0.3181  0.1484 -0.1561
 9390W        W25464   2.995  11.811   0.709  0.0849 -0.0957 -0.0056
 9391W        W25465   2.645  13.707   4.589 -0.1046  0.0608 -0.0653
 9392W        W25466  18.017   5.935   4.652  0.1452  0.3243 -0.3948
 9393W        W25467  13.079   6.583   1.760  0.2260  0.0726 -0.0107
 9394W        W25468  10.813   9.534  14.233  0.1036 -0.1035 -0.2576
 9395W        W25469  10.969   2.330   6.531  0.0161  0.3771  0.1150
 9396W        W25470  12.871  18.125  13.906  0.4117  0.0720 -0.0953
 9397W        W25471   7.126   2.067   3.197  0.0609  0.1679  0.1610
 9398W        W25472  13.755   5.733  11.644  0.0303 -0.2048 -0.2146
 9399W        W25473   3.812   1.978   4.597  0.1214 -0.1275  0.1284
 9400W        W25474   2.254  15.190   4.968  0.2149  0.1791 -0.1918
 9401W        W25475  15.575   5.707   1.841  0.1776  0.2216 -0.0202
 9402W        W25476   0.834  17.492   4.080 -0.0309 -0.1359 -0.0066
 9403W        W25477   8.087   5.314  13.535  0.0586 -0.0337  0.0476
 9404W        W25478   4.382  14.515   4.770 -0.0933 -0.4383 -0.0146
 9405W        W25479   2.893   6.858  16.547 -0.1344  0.0237  0.1994
 9406W        W25480   8.955   4.173  12.027 -0.1255  0.0558  0.1608
 9407W        W25481   1.744   7.898  10.865 -0.0729  0.1239  0.2098
 9408W        W25482   5.208   3.967  12.096 -0.3852  0.3126 -0.1882
 9409W        W25483   2.597  12.642  14.975  0.2606 -0.0348 -0.2141
 9410W        W25484   9.941  16.495   2.777 -0.0408 -0.1931 -0.0655
 9411W        W25485  12.520  15.110  15.420 -0.0390 -0.0955  0.3413
 9412W        W25486   2.935   3.458  15.875  0.0608  0.1121  0.0269
 9413W        W25487  11.019   6.669   2.755 -0.1271  0.0963  0.0315
 9414W        W25488   0.200  14.245   3.565  0.1097  0.0872 -0.1082
 9415W        W25489   9.198  14.771   3.778  0.1848  0.2654 -0.1399
 9416W        W25490   0.019  11.077   1.099 -0.1035 -0.3086  0.1805
 9417W        W25491  13.504   6.155   2.799  0.1787  0.1140  0.2118
 9418W        W25492  11.726  15.640  14.040 -0.3950  0.1043  0.0568
 9419W        W25493  13.777  15.828   0.653  0.1576 -0.0327  0.1073
 9420W        W25494   3.341  15.309   3.366  0.1941 -0.0957 -0.2102
 9421W        W25495   7.654  17.807   3.035 -0.1237 -0.2576  0.1048
 9422W        W25496  17.403  15.760  11.718  0.0751  0.0456  0.0195
 9423W        W25497   2.451   4.730   4.819  0.3916  0.1447 -0.1389
 9424W        W25498   9.839   6.771   3.494 -0.2531 -0.3329  0.2260
 9425W        W25499  11.155  13.345   3.238  0.1242 -0.1243  0.2705
 9426W        W25500   1.399   7.137  13.880  0.1160 -0.0621 -0.0264
 9427W        W25501  14.097   7.000   5.209 -0.0273 -0.0476  0.0060
 9428W        W25502  13.803   9.407  15.857 -0.0639 -0.2954 -0.1770
 9429W        W25503   1.216  14.006   3.989  0.5058  0.2129  0.2542
 9430W        W25504  16.463   7.085  16.303 -0.0538 -0.0441  0.2678
 9431W        W25505  11.989   3.387   3.992 -0.0304  0.1080 -0.1089
 9432W        W25506  13.844   1.726  14.338 -0.2049 -0.2420  0.2018
 9433W        W25507  13.917   7.986   3.313  0.1442  0.1198  0.1528
 9434W        W25508  13.223  11.533   4.894 -0.0252  0.2077  0.0945
 9435W        W25509   2.911   5.979   3.549 -0.0345 -0.0194 -0.1924
 9436W        W25510  16.895  14.972  16.372  0.0101  0.1688  0.1593
 9437W        W25511  12.833   8.689  11.555 -0.1413  0.1903  0.0125
 9438W        W25512  15.135   1.699  13.631 -0.1757 -0.1706  0.0762
 9439W        W25513   8.977   8.590  13.394  0.0912 -0.4559  0.2789
 9440W        W25514  17.258   1.267   3.043 -0.1661  0.0230  0.1177
 9441W        W25515   4.156  18.000  12.692 -0.0580 -0.1605  0.0713
 9442W        W25516  13.154   8.362   2.293 -0.1147 -0.0708 -0.0695
 9443W        W25517   2.478   3.706  10.780  0.1765  0.1710  0.0089
 9444W        W25518   2.908   2.036  13.184 -0.0500 -0.1815 -0.1402
 9445W        W25519  16.463   8.484  12.677  0.1414  0.3805  0.2557
 9446W        W25520  13.823   4.244   2.829  0.1750  0.0789 -0.0392
 9447W        W25521   2.887  15.094   3.466  0.0524  0.4531  0.0481
 9448W        W25522   9.020  11.307  15.877 -0.0482  0.0706  0.0194
 9449W        W25523  13.761   6.429   0.701  0.3036 -0.1182  0.2140
 9450W        W25524   1.693   9.484   3.402  0.2902 -0.2551  0.3376
 9451W        W25525   3.306   7.165  16.244 -0.0282  0.1229 -0.0918
 9452W        W25526  11.898   1.207   2.090 -0.0605  0.1919  0.0068
 9453W        W25527  15.402  13.670  12.856 -0.1369 -0.2540 -0.1648
 9454W        W25528  13.095  12.357  12.347 -0.0778 -0.2151 -0.3946
 9455W        W25529   3.017   2.305  15.549  0.0560  0.0110 -0.0927
 9456W        W25530  16.988   0.240   3.356 -0.0517  0.1266 -0.1380
 9457W        W25531   6.762  14.078   0.675  0.0031  0.1916  0.0505
 9458W        W25532  13.410   8.064  14.592  0.0722 -0.1845  0.1549
 9459W        W25533   6.251   2.799   4.933 -0.2973  0.5524 -0.4020
 9460W        W25534  13.117  14.030  12.355 -0.4176  0.0038 -0.0895
 9461W        W25535   0.888  11.963   3.049  0.0868  0.0319  0.1978
 9462W        W25536   5.888  17.207  16.071 -0.2239 -0.0356  0.0980
 9463W        W25537   9.344   4.731  15.567 -0.0270  0.1498  0.1113
 9464W        W25538   0.187  18.046  13.570 -0.2369 -0.0396  0.1687
 9465W        W25539   1.865  14.908   4.811 -0.1915  0.0848  0.0013
 9466W        W25540  10.495  13.846   2.828 -0.2564 -0.1075 -0.0274
 9467W        W25541   5.473  15.935  14.169 -0.0238  0.0139 -0.0247
 9468W        W25542  17.442  12.699  13.870  0.0184 -0.4308 -0.1896
 9469W        W25543  14.105   4.774  12.807  0.0057 -0.1306 -0.0986
 9470W        W25544  16.495   7.111   1.067  0.4017 -0.1897 -0.1635
 9471W        W25545   5.597   0.410  12.801  0.0664  0.4208  0.3240
 9472W        W25546   6.761   4.917   3.371 -0.0186 -0.0091 -0.0057
 9473W        W25547   5.145  17.005   3.195 -0.2031  0.1773  0.1709
 9474W        W25548   5.231   5.126   0.237 -0.2529 -0.1207  0.0360
 9475W        W25549  11.502   6.297  15.601 -0.0995 -0.0823  0.0579
 9476W        W25550   7.888   7.325   5.365 -0.1927 -0.1759 -0.1448
 9477W        W25551  17.664  17.527  13.589  0.2578 -0.2054  0.4405
 9478W        W25552   7.527   1.702   3.964 -0.1546 -0.1930 -0.4692
 9479W        W25553  17.662   1.356  11.517 -0.0622 -0.1725 -0.0846
 9480W        W25554   1.884   2.912   4.811 -0.1353 -0.2937 -0.0849
 9481W        W25555  12.697   8.728   0.261  0.0262  0.0613 -0.1141
 9482W        W25556  12.466   3.069   3.325  0.0456 -0.0425  0.1734
 9483W        W25557   4.297   0.117   2.187  0.1006 -0.2543 -0.2372
 9484W        W25558   1.003  13.328  15.035  0.2241  0.2828  0.1871
 9485W        W25559  18.114  16.213   2.699  0.2756  0.4801 -0.1613
 9486W        W25560   0.611  13.398   3.101 -0.3726  0.0080 -0.0086
 9487W        W25561   4.005   8.900  13.547 -0.0576  0.0349  0.0096
 9488W        W25562   1.196  14.240  14.782  0.0335 -0.0335  0.2934
 9489W        W25563  15.177  10.733  15.713 -0.0184 -0.1879  0.1046
 9490W        W25564  12.907  14.891  15.935  0.0474  0.1717  0.2154
 9491W        W25565   6.781  15.454   0.295  0.1403 -0.3305 -0.1119
 9492W        W25566   4.886   8.829  11.639  0.0821  0.1802 -0.2384
 9493W        W25567   1.112  12.591   0.146  0.0075 -0.1436  0.0182
 9494W        W25568  14.357   3.852   0.051  0.1709 -0.3570 -0.0001
 9495W        W25569  16.039  16.918  12.207  0.1714 -0.0774  0.0877
 9496W        W25570  13.354  17.612   0.297  0.1586  0.1911  0.2151
 9497W        W25571   6.680   7.903  12.081 -0.3370 -0.1840  0.1583
 9498W        W25572   8.952   6.916  12.534 -0.1474  0.1683  0.3207
 9499W        W25573  12.154  16.441   0.271  0.5053  0.0048 -0.2204
 9500W        W25574   6.582  16.854   1.848  0.0989  0.0501 -0.0136
 9501W        W25575   4.778   8.894  14.679 -0.1796  0.1985  0.2748
 9502W        W25576   8.664  12.352   2.863  0.0630 -0.0777 -0.2618
 9503W        W25577   8.871   3.539  13.317  0.3364 -0.2526 -0.0410
 9504W        W25578  17.270  14.761  11.431  0.3640  0.1756  0.1468
 9505W        W25579   0.355   7.699  15.638  0.2497  0.1812 -0.3165
 9506W        W25580  15.580   2.091   3.945  0.4011 -0.0747 -0.0916
 9507W        W25581   5.096   7.863   3.680  0.1247  0.0290  0.1381
 9508W        W25582  15.264   7.116  13.742 -0.0224  0.0038 -0.5135
 9509W        W25583   2.491   8.934   4.711 -0.1558  0.1217  0.0625
 9510W        W25584  10.862   8.255  12.420  0.2163 -0.1475 -0.3500
 9511W        W25585  10.801  15.383   3.402  0.1696 -0.1379 -0.1118
 9512W        W25586  18.023   8.619  14.461  0.1191 -0.1368 -0.2211
 9513W        W25587  11.590  13.758  12.234  0.1407 -0.0477 -0.3353
 9514W        W25588   8.189   0.358   2.831 -0.2319  0.2981  0.3788
 9515W        W25589   0.090   9.270   2.494  0.0836 -0.1546 -0.3386
 9516W        W25590   1.564   7.779  12.470 -0.4583 -0.0124  0.0787
 9517W        W25591  17.626   1.368   1.912 -0.0574  0.1384 -0.3324
 9518W        W25592   9.179  10.106  15.594  0.2978  0.0002  0.1847
 9519W        W25593   9.186   3.371   0.138  0.2315  0.1655 -0.3616
 9520W        W25594   8.172   4.093  12.019 -0.1488 -0.1686 -0.2414
 9521W        W25595   1.257  11.002   2.280 -0.1126 -0.2950 -0.2140
 9522W        W25596   8.529   0.605  14.109  0.2068 -0.1571 -0.2725
 9523W        W25597   4.159   5.209  13.191  0.3241 -0.2474 -0.0979
 9524W        W25598  11.073  11.587  12.935  0.0608  0.0198 -0.0490
 9525W        W25599  11.488  16.966  13.840 -0.0525  0.0092 -0.0607
 9526W        W25600  12.837   4.898   4.145  0.0119 -0.4377 -0.0085
 9527W        W25601  10.938  15.493  16.375  0.1931 -0.0837  0.1723
 9528W        W25602  12.528  15.375   5.790  0.2322  0.1855  0.3454
 9529W        W25603  10.574  13.302  15.996  0.1939 -0.3884 -0.0242
 9530W        W25604   6.155   2.709   2.101 -0.2105 -0.3993 -0.5354
 9531W        W25605   6.492   0.688  15.516  0.2466 -0.1125  0.0257
 9532W        W25606   0.771   6.481  14.255  0.2402 -0.0743  0.3548
 9533W        W25607   0.361  12.803   5.251  0.1068 -0.0018  0.0459
 9534W        W25608  11.113  12.442  16.459 -0.3191 -0.4253 -0.0274
 9535W        W25609  14.154   6.732  11.002 -0.1393 -0.0833 -0.1193
 9536W        W25610  15.414   1.888  15.695  0.0604 -0.0289 -0.1619
 9537W        W25611   9.050   0.224  15.729 -0.1733  0.0583  0.0128
 9538W        W25612  14.278   2.531   5.228 -0.0076 -0.1636 -0.1002
 9539W        W25613  14.805   9.831  12.395  0.0175  0.2406 -0.1751
 9540W        W25614  11.543  10.805  12.626  0.0474  0.1578 -0.0683
 9541W        W25615   8.442   3.767   0.889 -0.3935  0.1251 -0.1153
 9542W        W25616  15.071   3.409  13.763 -0.0261  0.0437  0.0611
 9543W        W25617  12.476   9.371  11.605  0.0159  0.2606 -0.2206
 9544W        W25618   1.742   9.388  15.974  0.1356 -0.1687  0.0536
 9545W        W25619  12.856  13.764  11.734  0.3653 -0.0764 -0.1559
 9546W        W25620  17.585   0.060   2.896  0.0563 -0.0730  0.1159
 9547W        W25621  12.823   9.776   3.616  0.1347 -0.0703  0.0718
 9548W        W25622   5.428  10.535  12.070  0.1753 -0.1235  0.1348
 9549W        W25623   2.376  15.814  13.258  0.0272  0.1125 -0.1772
 9550W        W25624  13.591   6.619  15.031 -0.2057 -0.1770  0.3088
 9551W        W25625   8.480   8.475  13.055 -0.1498 -0.2027  0.0405
 9552W        W25626  16.333  11.503  14.996 -0.2078  0.0633  0.2100
 9553W        W25627   1.818   9.751   2.177 -0.0889 -0.0238 -0.0708
 9554W        W25628   2.777  14.005  14.697 -0.0669 -0.1371 -0.3006
 9555W        W25629  16.588   8.916   3.384 -0.1611  0.3639 -0.0632
 9556W        W25630   5.192  17.334   5.387 -0.1986 -0.0152 -0.0259
 9557W        W25631  13.809   4.833   2.893 -0.3263  0.2247 -0.0144
 9558W        W25632  10.642   4.612   5.714  0.0456 -0.0701 -0.0022
 9559W        W25633  11.433   7.459   4.245  0.0820  0.0918  0.0638
 9560W        W25634  10.924   6.531   0.023 -0.1441  0.2855 -0.0312
 9561W        W25635  15.166   9.440   1.806  0.2756  0.1213 -0.0697
 9562W        W25636   1.042  15.767  14.696  0.0841 -0.0070 -0.2234
 9563W        W25637  13.519  16.804   4.028 -0.2172 -0.1019 -0.0576
 9564W        W25638   4.998  10.000   2.510  0.0931 -0.2347  0.1610
 9565W        W25639   1.044   9.636  11.735  0.0496  0.1608 -0.0383
 9566W        W25640   5.875   8.328  16.086 -0.2211  0.0420 -0.0426
 9567W        W25641   8.090  17.541   4.746  0.0496 -0.0459 -0.0063
 9568W        W25642   4.394   7.767   3.110  0.3550 -0.4111  0.1392
 9569W        W25643  10.035  16.752  16.259  0.0766 -0.0850 -0.2111
 9570W        W25644   0.759   4.592  10.964 -0.5468 -0.1133  0.0573
 9571W        W25645   0.194   0.829   5.827 -0.2998 -0.0812 -0.3203
 9572W        W25646   5.870  14.747  14.159  0.0250  0.0793  0.3792
 9573W        W25647  11.116   7.799  14.618  0.1491  0.0880 -0.0494
 9574W        W25648   6.592   3.600  16.161 -0.2073 -0.0983  0.0178
 9575W        W25649  14.390  11.942  16.447 -0.2367  0.2055 -0.0359
 9576W        W25650  12.505  10.951  14.326 -0.0943 -0.0993 -0.0664
 9577W        W25651   1.847   6.675   4.675 -0.0313  0.0993 -0.0513
 9578W        W25652  13.142  12.890   4.818 -0.2880  0.0687 -0.0034
 9579W        W25653   7.492   6.800   5.553 -0.0103  0.0752  0.0299
 9580W        W25654  10.214   0.495   0.816 -0.1887 -0.1042  0.2319
 9581W        W25655   6.635  15.113   4.579  0.1278  0.1855  0.2644
 9582W        W25656   4.353   3.618  15.940  0.0888  0.0065  0.3885
 9583W        W25657  10.608   4.255  15.025 -0.1776  0.2737 -0.1189
 9584W        W25658  17.689   9.684  14.592  0.1587  0.0738  0.0769
 9585W        W25659  10.261  13.391   2.991  0.0856 -0.2544 -0.0092
 9586W        W25660   0.295  10.980   5.206  0.1961 -0.2908  0.3358
 9587W        W25661   7.815   3.228   5.006 -0.1579 -0.0670  0.2405
 9588W        W25662   8.766   3.431   2.421 -0.0580  0.2163 -0.0560
 9589W        W25663   9.258   4.495  13.625 -0.0520  0.1055  0.0645
 9590W        W25664   6.481   3.765   3.390  0.1670  0.5900 -0.3055
 9591W        W25665  14.697  10.395  15.876  0.1271  0.1475 -0.0709
 9592W        W25666   7.261  11.164  12.042  0.4604 -0.5190 -0.1154
 9593W        W25667  17.300  15.309  14.990 -0.2368  0.2205  0.1457
 9594W        W25668  12.077  13.012   5.517  0.1396  0.0533 -0.2252
 9595W        W25669   8.090   3.835  14.167  0.1747 -0.3409  0.1938
 9596W        W25670  10.163  11.292   4.744  0.0078 -0.1152 -0.2735
 9597W        W25671   1.244  14.334  13.178 -0.2177 -0.4992  0.2867
 9598W        W25672  17.560   5.121   4.552  0.2243 -0.0513 -0.2746
 9599W        W25673   5.015   6.269  15.449  0.0513  0.0870 -0.0226
 9600W        W25674  12.824   4.648  13.423 -0.0363  0.0436 -0.1380
 9601W        W25675  12.635  13.980  15.233 -0.0637 -0.0364 -0.0695
 9602W        W25676  11.154   5.265  13.383  0.1296  0.4008 -0.1367
 9603W        W25677  10.131   8.740  15.033  0.1574  0.3752 -0.0243
 9604W        W25678  12.729   5.757   6.284  0.1219  0.1644  0.1792
 9605W        W25679   7.210  17.975  14.537 -0.3489 -0.3467  0.0656
 9606W        W25680   4.487  12.647  15.008 -0.2289 -0.1284 -0.0758
 9607W        W25681  15.658   4.794  11.497 -0.2906  0.0778  0.1911
 9608W        W25682   3.849   2.469   2.848  0.2053  0.1650 -0.2692
 9609W        W25683   9.055   4.340   2.895 -0.1898 -0.1141 -0.1251
 9610W        W25684   7.907  10.297  12.627  0.1913  0.0739  0.3497
 9611W        W25685  17.473   9.738   3.874 -0.2486  0.1499  0.1746
 9612W        W25686  12.870   6.396   3.843  0.0013  0.1255  0.1472
 9613W        W25687  16.401  11.663   4.961  0.0254 -0.0103  0.1387
 9614W        W25688   8.524  18.173   1.136  0.1447  0.4110  0.2783
 9615W        W25689  13.106   3.838  11.404  0.4003 -0.2054  0.0012
 9616W        W25690  11.505   9.843  12.243  0.1712 -0.1590  0.2503
 9617W        W25691  15.132  18.153   2.777 -0.0252 -0.0432 -0.0836
 9618W        W25692  14.097   2.142  15.838 -0.0497 -0.0782 -0.0885
 9619W        W25693  16.832   8.425  13.022 -0.0798  0.0423 -0.0244
 9620W        W25694  12.068  15.830  15.110  0.0399  0.0935 -0.0194
 9621W        W25695   8.316   8.792   1.886  0.1187 -0.1451 -0.1866
 9622W        W25696   5.760   4.783   3.611  0.1937 -0.2335 -0.0407
 9623W        W25697   4.208  18.039  15.191  0.2579  0.0130 -0.1005
 9624W        W25698   0.309  10.732  11.592  0.2659 -0.2298  0.0000
 9625W        W25699   9.490   1.732  13.649 -0.0792  0.3372  0.2018
 9626W        W25700  14.897  12.504   2.794  0.0297 -0.2490 -0.2406
 9627W        W25701   1.770   8.647  11.281  0.1531  0.1068  0.1008
 9628W        W25702   7.062  11.177   4.409  0.2860  0.0679 -0.2286
 9629W        W25703  15.075  11.914  15.588 -0.0393 -0.0368 -0.2789
 9630W        W25704  10.933  17.237  14.509 -0.3357  0.1587 -0.3022
 9631W        W25705  16.514  13.140   4.795  0.0591 -0.0770  0.1363
 9632W        W25706  17.205   8.435   2.496 -0.1300 -0.1866 -0.0143
 9633W        W25707  11.019   3.194  12.955 -0.4946 -0.5116 -0.2816
 9634W        W25708   7.700  12.785  12.144 -0.0415  0.0487 -0.4467
 9635W        W25709   5.550  13.480   5.154  0.0894  0.0091  0.1182
 9636W        W25710   7.647  17.947  13.310 -0.1239 -0.2561  0.2927
 9637W        W25711   3.136   6.008  12.960  0.0041  0.2626  0.2327
 9638W        W25712  15.754  17.985  15.634 -0.0044  0.1436  0.1774
 9639W        W25713  17.123   0.597   1.521  0.0883 -0.4902  0.1625
 9640W        W25714  10.494   4.724  16.361 -0.1716 -0.4328 -0.0351
 9641W        W25715   4.027   4.095   5.576 -0.0557  0.1415 -0.4577
 9642W        W25716  16.149  13.184   2.797  0.0722 -0.2109 -0.0566
 9643W        W25717  13.475   6.773  16.313 -0.1309 -0.2572  0.1593
 9644W        W25718   6.281   3.113   5.737 -0.1498  0.2749  0.2547
 9645W        W25719   7.411  12.442  15.576  0.1918 -0.2358  0.0783
 9646W        W25720   0.990   5.253   1.418  0.3857 -0.1206 -0.0346
 9647W        W25721  15.779   6.105  11.491  0.1466  0.3341  0.3289
 9648W        W25722   0.009   4.250   1.291 -0.3591  0.1426  0.1542
 9649W        W25723  14.582   1.005  15.949 -0.1304  0.2927  0.1464
 9650W        W25724   0.486  14.347  16.496  0.1143 -0.0903  0.2512
 9651W        W25725   1.190  14.819   1.315 -0.0968  0.2573  0.1366
 9652W        W25726  15.042   9.124  11.745 -0.1977 -0.0330 -0.3261
 9653W        W25727  11.990   4.020  12.136 -0.1579  0.0064 -0.2933
 9654W        W25728  14.407  13.224   3.021 -0.1551  0.0315 -0.1161
 9655W        W25729  16.278   5.502   3.800  0.2205 -0.1083  0.1886
 9656W        W25730   7.285  10.255  16.414  0.1927  0.2305 -0.0086
 9657W        W25731  15.579   8.555   3.764  0.0091 -0.0096  0.0178
 9658W        W25732  16.457   6.845   0.613 -0.0115  0.3276 -0.5755
 9659W        W25733   7.233   5.266  13.065  0.3098  0.0536 -0.2409
 9660W        W25734   0.737  13.723   5.203 -0.1898 -0.0609  0.1305
 9661W        W25735  13.194  11.463  15.099  0.1436  0.2965 -0.0998
 9662W        W25736   9.052   0.759  13.420 -0.0497 -0.1264  0.0057
 9663W        W25737   3.923   6.534   1.936  0.0865  0.2910  0.2146
 9664W        W25738  11.100   4.771  14.184  0.1384  0.1111  0.3696
 9665W        W25739   9.212   7.122  14.818 -0.0555 -0.0640  0.0016
 9666W        W25740   2.660   8.162  15.616  0.1114  0.2171  0.0367
 9667W        W25741   6.467  11.584   1.861  0.2727 -0.1181 -0.0958
 9668W        W25742   1.657   8.110   4.356  0.0710 -0.4371  0.1406
 9669W        W25743   9.139   4.752   0.488 -0.0637  0.1456 -0.2173
 9670W        W25744  15.255  16.967  11.637  0.2009  0.1007 -0.1314
 9671W        W25745  10.549  10.383  13.760  0.1986  0.0487  0.1672
 9672W        W25746   4.822  10.046   5.876 -0.1544 -0.2791 -0.2568
 9673W        W25747   0.844  16.509   4.984  0.2023 -0.1980  0.1150
 9674W        W25748   3.116   4.018  12.021  0.0130 -0.0735 -0.2446
 9675W        W25749   2.273   8.483   4.854 -0.3123 -0.0358 -0.0041
 9676W        W25750  17.288   3.239   2.851  0.3934  0.3829 -0.0055
 9677W        W25751  17.725  15.456   1.019  0.1326  0.0624  0.1911
 9678W        W25752   3.786  12.441  13.069  0.0027  0.3210  0.0448
 9679W        W25753   4.119   1.779   4.232 -0.0195 -0.1439 -0.1557
 9680W        W25754   2.227   5.694  15.473  0.2425 -0.0897 -0.0761
 9681W        W25755   4.329   2.414   2.953 -0.3220  0.1004 -0.1309
 9682W        W25756   0.843   0.163   2.390 -0.0168  0.1726  0.3538
 9683W        W25757   0.933  18.217   1.861  0.0970 -0.3616  0.2344
 9684W        W25758   7.726   2.921   5.493  0.0065 -0.1993  0.0498
 9685W        W25759  13.999   7.882   2.555  0.2250 -0.0797 -0.1827
 9686W        W25760   1.412  17.254  12.451  0.0564  0.2675  0.1634
 9687W        W25761  16.932  17.850  16.298 -0.1104 -0.0813 -0.1796
 9688W        W25762  14.063  12.581  13.843 -0.3947 -0.3568  0.0174
 9689W        W25763  13.653   9.048   5.263  0.0364 -0.1755 -0.3280
 9690W        W25764   8.519   5.845  12.874  0.2151 -0.1388 -0.1825
 9691W        W25765   2.311   1.444   1.128  0.1593 -0.0460 -0.1412
 9692W        W25766  15.198  14.373   1.691 -0.1328 -0.0135 -0.0167
 9693W        W25767   7.872   9.533   1.123  0.1114  0.0762 -0.0733
 9694W        W25768   3.280   1.886  16.259 -0.1729  0.1799 -0.1076
 9695W        W25769   6.236  11.164   2.717  0.0815  0.0874 -0.2251
 9696W        W25770  18.092   4.963  16.127 -0.0844 -0.0560 -0.1092
 9697W        W25771  13.341  17.807  12.178 -0.1992  0.1228  0.0943
 9698W        W25772  10.161  11.504  13.571 -0.0620 -0.1131 -0.2949
 9699W        W25773   3.894  16.043   4.740  0.0016  0.0382  0.1926
 9700W        W25774   2.770   0.879   2.350 -0.0388  0.1533  0.0661
 9701W        W25775   1.823   9.960   3.133  0.0626  0.1467 -0.2400
 9702W        W25776   4.124   9.508  15.600 -0.1891 -0.1083 -0.1539
 9703W        W25777  12.958   8.506   4.788  0.2503  0.1121 -0.2453
 9704W        W25778  15.384  12.756  12.556  0.1028  0.1785 -0.0947
 9705W        W25779   0.094  10.716  10.194  0.1823 -0.2095  0.0457
 9706W        W25780   3.481  11.895  13.009  0.0315 -0.0964 -0.2753
 9707W        W25781  12.697  16.929  12.772 -0.1536  0.1340  0.0846
 9708W        W25782   8.037  16.082  11.586  0.0625  0.2216 -0.0310
 9709W        W25783   3.204  15.823   3.122 -0.1356  0.1449 -0.0712
 9710W        W25784   3.612   0.106   2.925 -0.0300 -0.0957  0.0460
 9711W        W25785   6.214  11.962   3.382  0.0885  0.1016 -0.2597
 9712W        W25786   5.031  12.558  13.825 -0.2225 -0.1435  0.0555
 9713W        W25787  16.718   0.259  14.782 -0.0497 -0.0577 -0.1248
 9714W        W25788  16.851   5.330   1.422 -0.1268 -0.1097  0.2611
 9715W        W25789   8.781   1.276  12.833 -0.3431  0.0160  0.0844
 9716W        W25790   6.652  15.674  13.698  0.0872 -0.0139  0.1406
 9717W        W25791  11.527  16.566   0.308 -0.1130 -0.1065 -0.3217
 9718W        W25792  14.561   4.646  16.471 -0.0289  0.3246 -0.3110
 9719W        W25793   6.653   8.514   5.368  0.1347  0.1632 -0.0616
 9720W        W25794  16.002   6.160  13.307 -0.3249 -0.0728 -0.3850
 9721W        W25795  11.695   8.684   1.675  0.1560 -0.0707 -0.0600
 9722W        W25796   5.587  13.399  13.332  0.0611  0.2074  0.0175
 9723W        W25797   4.742   6.236   3.746 -0.2068  0.1761  0.0452
 9724W        W25798   4.994  16.260  13.792  0.0132  0.1380 -0.1752
 9725W        W25799   1.766   6.987  15.186 -0.4290 -0.0833  0.2036
 9726W        W25800   3.596  11.266  11.389 -0.2396 -0.1299 -0.0914
 9727W        W25801   1.388   1.916   3.864 -0.0950  0.0996  0.1492
 9728W        W25802   0.242   1.162  13.645 -0.1241 -0.2737  0.0024
 9729W        W25803   1.788  17.723   3.044 -0.0564 -0.1945  0.0447
 9730W        W25804   1.929   4.961  16.302  0.1636 -0.1937 -0.2965
 9731W        W25805  16.611  13.427  13.821  0.6759 -0.4036 -0.1379
 9732W        W25806   2.980  15.299  15.221  0.1328 -0.0444  0.2722
 9733W        W25807  11.580   5.036  13.787 -0.3591 -0.0192 -0.1430
 9734W        W25808   7.203  13.938   4.356 -0.0743  0.3171 -0.2146
 9735W        W25809   4.626  17.771   3.872  0.0360  0.0211 -0.1904
 9736W        W25810  17.171   5.729   0.228  0.1366 -0.1148  0.0710
 9737W        W25811   0.654   6.399  13.765 -0.0553  0.0350 -0.0371
 9738W        W25812   9.922  16.585  15.663  0.1371 -0.2031  0.3699
 9739W        W25813   5.552   4.983  12.101  0.0807  0.0575 -0.3113
 9740W        W25814  13.530   2.755  13.401  0.2127  0.3138 -0.2874
 9741W        W25815  17.116   9.869   1.561 -0.2053 -0.2268  0.1768
 9742W        W25816   8.643  17.661   4.728  0.0218 -0.1345 -0.1194
 9743W        W25817   2.718  10.902  14.099  0.0850 -0.0943 -0.1447
 9744W        W25818   2.058   6.693  11.393  0.0199 -0.0534 -0.3041
 9745W        W25819   7.670   2.184   4.308  0.4357  0.3267  0.1239
 9746W        W25820   7.005  16.427   4.302 -0.2079 -0.1301 -0.0022
 9747W        W25821  16.804  16.710   4.781 -0.0209 -0.0149 -0.1163
 9748W        W25822   1.289  11.768   3.440  0.3240 -0.0207 -0.1403
 9749W        W25823   3.517   7.002   3.737  0.1832 -0.0205  0.0458
 9750W        W25824  12.099  10.754   4.752 -0.0015  0.0057 -0.2087
 9751W        W25825   8.238  15.701   5.052  0.1757 -0.1387  0.2300
 9752W        W25826  11.151  10.914   2.446 -0.0456  0.0732 -0.1862
 9753W        W25827   0.914   3.175   3.510  0.1532  0.2747  0.2220
 9754W        W25828  15.477  10.000  14.246 -0.0798  0.1903 -0.1245
 9755W        W25829   6.590   6.997  13.014  0.3138  0.2976  0.1022
 9756W        W25830   0.865   7.287   1.114 -0.2866 -0.0114  0.1075
 9757W        W25831  14.638   7.623   3.481 -0.1115 -0.0577  0.0283
 9758W        W25832  16.100   9.831   2.862  0.2439 -0.0781  0.0758
 9759W        W25833  10.493  10.856  14.755  0.1638 -0.1350 -0.0293
 9760W        W25834   3.464   2.060  15.829 -0.2560  0.3419 -0.3334
 9761W        W25835   6.487   8.937   5.096  0.0983 -0.0473 -0.0220
 9762W        W25836   7.625  14.425   2.926  0.0598  0.5644  0.0430
 9763W        W25837   0.867  15.759  16.252  0.2594 -0.1997  0.0386
 9764W        W25838   1.776   8.472   5.233 -0.0143  0.1673  0.2769
 9765W        W25839   6.615   6.262   3.537  0.0749 -0.3629 -0.3298
 9766W        W25840  12.191   3.744  14.746  0.0820 -0.0955  0.2662
 9767W        W25841  12.947  17.656  14.301  0.3276  0.3273 -0.3345
 9768W        W25842   3.285   6.165   4.393  0.0030  0.2663 -0.0584
 9769W        W25843  17.513  18.217   3.777  0.0633 -0.0987 -0.0180
 9770W        W25844   5.696   3.525  13.923 -0.6349  0.1876 -0.1152
 9771W        W25845   9.407   6.656   2.335  0.4426 -0.1575  0.1458
 9772W        W25846   9.706  11.656   2.832 -0.0267 -0.0415 -0.0939
 9773W        W25847  17.770  13.258   5.266 -0.1930  0.2154 -0.2675
 9774W        W25848   9.095  15.804  14.202  0.4857  0.1645 -0.0170
 9775W        W25849  12.117   6.642  14.418 -0.1417  0.1767 -0.3156
 9776W        W25850  15.252  11.562   2.100  0.1510 -0.3419  0.1453
 9777W        W25851   6.653   5.442   1.070 -0.0841 -0.1426 -0.3979
 9778W        W25852  12.833  11.877   4.118  0.1761 -0.2591  0.1881
 9779W        W25853   6.492  16.310  12.378  0.2262 -0.0664 -0.4276
 9780W        W25854  16.609   8.960  12.817 -0.0800  0.1373 -0.0178
 9781W        W25855  16.976   5.363  11.467  0.0122 -0.1001 -0.0459
 9782W        W25856  11.898   1.820  11.912  0.0257  0.2374  0.0889
 9783W        W25857   2.504   0.122  13.411  0.0420  0.0883  0.1643
 9784W        W25858   8.850   8.830  15.203  0.1193 -0.0740  0.0429
 9785W        W25859  10.116   6.328  16.201  0.0667 -0.0924  0.2551
 9786W        W25860  10.565   9.204   2.557  0.2198  0.2184 -0.0424
 9787W        W25861  15.267   8.217   2.219 -0.3970  0.0266  0.0585
 9788W        W25862   4.205   0.745   0.162 -0.1827 -0.1092  0.3726
 9789W        W25863   2.737   9.707   5.240  0.4261 -0.0634  0.0102
 9790W        W25864   8.195   8.250   4.190  0.1173 -0.1525 -0.0113
 9791W        W25865   7.155  16.929   4.345  0.0758  0.3545 -0.0120
 9792W        W25866   6.515   7.664  14.655 -0.2018 -0.1719 -0.1958
 9793W        W25867  14.904  13.844   2.979 -0.0824  0.3653  0.0138
 9794W        W25868   6.213   3.242   2.134 -0.1072  0.1216 -0.1430
 9795W        W25869  11.754   5.732   0.340  0.0212  0.0057 -0.1226
 9796W        W25870   2.765   5.557   4.494 -0.0822  0.0107 -0.3192
 9797W        W25871   5.039   2.544  14.949 -0.2686  0.1533  0.2503
 9798W        W25872   4.563   2.652  15.689  0.2143  0.0579 -0.0005
 9799W        W25873  18.106   5.342   3.764 -0.1045 -0.0127  0.0109
 9800W        W25874   7.259   2.587   2.363 -0.1354 -0.3106 -0.0379
 9801W        W25875   4.416   0.592  14.846  0.1275 -0.1061 -0.1914
 9802W        W25876  10.098  15.385   3.916 -0.0480  0.3182  0.2854
 9803W        W25877  17.885   9.227  12.157 -0.0729 -0.2641  0.2639
 9804W        W25878  15.081   2.712   4.545 -0.2728  0.0037 -0.1173
 9805W        W25879   7.349   7.830   6.475  0.0157  0.1341 -0.2449
 9806W        W25880   7.299   2.569  12.997 -0.3461  0.2641 -0.1835
 9807W        W25881  13.676  14.473   2.596 -0.2509  0.1676 -0.2498
 9808W        W25882   8.656  17.933  13.804  0.0410  0.1352 -0.2032
 9809W        W25883   8.388   3.349  12.442 -0.0073  0.1604  0.1968
 9810W        W25884  17.735   3.331   5.949  0.1843  0.2167 -0.0908
 9811W        W25885  10.131   7.266   1.521  0.3889 -0.5543 -0.2262
 9812W        W25886  11.662   3.682   3.456  0.0949 -0.1965  0.0739
 9813W        W25887   8.709  14.822  16.186  0.1587 -0.0760  0.0790
 9814W        W25888  17.457  14.347   5.699 -0.1553  0.0150 -0.0005
 9815W        W25889   1.902  12.526  16.426 -0.2549  0.2215  0.1644
 9816W        W25890  17.313   4.530  11.136 -0.0666  0.0803  0.5116
 9817W        W25891   2.551  13.054   1.952  0.1594  0.1258 -0.0984
 9818W        W25892  15.164  12.236   3.789 -0.0314  0.0420  0.1309
 9819W        W25893   2.305   0.046   1.746  0.2188  0.1037  0.0215
 9820W        W25894  11.516   8.234   1.966 -0.4090  0.0615 -0.0268
 9821W        W25895  17.887  16.031   3.179  0.0452 -0.0842  0.0505
 9822W        W25896   1.511  15.531   4.225 -0.1393  0.0113  0.0489
 9823W        W25897  13.080  16.120  16.004 -0.1898 -0.3613 -0.3031
 9824W        W25898   3.869  14.895  15.355 -0.0592  0.2126  0.0255
 9825W        W25899   0.017   1.446   4.142  0.1036  0.2611  0.0064
 9826W        W25900   8.157   8.340   2.512  0.0949  0.1928 -0.1533
 9827W        W25901  13.251   5.170   1.263  0.2935 -0.1644  0.1096
 9828W        W25902  13.143  14.427   2.521 -0.4017  0.0615  0.0009
 9829W        W25903   4.603  16.589  14.868  0.1865  0.2492  0.1491
 9830W        W25904   3.548   6.350  13.008 -0.1937 -0.4605  0.2471
 9831W        W25905   0.991  10.680   4.463 -0.0374  0.2288  0.1233
 9832W        W25906   2.360  10.015  15.490 -0.0680  0.0260 -0.0318
 9833W        W25907   1.327  14.507   2.186 -0.2336  0.0323 -0.0953
 9834W        W25908   8.486   9.476  16.014  0.1519 -0.2695  0.1025
 9835W        W25909   7.669  14.484   0.139  0.1279 -0.2139 -0.1237
 9836W        W25910  12.508   3.373   0.333  0.2288  0.1048 -0.0188
 9837W        W25911   2.510   1.744   6.127 -0.2388 -0.2648  0.1265
 9838W        W25912  17.158   1.935  15.746  0.1579  0.0982 -0.2733
 9839W        W25913   8.508   5.353  12.966 -0.0635  0.0260  0.0262
 9840W        W25914  12.146   8.164  13.138 -0.1306 -0.0117 -0.0077
 9841W        W25915   8.439   1.683   2.682 -0.0546  0.0164  0.1453
 9842W        W25916   2.087   1.425  12.597 -0.0880  0.1512  0.1137
 9843W        W25917   4.042   7.260   5.455  0.3156 -0.3685 -0.0948
 9844W        W25918   5.939   6.069   1.791  0.1252  0.1413  0.1700
 9845W        W25919   5.534   7.794  14.783  0.1099  0.0335  0.0905
 9846W        W25920  10.600   6.426  12.222 -0.4847  0.2997 -0.3985
 9847W        W25921   7.487  17.751   2.107  0.3844  0.1971  0.1373
 9848W        W25922  17.744   4.398   0.908 -0.0001  0.0080 -0.2403
 9849W        W25923  14.644  12.241  12.349 -0.3663 -0.0225  0.0263
 9850W        W25924  10.311  15.393  12.227 -0.0939  0.1485 -0.0180
 9851W        W25925  11.727  14.990  16.091  0.4121  0.2174 -0.1171
 9852W        W25926   9.336  17.987  13.881 -0.1001  0.2374  0.0436
 9853W        W25927   8.135   0.021  12.164 -0.1620 -0.2303  0.0143
 9854W        W25928   9.933   9.888   2.886 -0.0892 -0.0729  0.2211
 9855W        W25929  10.263   8.915   3.994 -0.0453 -0.2671 -0.1587
 9856W        W25930  13.560   4.274   0.593 -0.0417  0.1803 -0.0195
 9857W        W25931   7.320   1.773  14.121 -0.0594 -0.2230 -0.3263
 9858W        W25932   7.476   8.551   0.411  0.0649  0.4077 -0.1324
 9859W        W25933  16.857   7.295  12.973 -0.0514  0.0113 -0.1860
 9860W        W25934   1.225   5.338  15.565  0.4659  0.0651 -0.3219
 9861W        W25935  17.321   5.963  15.402 -0.1363  0.0920  0.2968
 9862W        W25936   7.042   6.846   5.757 -0.0389  0.0638  0.0552
 9863W        W25937  18.182   4.751   0.996 -0.0043  0.2801 -0.0484
 9864W        W25938  14.439   4.598  13.865  0.2635  0.0334  0.3211
 9865W        W25939  11.150  13.716  12.481 -0.0068  0.0975  0.1828
 9866W        W25940  11.778  11.169   1.009  0.2095  0.1194 -0.0194
 9867W        W25941  16.816  11.612  11.894  0.0307 -0.0704  0.1018
 9868W        W25942   1.630  16.420   4.823 -0.0025 -0.0065  0.0992
 9869W        W25943   6.266   5.680  12.236 -0.0224 -0.1754  0.1933
 9870W        W25944   7.994   8.497  12.872  0.0125 -0.0373  0.1198
 9871W        W25945  13.802   4.919   0.222 -0.3097  0.1462 -0.1699
 9872W        W25946   7.874   5.570   0.510  0.1592  0.1644 -0.0053
 9873W        W25947   1.180   2.323   4.271 -0.0679 -0.0143 -0.0883
 9874W        W25948   7.274   9.018  15.368 -0.1988  0.0361 -0.4060
 9875W        W25949   4.982  14.195  12.056  0.1769 -0.0867 -0.0353
 9876W        W25950   2.122  11.494   0.531  0.1006  0.1124  0.1670
 9877W        W25951  16.543   0.156   3.057 -0.2393  0.3092  0.0718
 9878W        W25952  14.657  15.580   0.279 -0.1720  0.0339 -0.0507
 9879W        W25953   2.175  18.034   2.252 -0.2857  0.2498  0.2471
 9880W        W25954   7.450  10.570  13.001  0.1116 -0.1333 -0.0401
 9881W        W25955  12.163  11.191   3.813 -0.1180  0.5077  0.3529
 9882W        W25956  16.646   9.342   2.894 -0.0214  0.0328 -0.0501
 9883W        W25957  15.060   1.860  12.828 -0.0580  0.0465  0.2783
 9884W        W25958  13.014  17.350   5.630 -0.0756  0.0765 -0.1520
 9885W        W25959   7.083   6.427   1.866  0.0100  0.0667  0.1375
 9886W        W25960  10.140  15.130   0.276  0.1128  0.3927 -0.0800
 9887W        W25961   1.527   6.065   1.618 -0.1350  0.1015 -0.0334
 9888W        W25962   4.056   1.138   5.193  0.0016 -0.1588 -0.0502
 9889W        W25963  13.186  16.280   5.996 -0.0598  0.1057 -0.1502
 9890W        W25964   8.370   5.459  16.172 -0.1822 -0.1892 -0.0362
 9891W        W25965   5.200  12.715  15.530 -0.0066  0.0884  0.0082
 9892W        W25966   0.830   2.098  15.329 -0.0054  0.1905  0.1240
 9893W        W25967  17.640   1.843  15.650 -0.1456  0.1962  0.0425
 9894W        W25968  12.346   7.590   2.478 -0.1172  0.0369 -0.0204
 9895W        W25969   4.081  10.632   0.533 -0.2468  0.3160  0.1071
 9896W        W25970   9.176  15.379   0.537  0.1757  0.1052 -0.1691
 9897W        W25971   8.849  15.126   5.718  0.3554  0.2887  0.2058
 9898W        W25972   4.290  15.012  15.803  0.1887 -0.0307 -0.0100
 9899W        W25973  10.039   2.879  14.980 -0.0889  0.0930  0.1473
 9900W        W25974   8.923  17.501  16.337 -0.2016 -0.0809  0.0504
 9901W        W25975  14.395  16.680   2.392  0.2688 -0.1687 -0.2130
 9902W        W25976  14.418   5.414   1.590  0.1080 -0.0037 -0.3201
 9903W        W25977  17.889  10.705   5.190 -0.0742 -0.1624  0.1240
 9904W        W25978  12.655   0.111   4.846 -0.3014 -0.1602 -0.2266
 9905W        W25979   3.659  15.956  10.971 -0.0142 -0.2460  0.4004
 9906W        W25980   2.452  17.917  12.289  0.2394 -0.1191  0.0347
 9907W        W25981   4.011  12.009   1.075  0.3261  0.0877 -0.0749
 9908W        W25982   2.043   6.278   0.966  0.0070 -0.0198 -0.1645
 9909W        W25983   1.627  12.025   1.010  0.0419  0.1033 -0.0696
 9910W        W25984  10.218   2.370   0.210  0.0248 -0.3602 -0.1940
 9911W        W25985   0.798  10.187  14.961 -0.3358 -0.1211 -0.0421
 9912W        W25986   3.994   8.011  10.178 -0.2073  0.2374  0.0146
 9913W        W25987  11.410  18.097  14.790  0.2184 -0.2489 -0.2649
 9914W        W25988  17.447  17.515  14.084  0.1232  0.0759 -0.1181
 9915W        W25989  11.437   1.312  15.438  0.2568  0.1069 -0.0543
 9916W        W25990   1.990  13.523   3.702  0.1950 -0.0394 -0.2423
 9917W        W25991   1.518   6.642  11.812 -0.0644 -0.2985  0.2665
 9918W        W25992   5.856   6.838  11.388 -0.1225 -0.3146  0.2919
 9919W        W25993   4.352   0.078   3.636 -0.1275 -0.0552 -0.1623
 9920W        W25994  10.993   0.356   1.379  0.1003  0.3758  0.2389
 9921W        W25995  11.331   3.162   4.761  0.4432  0.0461 -0.0279
 9922W        W25996  12.196   5.572   2.102 -0.1914  0.0899  0.0154
 9923W        W25997  12.597   0.516  11.533 -0.1585 -0.2483  0.0221
 9924W        W25998   8.919   9.618   0.284  0.0670 -0.1353  0.0389
 9925W        W25999   4.563   4.017   2.251  0.0139 -0.1400 -0.1623
 9926W        W26000   0.707   8.585   2.837  0.2453 -0.4646  0.1207
 9927W        W26001   0.779   8.191  11.132  0.1831  0.0020 -0.3685
 9928W        W26002  13.077   3.513   2.797  0.2651 -0.1086 -0.0075
 9929W        W26003  10.053   5.413   6.186 -0.2419  0.0789  0.1646
 9930W        W26004  17.403  17.112  13.397 -0.0100 -0.0603 -0.0857
 9931W        W26005   2.532   4.232   4.744 -0.0180 -0.0176 -0.0430
 9932W        W26006   5.844  15.880  11.641  0.0874  0.2542  0.1100
 9933W        W26007   4.846  15.704  12.268 -0.3882 -0.1572  0.2157
 9934W        W26008   9.286   9.756  11.688  0.2581 -0.1900 -0.0614
 9935W        W26009  13.915   2.657   1.716  0.2577  0.0365 -0.1889
 9936W        W26010  15.042   8.559  11.775  0.1094 -0.2624  0.2143
 9937W        W26011   6.658  10.993   5.571  0.1832  0.3195  0.1730
 9938W        W26012  15.395   0.276  13.087 -0.0893 -0.3585  0.1113
 9939W        W26013   9.247  15.378   4.857  0.0550  0.1560 -0.0473
 9940W        W26014   6.467  11.617   2.617 -0.0238 -0.1524 -0.0352
 9941W        W26015   3.937   0.232  15.788 -0.1276 -0.0650 -0.1061
 9942W        W26016   4.380   8.328   3.204 -0.0591  0.1222 -0.2644
 9943W        W26017  11.783   3.820  12.576 -0.3137 -0.3176 -0.1013
 9944W        W26018  18.012   3.707  15.221  0.0836  0.0544  0.0353
 9945W        W26019   1.193  11.961   3.864  0.2333 -0.0216 -0.0184
 9946W        W26020   8.123  14.546   3.646  0.0133 -0.0883  0.0623
 9947W        W26021  16.334   0.915  13.806 -0.0147 -0.0963 -0.2039
 9948W        W26022  10.042   9.532  12.272  0.0153  0.0002  0.0192
 9949W        W26023  10.344   7.787   1.514  0.2775  0.2389  0.1209
 9950W        W26024  13.584  10.156   6.433  0.3256  0.3518  0.1653
 9951W        W26025  12.107  15.402  11.346  0.1132  0.3287  0.0382
 9952W        W26026   8.011  10.677   0.128  0.1298  0.1118 -0.3600
 9953W        W26027   4.924   2.460   3.038 -0.0723 -0.2685  0.2127
 9954W        W26028   2.008   5.360   5.155  0.0271 -0.5713 -0.1328
 9955W        W26029   0.152   1.468  14.459  0.1785 -0.1463  0.2138
 9956W        W26030  12.992  11.136  15.870  0.1412  0.3188 -0.0622
 9957W        W26031   8.711  14.852   2.658  0.0330  0.0016 -0.1114
 9958W        W26032   3.953   4.609  14.933  0.0950 -0.3591  0.3380
 9959W        W26033   3.582   3.906  14.979 -0.0001 -0.2864 -0.2531
 9960W        W26034   0.777  10.342  11.161 -0.1180 -0.0299 -0.2648
 9961W        W26035   8.104  18.013  13.531  0.0380 -0.3990  0.0144
 9962W        W26036   1.347  17.928  13.562  0.0397  0.1352 -0.1459
 9963W        W26037   9.671   0.206   0.711  0.1585 -0.1120 -0.1587
 9964W        W26038  17.436   7.401  13.053 -0.2328 -0.2156 -0.1180
 9965W        W26039  17.504  17.426   3.321 -0.0422  0.0655  0.0348
 9966W        W26040  12.069  17.469   1.435 -0.2256  0.0827 -0.1649
 9967W        W26041   8.931  16.912   5.114 -0.0197  0.1266 -0.1020
 9968W        W26042   0.142   9.654  13.075  0.0165 -0.1170  0.3403
 9969W        W26043  13.952  16.235   3.151  0.1555  0.0390  0.2137
 9970W        W26044   5.310  17.965   3.339 -0.0702 -0.2703  0.2000
 9971W        W26045  16.907   2.930  11.881  0.0346  0.1341  0.0947
 9972W        W26046  16.693  12.369  15.271  0.1593  0.1562  0.0690
 9973W        W26047  13.445   0.837   0.103  0.0856  0.3270  0.1865
 9974W        W26048   6.478  12.106   0.670  0.1703  0.0459  0.1352
 9975W        W26049  16.654  12.648   2.825  0.3179 -0.1354  0.1815
 9976W        W26050  14.391   6.037   5.321 -0.1162 -0.0971 -0.1951
 9977W        W26051   6.939   6.218   0.405  0.0505 -0.0379 -0.0139
 9978W        W26052  11.723   0.884   2.415 -0.0441 -0.2515 -0.1590
 9979W        W26053  18.092   4.432  12.152 -0.0066 -0.1812 -0.1135
 9980W        W26054   8.442  10.642  12.207  0.2537  0.0043 -0.1253
 9981W        W26055   5.583   1.214  13.527 -0.0336  0.0571  0.0706
 9982W        W26056  12.781   5.996  14.259 -0.0816 -0.0649 -0.3043
 9983W        W26057   7.695   8.923  15.787 -0.0931  0.1104 -0.1844
 9984W        W26058  10.935  15.880   3.663 -0.2433  0.0429 -0.0516
 9985W        W26059  16.412  13.827   2.894 -0.4087 -0.5149 -0.0197
 9986W        W26060   2.762   6.526  10.213  0.0083 -0.0281 -0.0330
 9987W        W26061  15.982   6.807  14.152  0.2076  0.4662 -0.1684
 9988W        W26062   5.214   4.504  12.937 -0.0236  0.3217  0.1403
 9989W        W26063  17.880  10.109   0.666  0.0681 -0.1399  0.0277
 9990W        W26064   6.525   5.179  16.077  0.2079 -0.1345 -0.2579
 9991W        W26065   4.454  11.801  14.289 -0.0349  0.0945 -0.0125
 9992W        W26066   5.737  11.514  12.944 -0.2720  0.0699 -0.0043
 9993W        W26067  11.844   1.414   5.728 -0.0649 -0.0976 -0.1370
 9994W        W26068  14.634   5.429  11.734 -0.3812  0.2721 -0.0785
 9995W        W26069  13.291   7.583   2.837 -0.0833  0.2081 -0.1417
 9996W        W26070   5.447  12.329  14.028 -0.0377 -0.0036  0.2890
 9997W        W26071  10.805   1.404  12.089  0.3094  0.1904  0.4580
 9998W        W26072   4.735  15.685   0.147  0.1971 -0.0658  0.0390
 9999W        W26073   2.450   3.519   5.936  0.0583  0.0367 -0.0074
10000W        W26074   8.708  11.929   2.541 -0.2901  0.0355 -0.1944
10001W        W26075  10.586  13.609  11.880 -0.0223  0.2615  0.1046
10002W        W26076   9.091   2.286  14.112 -0.1100 -0.1846  0.0924
10003W        W26077  17.788   7.604   3.479  0.1531  0.1574 -0.2018
10004W        W26078   3.767  10.958  14.698  0.2409 -0.3526 -0.0139
10005W        W26079   4.481   3.675   1.345 -0.0023  0.1729 -0.2790
10006W        W26080  11.446   3.654   1.693  0.3553 -0.0017 -0.0030
10007W        W26081  11.715   1.037  12.134 -0.1955  0.0641 -0.0146
10008W        W26082  16.508   9.906   0.431 -0.1046 -0.1207  0.2540
10009W        W26083   2.770  13.532   3.122  0.0085 -0.1562  0.0646
10010W        W26084   6.846   0.859   1.441  0.2612 -0.0770 -0.0041
10011W        W26085   1.621  14.161   1.980 -0.3470 -0.1162  0.2642
10012W        W26086  11.593  12.159  14.183  0.1850  0.1317 -0.0965
10013W        W26087  10.451   5.112  12.566  0.2567  0.1415 -0.0060
10014W        W26088  14.290  17.202   2.270  0.0682  0.0510 -0.2774
10015W        W26089  16.368   5.106   3.392 -0.1797  0.1798 -0.4154
10016W        W26090  14.824   9.488  10.553 -0.1351 -0.0303  0.0000
10017W        W26091   3.104   0.748  14.891 -0.1644  0.1424 -0.3503
10018W        W26092   4.668   3.761   2.766 -0.4902 -0.3667 -0.1195
10019W        W26093   6.068   5.371   5.799 -0.1716  0.5952 -0.2438
10020W        W26094  14.061   7.099  15.714 -0.2286  0.1026  0.4204
10021W        W26095   1.730  15.259   3.292  0.0697  0.2551  0.0087
10022W        W26096  11.342  11.039  14.932  0.0272 -0.0158 -0.0905
10023W        W26097   7.279  10.651  12.471 -0.0780  0.1863 -0.4669
10024W        W26098  13.910  10.637   4.703  0.0726 -0.3234 -0.1031
10025W        W26099   9.749   4.717  11.395  0.0731 -0.1072  0.0737
10026W        W26100  17.083   2.783   4.273 -0.0221  0.1782  0.0088
10027W        W26101   8.195   5.621   4.324 -0.2741 -0.2645  0.1305
10028W        W26102  10.148   8.925  12.084 -0.0428 -0.1800 -0.1626
10029W        W26103  14.517  11.705  13.633  0.2017 -0.2805 -0.1645
10030W        W26104  11.883  12.866   0.472  0.2395 -0.2219 -0.0677
10031W        W26105   1.533  15.177   1.300  0.3932  0.2055 -0.0463
10032W        W26106  12.699  14.646  11.000  0.2218 -0.2335  0.3207
10033W        W26107  16.074  12.443   1.550 -0.3756  0.0625  0.0358
10034W        W26108   2.684  12.877  12.175  0.0528 -0.1586  0.0600
10035W        W26109  17.795   1.939  12.227  0.0727 -0.1887 -0.0837
10036W        W26110   3.129  15.904  12.856 -0.1984  0.2131 -0.0932
10037W        W26111   6.854   0.039  11.512  0.0721 -0.1241  0.0802
10038W        W26112   8.276   2.410  16.311  0.0090 -0.2230 -0.0895
10039W        W26113   3.237   3.454   3.723  0.1495 -0.0647  0.0132
10040W        W26114   7.397  10.953   4.143  0.1101 -0.0704  0.1531
10041W        W26115  14.745   6.855   4.569  0.2732  0.1537 -0.1801
10042W        W26116   1.399   1.662   1.941  0.2786  0.1098  0.0836
10043W        W26117  12.278  16.202  16.204 -0.2597  0.2003  0.0005
10044W        W26118  14.080  13.653  15.582  0.0512  0.2822 -0.0375
10045W        W26119  11.329  14.414   0.436 -0.1214 -0.1681  0.0815
10046W        W26120   6.088   2.285  12.314 -0.1096 -0.1592  0.1855
10047W        W26121  10.200   1.073  15.321 -0.2703 -0.1327  0.2104
10048W        W26122   5.999   7.007  12.717  0.1933  0.2477 -0.3780
10049W        W26123  15.757   0.952  12.548 -0.3441 -0.2343 -0.0709
10050W        W26124   8.939  10.786  13.917  0.0704 -0.2009 -0.0501
10051W        W26125   3.284   8.872  12.212  0.1709 -0.2438 -0.0082
10052W        W26126   2.318   0.557  15.113  0.2189  0.3063 -0.0324
10053W        W26127   3.646   0.166   3.907  0.3711  0.1332  0.0136
10054W        W26128  10.126   5.482  11.625 -0.1619  0.0479 -0.1244
10055W        W26129  17.656   1.486   0.483 -0.3709  0.1877 -0.0647
10056W        W26130  16.184  10.158   3.796 -0.4095  0.0602  0.0553
10057W        W26131  11.186   5.816  12.692 -0.1563 -0.0050 -0.0194
10058W        W26132  15.254  10.282   0.494  0.2895  0.1232  0.2917
10059W        W26133   7.407   8.089   0.229 -0.1566  0.0618  0.0499
10060W        W26134   0.230  14.926  15.791 -0.1215 -0.3033 -0.2255
10061W        W26135   4.740  13.773   2.476  0.2595 -0.0227  0.3765
10062W        W26136  15.094   8.648   0.041  0.0475  0.1346 -0.1664
10063W        W26137  17.783  15.397  11.132 -0.3438  0.3564 -0.0785
10064W        W26138   8.104   4.600  12.776 -0.1398 -0.0767 -0.2487
10065W        W26139  15.525  15.769   4.756 -0.3917 -0.0491 -0.4142
10066W        W26140   3.643  10.387  12.754 -0.0961  0.0079  0.0487
10067W        W26141   0.144  13.589   3.068  0.0677  0.1854 -0.1620
10068W        W26142  16.463  17.945  16.064 -0.2074  0.1347  0.0817
10069W        W26143  14.261  11.618   3.096  0.0471  0.0458 -0.0554
10070W        W26144   6.700  15.271   2.828  0.2751 -0.0451 -0.0273
10071W        W26145   7.164  13.885   6.093  0.2002  0.0007  0.4215
10072W        W26146   5.979   8.384  14.479  0.0209 -0.1649  0.0569
10073W        W26147  15.464   7.991  13.345 -0.3001  0.4645  0.0673
10074W        W26148  15.957  17.939   2.189 -0.0998  0.0321  0.0821
10075W        W26149  18.116   0.172   1.631  0.0099  0.6202  0.1337
10076W        W26150  14.672  12.425   3.953 -0.0718 -0.1501  0.0534
10077W        W26151   7.981   6.956   2.590  0.1389 -0.0991  0.2036
10078W        W26152  10.880   8.086  11.751  0.1557 -0.0947  0.0659
10079W        W26153  10.598   8.395   0.352 -0.0786  0.1068  0.0747
10080W        W26154   9.396  12.451  10.868 -0.0264 -0.3433 -0.2959
10081W        W26155   8.995  13.266   5.747  0.1043 -0.1852 -0.0717
10082W        W26156   0.216  13.623   1.748  0.1800  0.4214 -0.0621
10083W        W26157   8.833  14.795   1.315  0.1374 -0.0125 -0.1315
10084W        W26158  12.848   7.370  12.353  0.0347 -0.1155  0.1692
10085W        W26159  11.999   4.565  15.785  0.0029 -0.3604 -0.0352
10086W        W26160   7.808  13.020   5.781  0.0397 -0.1437  0.0363
10087W        W26161  15.463   0.401  14.086 -0.0431 -0.1853 -0.0983
10088W        W26162   3.482  14.594  13.348 -0.3417 -0.0739 -0.1449
10089W        W26163   7.929  10.750  12.389 -0.0067 -0.0091  0.1124
10090W        W26164   9.813   2.007  15.145 -0.3892  0.1999 -0.4673
10091W        W26165   9.454   4.822   0.899 -0.1995 -0.1550 -0.0421
10092W        W26166   5.801   7.611   6.130  0.0628 -0.1608  0.0265
10093W        W26167  10.401   8.161   1.017 -0.1052 -0.0111 -0.2353
10094W        W26168  10.340   7.352   0.543  0.5306 -0.1584 -0.0014
10095W        W26169  17.802   2.987   5.056  0.0745 -0.1855 -0.0368
10096W        W26170  10.576  17.959  14.756  0.3831  0.1686 -0.0413
10097W        W26171   1.327  16.706   2.689 -0.2321  0.0570  0.0598
10098W        W26172  17.888  14.875   3.494  0.2565 -0.2060 -0.0457
10099W        W26173   2.177  16.166  12.879  0.1136  0.2002  0.2093
10100W        W26174  17.109  14.981   1.852  0.0507 -0.0871  0.2023
10101W        W26175  10.713  13.537  13.980 -0.0218 -0.3450  0.1113
10102W        W26176   8.367   4.243   4.575 -0.0228  0.0521  0.2178
10103W        W26177  16.222   7.053  15.054  0.0710 -0.0141  0.2125
10104W        W26178  14.963   5.107   0.534 -0.1801 -0.1914  0.0283
10105W        W26179  14.432   8.024  13.046  0.1008  0.0362 -0.1233
10106W        W26180   8.327   4.283  11.574 -0.4814  0.0212  0.0429
10107W        W26181   4.068  12.188   5.143 -0.0295 -0.1120  0.0714
10108W        W26182   8.618  12.518   4.747 -0.1955 -0.0810 -0.0075
10109W        W26183  15.770  12.012   0.480 -0.0689 -0.1193  0.2636
10110W        W26184  14.744  17.167   1.330  0.3812  0.1756  0.0228
10111W        W26185   9.574   5.936   5.122 -0.4006  0.3432 -0.0645
10112W        W26186   1.719  11.159   6.187  0.0088  0.1541  0.0671
10113W        W26187  13.515   0.083  14.505 -0.0170 -0.1412  0.1488
10114W        W26188   3.718  17.395   2.020  0.1634 -0.0408  0.1370
10115W        W26189  17.988   5.853  12.389  0.0782  0.3024  0.4155
10116W        W26190   7.571   9.528   4.641 -0.0600  0.1964  0.2155
10117W        W26191  14.400   4.027  13.626 -0.4057 -0.3614  0.3787
10118W        W26192  14.540   5.014   6.214  0.2174 -0.2035  0.0457
10119W        W26193   9.002   9.156  14.651 -0.1214  0.0639  0.2105
10120W        W26194   5.101   5.124   5.676  0.1647 -0.4085 -0.1774
10121W        W26195   5.652  16.745  16.203  0.0269 -0.2481  0.3080
10122W        W26196  13.138   7.263   5.220 -0.0220 -0.0093 -0.0370
10123W        W26197   1.946   0.945   1.405 -0.1812 -0.1139  0.0681
10124W        W26198  13.568   6.159  11.760  0.1391 -0.1313  0.1858
10125W        W26199  11.969   2.585   4.410 -0.1092  0.1162 -0.0770
10126W        W26200  10.254  18.016  13.904  0.5069 -0.0779  0.0486
10127W        W26201  11.404   5.472   3.264 -0.2811  0.0722  0.0355
10128W        W26202   3.740   7.333   4.223  0.1692  0.1279 -0.0766
10129W        W26203  12.693  12.686  12.723  0.0999 -0.1943 -0.4068
10130W        W26204   6.191  15.882  16.156  0.1636 -0.0532 -0.0563
10131W        W26205   1.872  17.606   0.529  0.0852  0.3799  0.0411
10132W        W26206   1.492   2.809  13.614 -0.0701  0.1583 -0.1443
10133W        W26207  12.439  13.756  16.272 -0.1747  0.1347  0.2705
10134W        W26208  16.044  18.182  16.163 -0.0042  0.3094  0.0185
10135W        W26209   6.895   7.409   3.091  0.0604  0.2290  0.0954
10136W        W26210   8.465   5.034  16.034  0.0888 -0.1404  0.1842
10137W        W26211  17.394  14.970   0.565 -0.0326 -0.0200 -0.1176
10138W        W26212  13.086   2.279   3.533 -0.3884  0.0651  0.0942
10139W        W26213   6.660  14.842   3.622 -0.2618  0.0040 -0.2810
10140W        W26214   1.853   1.727   4.507 -0.2382  0.0813 -0.0318
10141W        W26215   1.406  13.120   3.262  0.2639  0.0765 -0.2854
10142W        W26216   1.977   4.206   0.834  0.3529  0.0557 -0.4819
10143W        W26217   2.402   4.836   0.040 -0.0476 -0.3809  0.2460
10144W        W26218  11.478   5.729  13.287 -0.1208 -0.4756  0.0238
10145W        W26219  14.877   0.406  12.806  0.1154 -0.1741  0.1030
10146W        W26220   0.817   4.130  11.887 -0.0392  0.0924 -0.0896
10147W        W26221  13.588  11.567   5.271 -0.0215  0.0100 -0.0880
10148W        W26222  13.059   3.136  12.143 -0.2492 -0.2169 -0.5899
10149W        W26223  15.058  13.358   2.884  0.1576  0.0483  0.0228
10150W        W26224   7.885  15.784  14.582 -0.0173 -0.0634  0.0026
10151W        W26225   3.744  13.421   3.789 -0.0789 -0.1886 -0.2430
10152W        W26226  10.715   9.268   0.342 -0.3321 -0.3680 -0.2436
10153W        W26227   0.371   6.126  14.710 -0.1121 -0.1260 -0.1164
10154W        W26228   8.899  12.017   5.604 -0.3590 -0.0995  0.1601
10155W        W26229  10.282  14.045   4.788  0.2378 -0.1858 -0.1370
10156W        W26230   7.142   8.867  14.919  0.0851  0.0453  0.1370
10157W        W26231   3.344   8.992  15.786 -0.0363 -0.1265  0.0101
10158W        W26232  14.165   5.536   0.875 -0.1727 -0.1318  0.2181
10159W        W26233   6.165  10.359  16.279 -0.2296  0.0507 -0.2086
10160W        W26234   3.937  13.013   0.217  0.3208  0.1105  0.1736
10161W        W26235   8.640  15.840  16.246  0.2585  0.1101  0.0955
10162W        W26236  12.832   6.489  15.173 -0.1348  0.1550  0.1392
10163W        W26237  16.005   9.136   4.069 -0.0694 -0.3608  0.1505
10164W        W26238  14.589  12.105   1.253 -0.2421 -0.2726  0.1345
10165W        W26239  17.121  15.015  15.323  0.0174  0.0699 -0.0838
10166W        W26240  16.881  13.074   3.751 -0.0138 -0.2279  0.2155
10167W        W26241   9.249  12.010  13.287 -0.0798 -0.0480 -0.2197
10168W        W26242   6.420   7.917  15.096 -0.2937 -0.0907 -0.0215
10169W        W26243   1.705  14.553  14.031 -0.0579 -0.0997  0.4676
10170W        W26244  17.626   1.231   2.447  0.0347  0.0235 -0.1111
10171W        W26245  12.526   6.126   0.788  0.1292  0.1754 -0.1168
10172W        W26246   8.617   1.983   5.191  0.0278 -0.3657  0.0396
10173W        W26247   2.754  10.113   4.584  0.1377 -0.2787  0.0592
10174W        W26248  13.320  13.333   4.808 -0.1426 -0.1933 -0.0913
10175W        W26249  17.392  11.468  13.813 -0.0626 -0.2366  0.1469
10176W        W26250   3.393  10.908   4.857 -0.0250  0.0867 -0.1879
10177W        W26251  12.648   1.593   0.608  0.0038  0.0126 -0.0150
10178W        W26252   8.514   4.936  15.486 -0.0128  0.2874 -0.2766
10179W        W26253  10.517   6.928   1.572 -0.2454  0.1033 -0.0078
10180W        W26254   5.453   8.456   1.006 -0.2380  0.1346 -0.0994
10181W        W26255  13.184  16.940  15.927 -0.2307  0.0310 -0.1930
10182W        W26256  10.196   9.618  15.073  0.1310  0.1726  0.0239
10183W        W26257  10.012  11.384  15.995 -0.4125  0.0200  0.3349
10184W        W26258  15.730   3.974   6.287  0.1684  0.0539  0.2854
10185W        W26259  18.195   7.446  12.534  0.1517  0.2383  0.2918
10186W        W26260  13.687  11.383  14.707 -0.2171 -0.3729  0.3568
10187W        W26261   0.342  14.514  12.889 -0.3581 -0.2895  0.0257
10188W        W26262   4.411  12.890  11.468  0.0993 -0.1740 -0.2464
10189W        W26263   6.202   5.547   5.261 -0.2842 -0.2269  0.0465
10190W        W26264   5.195   3.932   0.354 -0.0495  0.1250 -0.0649
10191W        W26265   5.714  11.064   4.449  0.2192 -0.1025  0.1702
10192W        W26266   6.418  12.734  16.514 -0.0503  0.1586 -0.2237
10193W        W26267  13.214   1.549   1.247  0.2006 -0.0583 -0.0760
10194W        W26268  15.620  10.536   3.885  0.2213 -0.0842  0.1165
10195W        W26269   8.510  14.368   0.112 -0.0761  0.0412  0.2537
10196W        W26270  12.832  13.250  16.465  0.0551 -0.0892 -0.1154
10197W        W26271  10.866  16.679  12.143  0.0059 -0.0695  0.1732
10198W        W26272  15.823  10.516   0.616  0.1586 -0.0427  0.1422
10199W        W26273   6.843  17.327  12.474  0.0810  0.1499 -0.0810
10200W        W26274   4.395   9.382  12.058  0.1043  0.0595 -0.0696
10201W        W26275   6.620   6.954  14.095 -0.1271 -0.1301  0.3679
10202W        W26276   4.433   2.491   4.665 -0.0015 -0.2920  0.2400
10203W        W26277   0.289   2.764   2.618 -0.0704  0.0011 -0.0815
10204W        W26278   0.236   8.233  15.613  0.5546 -0.0079  0.0681
10205W        W26279  14.411  14.895   2.265  0.3144  0.2825  0.1393
10206W        W26280  14.005   8.233   4.779 -0.3437 -0.2968 -0.0373
10207W        W26281  10.807   4.287   0.003 -0.3708 -0.1126 -0.0699
10208W        W26282   1.579  10.908  11.513 -0.0796  0.2083  0.0912
10209W        W26283  15.169  14.237   2.793  0.1226  0.1355  0.1310
10210W        W26284   6.670   0.294  13.179  0.1549 -0.0589  0.0841
10211W        W26285   7.224  10.736  15.978 -0.2161 -0.1541  0.0929
10212W        W26286   1.957  17.290  12.267 -0.2666 -0.0092 -0.0739
10213W        W26287   5.727   1.677  14.798  0.3517 -0.0594  0.1547
10214W        W26288   2.161   4.482  14.385 -0.0698  0.2368  0.4496
10215W        W26289   6.058  10.676   0.237 -0.1076  0.3695 -0.3040
10216W        W26290   2.048  10.695   4.645 -0.0430  0.2552  0.3586
10217W        W26291   0.915   7.610  11.318 -0.1318  0.0026  0.0139
10218W        W26292   3.610   6.654   1.430 -0.0637 -0.4165 -0.0971
10219W        W26293  10.371   2.277  13.880 -0.1085 -0.3275 -0.0174
10220W        W26294   7.720  16.445  13.639 -0.2573 -0.2722 -0.2302
10221W        W26295  15.995   6.794  15.472  0.1513  0.0137 -0.0755
10222W        W26296   7.302   3.503  15.656  0.2540  0.2859 -0.1198
10223W        W26297  14.204  18.129  16.112 -0.0719  0.1475 -0.0269
10224W        W26298   8.678   8.617  12.384 -0.2096 -0.2556 -0.1381
10225W        W26299  17.469  14.843  11.876  0.2260  0.0350  0.4707
10226W        W26300  10.256  11.026   0.899 -0.1518  0.3829  0.2738
10227W        W26301  12.126   6.383   5.596  0.0748  0.1447  0.0549
10228W        W26302   6.953  15.481  14.537 -0.2358  0.2821 -0.1992
10229W        W26303   5.937   0.526   4.808 -0.2212  0.1167 -0.0917
10230W        W26304   5.329   9.093   2.310  0.0855 -0.6561  0.4346
10231W        W26305  14.801   1.479  14.430 -0.2090 -0.0382  0.3342
10232W        W26306   5.201  12.253  15.319 -0.0105  0.0580 -0.3420
10233W        W26307  13.809  10.976   5.564 -0.0345  0.1411 -0.1764
10234W        W26308  12.406  14.035  11.537  0.0092  0.0883 -0.0777
10235W        W26309  11.030  18.213  13.246 -0.1685 -0.1001 -0.0142
10236W        W26310  10.800  13.570   1.747  0.1470 -0.2705 -0.0377
10237W        W26311   7.587  15.301   0.398  0.0075 -0.0226 -0.1195
10238W        W26312   3.818  14.269   4.907  0.3810 -0.2077 -0.1040
10239W        W26313   6.523   1.254  15.116  0.2533 -0.0827  0.0823
10240W        W26314   7.295   6.628   4.497  0.3050  0.2004 -0.1059
10241W        W26315  12.886   3.331   0.773  0.1392  0.1253  0.2333
10242W        W26316   0.536  17.080   2.702 -0.0871  0.2202 -0.0025
10243W        W26317  11.298   8.663  13.176  0.1143  0.2598 -0.3188
10244W        W26318  16.006   2.684  11.812  0.1592 -0.1590  0.2665
10245W        W26319  12.424   4.279  13.751  0.2703 -0.0154 -0.0006
10246W        W26320   2.836  10.633   4.020 -0.1893  0.0300 -0.3433
10247W        W26321  17.602  17.722  12.605 -0.0393  0.0788  0.2741
10248W        W26322  13.832   7.680   1.841  0.0184  0.3644 -0.1497
10249W        W26323  16.353  11.719  12.115 -0.1161 -0.1238  0.1588
10250W        W26324  10.872   1.218   0.819  0.0184  0.3002 -0.1314
10251W        W26325  17.717  11.818  14.019 -0.2203  0.0252  0.1599
10252W        W26326   4.024   3.736  15.129 -0.2484  0.4011 -0.3073
10253W        W26327  16.594  17.114   2.763 -0.0033 -0.2482 -0.1521
10254W        W26328   7.041  12.789  14.304  0.0624 -0.0056 -0.1418
10255W        W26329  12.595  10.946  11.914  0.1800  0.1555  0.1395
10256W        W26330   6.408   2.061  12.653 -0.0232  0.2610 -0.1105
10257W        W26331   6.610  15.089   5.461  0.2869  0.1260  0.4387
10258W        W26332   4.305   8.937  11.656  0.1664  0.0145 -0.3294
10259W        W26333  13.116  15.091   2.771  0.1373  0.2121 -0.0203
10260W        W26334   9.369   7.679  16.082 -0.1694  0.3155  0.3270
10261W        W26335  12.945  10.977   2.544 -0.0453  0.0243 -0.0941
10262W        W26336   0.746   5.017  11.292 -0.0965 -0.0594  0.0475
10263W        W26337   6.599  12.978  14.554  0.2973  0.0215 -0.0933
10264W        W26338  12.065  11.716   4.073 -0.0132 -0.2075 -0.2466
10265W        W26339  12.573  17.301   4.972 -0.0648 -0.1559 -0.0109
10266W        W26340  15.015  13.521   1.272 -0.1147 -0.1437 -0.0949
10267W        W26341   5.755   5.314   3.662 -0.1523 -0.0591  0.1740
10268W        W26342   5.618   5.595  15.866 -0.2225 -0.0154 -0.1172
10269W        W26343  11.925  14.539   5.554  0.2272 -0.1559  0.1757
10270W        W26344  12.563  14.581   6.412  0.0093  0.4820  0.1288
10271W        W26345   2.072   0.147  11.685  0.2411  0.4214  0.0397
10272W        W26346   5.278   5.430  14.163  0.2821 -0.1897 -0.0314
10273W        W26347   3.353   2.397  16.235  0.0878  0.1613  0.0265
10274W        W26348  11.982   2.402   0.325  0.3304 -0.1556  0.1933
10275W        W26349   5.595  16.992   3.376  0.0549  0.0223  0.0945
10276W        W26350   8.884   2.000  15.472 -0.0473 -0.2555  0.0159
10277W        W26351  13.826  10.240   2.713 -0.1623 -0.0150  0.2018
10278W        W26352  10.376  17.249  12.493  0.2227  0.0967  0.0409
10279W        W26353   5.709  12.196   4.158 -0.1872  0.1566 -0.3337
10280W        W26354  11.358   4.776   2.321  0.0312  0.3924  0.3071
10281W        W26355   9.106  13.542   2.899 -0.2419  0.0057 -0.5129
10282W        W26356   0.254   8.922  16.282 -0.0869  0.1177 -0.1851
10283W        W26357   7.528   9.149  12.875  0.0112  0.1416 -0.3856
10284W        W26358  12.526   6.962  15.890  0.0019  0.1649  0.3390
10285W        W26359  17.199  15.289   5.042  0.1672 -0.0178 -0.0441
10286W        W26360   6.556  11.228  14.737 -0.2525 -0.1709 -0.1850
10287W        W26361  15.885   8.660   1.818 -0.1854  0.0445  0.3477
10288W        W26362   8.823   7.619  15.797  0.0128 -0.0360  0.2995
10289W        W26363  16.960  15.175   4.283 -0.1030 -0.3265 -0.0536
10290W        W26364  14.913   7.038  14.783  0.0920  0.1115 -0.0394
10291W        W26365   2.242   3.597   5.085 -0.0137  0.1113  0.1041
10292W        W26366  12.393   0.665   5.710  0.3299  0.1108 -0.3190
10293W        W26367  12.517   5.571  16.449 -0.0537 -0.1264 -0.2734
10294W        W26368   3.619  17.685   4.973 -0.0668 -0.2802  0.0243
10295W        W26369  18.106   2.123   4.776  0.0861 -0.4159 -0.3455
10296W        W26370  11.082  14.362   1.784 -0.1803 -0.3037  0.0284
10297W        W26371   6.400  16.660   0.633 -0.0392 -0.1275  0.1947
10298W        W26372  15.412   4.577  14.237 -0.0997 -0.1505 -0.4785
10299W        W26373  12.535   8.642   1.397  0.2350  0.2535  0.1585
10300W        W26374  13.538  12.003   4.920  0.0779 -0.1891 -0.0694
10301W        W26375  11.728   5.373  16.100 -0.0409  0.0550 -0.0453
10302W        W26376  14.773  10.314   3.206  0.2795  0.1957  0.0661
10303W        W26377  15.586   6.820   4.870 -0.2903  0.2165 -0.0329
10304W        W26378  16.910  12.025  11.676  0.0973  0.1757 -0.1991
10305W        W26379   3.417   3.144  13.755 -0.3706 -0.1445 -0.1075
10306W        W26380  10.667   6.873   5.420  0.2741 -0.0129 -0.4473
10307W        W26381  11.625  15.911  12.897  0.0153  0.0943  0.2928
10308W        W26382  10.751   9.746   1.839 -0.5255  0.2588 -0.1027
10309W        W26383   3.326  14.334   3.367 -0.1279  0.0786  0.2252
10310W        W26384   9.392  15.140   1.788 -0.0045  0.1254  0.1024
10311W        W26385   4.084  14.664  12.075 -0.3524 -0.0035  0.1207
10312W        W26386  12.103  15.265  16.218 -0.1978 -0.0553  0.0489
10313W        W26387   6.796  10.485  16.159  0.0630 -0.0552  0.1286
10314W        W26388   0.620  10.225  13.716  0.1050 -0.2842  0.2044
10315W        W26389  11.576   7.160   3.445  0.1497 -0.1936 -0.0987
10316W        W26390   4.577  13.618  15.284 -0.0002 -0.1523 -0.1147
10317W        W26391   4.681  13.950  13.278 -0.1644 -0.1779  0.2933
10318W        W26392   4.649  13.629   1.315  0.0967 -0.0100  0.4590
10319W        W26393   7.294  14.146   3.449 -0.0963  0.1145 -0.0356
10320W        W26394   2.282   1.029  14.809 -0.2823 -0.0918 -0.0359
10321W        W26395   7.774   8.699   3.390  0.2576 -0.1513  0.4713
10322W        W26396   0.833  13.052   5.442 -0.2378 -0.5014 -0.4970
10323W        W26397  12.534   1.932  12.888 -0.0167 -0.1310 -0.1878
10324W        W26398   4.907   5.379  12.318 -0.0114 -0.4526  0.3966
10325W        W26399  18.142  13.259   2.086 -0.1549  0.0177  0.0710
10326W        W26400   5.027   0.565   3.257 -0.1891  0.0737  0.0038
10327W        W26401   9.191   7.512   2.495 -0.2382  0.1105 -0.0384
10328W        W26402  16.807   8.488   1.824 -0.5557 -0.1240  0.2457
10329W        W26403   6.944   8.935  12.973  0.0146 -0.1324  0.3718
10330W        W26404   5.517  11.276  15.188 -0.0162  0.1108 -0.1714
10331W        W26405   4.685   2.988  14.740  0.0935  0.0980  0.0752
10332W        W26406   6.948  12.843  12.579 -0.1868 -0.1126  0.5849
10333W        W26407  17.015  13.944   5.705  0.0780 -0.2952  0.2726
10334W        W26408  17.751  12.367  13.673  0.0297  0.1745 -0.1717
10335W        W26409  13.437  14.200  14.759  0.0696  0.1625  0.0604
10336W        W26410  12.067  13.513  12.180 -0.1823  0.0992 -0.0743
10337W        W26411   4.975   6.365  16.008 -0.0141  0.3301 -0.1570
10338W        W26412   8.462  16.283  11.579 -0.1246 -0.2320  0.1033
10339W        W26413   1.164   2.475  15.289  0.3221 -0.0893  0.1194
10340W        W26414   7.998   8.540   3.011  0.1140  0.0417  0.1744
10341W        W26415   9.882  13.831  12.747  0.0125 -0.2071 -0.0862
10342W        W26416  15.192   9.308   0.867  0.2882 -0.5678  0.0235
10343W        W26417   0.074   2.316   2.915 -0.0314 -0.0210 -0.2903
10344W        W26418   9.513   0.945   1.436  0.1757  0.1348  0.1116
10345W        W26419   5.457   4.001  14.070 -0.1204 -0.0077  0.2011
10346W        W26420   4.655   8.898  12.091  0.0309 -0.2417  0.0381
10347W        W26421   5.910   8.397   0.836 -0.3650 -0.3307 -0.2486
10348W        W26422  15.139   3.963   3.815  0.1095 -0.2044  0.2048
10349W        W26423  15.879   7.494  15.523 -0.3773 -0.1913  0.0891
10350W        W26424   6.316  17.520  15.981  0.0782 -0.2068 -0.2127
10351W        W26425  12.092  15.368   3.873  0.0989 -0.2154  0.0136
10352W        W26426   9.350   8.239  13.095 -0.0014  0.0999  0.0297
10353W        W26427   5.319  17.367  11.689  0.0677 -0.0198 -0.0626
10354W        W26428   4.361  17.968   0.022  0.0418 -0.1405  0.0795
10355W        W26429  13.330  18.162  11.191  0.0614 -0.1419 -0.0973
10356W        W26430   9.165   3.884  12.352 -0.0415  0.2191 -0.1551
10357W        W26431   0.053   3.041   4.204  0.1677  0.2083  0.1278
10358W        W26432   5.217  11.571   4.925 -0.1670  0.0656 -0.0089
10359W        W26433  15.465  12.553  13.696  0.2328 -0.0238  0.0107
10360W        W26434   9.797   3.233   1.491 -0.0348  0.1965  0.1011
10361W        W26435  17.792   4.624  12.570 -0.1723  0.1559 -0.1240
10362W        W26436  12.349   8.497  16.451  0.0846  0.1322 -0.0559
10363W        W26437  12.749  11.161  15.438  0.2621 -0.0583  0.0103
10364W        W26438  14.121   6.997   3.073  0.1230 -0.1998 -0.0759
10365W        W26439   0.650   1.434  15.864  0.0719  0.0242 -0.0209
10366W        W26440   6.324  13.972  11.386  0.0203 -0.0428  0.1010
10367W        W26441  12.852  15.657  15.877  0.2044  0.0404  0.0469
10368W        W26442   7.240   0.460  16.057 -0.1541  0.0697  0.0971
10369W        W26443   4.983  11.800  12.637  0.0827 -0.0501  0.0079
10370W        W26444   7.828   5.599   5.791  0.1274  0.1357 -0.2519
10371W        W26445   0.595  15.789  11.990 -0.1217  0.2443  0.1020
10372W        W26446  12.824   7.475   2.134  0.0437 -0.2558 -0.2637
10373W        W26447  11.708   6.750   4.414  0.2841 -0.0855  0.1100
10374W        W26448  11.101  11.319   2.735 -0.0555  0.2365 -0.1822
10375W        W26449  12.746  16.482  12.447 -0.0353  0.1229  0.1024
10376W        W26450  17.741  14.083  13.724 -0.0129  0.1679 -0.4188
10377W        W26451  14.812  11.291  14.360  0.0503 -0.1265  0.2239
10378W        W26452  14.732   1.691   4.193 -0.0727 -0.2667 -0.0197
10379W        W26453  11.797   1.398  14.515  0.0342 -0.3471  0.0707
10380W        W26454  16.160   9.900   4.269 -0.1926 -0.3073  0.0073
10381W        W26455   7.786  12.604  16.368  0.0183 -0.0749 -0.0693
10382W        W26456  10.127  12.793   5.587  0.1114 -0.2115  0.0427
10383W        W26457   3.809   0.443  12.972 -0.1951 -0.0288 -0.1865
10384W        W26458  11.272  17.822   1.205 -0.1620  0.0471 -0.2127
10385W        W26459   5.171   4.692  14.770  0.0412  0.0369  0.0163
10386W        W26460  10.805   4.883  12.182 -0.0374 -0.0016 -0.1238
10387W        W26461  17.638  11.895  12.127  0.3014 -0.1445 -0.1490
10388W        W26462   1.749   6.148   3.165  0.1268 -0.2455 -0.2965
10389W        W26463  11.313   9.573  12.586 -0.1944 -0.2664 -0.1365
10390W        W26464   6.771   0.842   3.658  0.0301  0.1321 -0.1573
10391W        W26465  14.961  16.810   4.368  0.2754  0.2670  0.2337
10392W        W26466   4.592  14.979  11.315  0.2380 -0.2627  0.4334
10393W        W26467   5.756   9.408  16.445  0.0765  0.2017  0.0961
10394W        W26468  17.689  17.895   1.323 -0.0592  0.1408 -0.1319
10395W        W26469  14.774   6.491   1.960 -0.4701  0.5166 -0.0546
10396W        W26470   5.720   4.128  12.098 -0.2906  0.1532  0.0982
10397W        W26471  16.963  11.272   1.432  0.2752 -0.0214  0.0382
10398W        W26472   6.677  12.053   3.991  0.2366 -0.5855 -0.0409
10399W        W26473  13.959  16.404   5.250  0.0407  0.0115  0.0299
10400W        W26474  14.040  10.433   6.416 -0.0067  0.1198  0.1996
10401W        W26475   3.678  13.354   3.200  0.1983  0.0470 -0.1599
10402W        W26476  17.252  12.488  11.907  0.2080 -0.0555  0.0205
10403W        W26477   0.808   0.897  10.341  0.1090 -0.1501 -0.0180
10404W        W26478   0.962  14.083  14.359 -0.0256 -0.0161  0.1591
10405W        W26479  14.449  10.290   3.569 -0.7039  0.2357  0.0350
10406W        W26480  12.222  13.679   0.136 -0.2766  0.2711  0.1383
10407W        W26481   6.235  14.460  15.963  0.0854 -0.1052 -0.2304
10408W        W26482   2.439  15.816   3.649 -0.2072  0.0051 -0.0854
10409W        W26483   1.825  13.011  15.079 -0.0448 -0.1963 -0.3070
10410W        W26484   7.138  16.437  11.035  0.1042 -0.2090  0.1797
10411W        W26485   9.319   4.197  16.293 -0.1532  0.2206  0.0420
10412W        W26486   6.445   0.478   3.372 -0.0992 -0.1272 -0.0783
10413W        W26487   1.214   4.704  14.528 -0.4236  0.2243  0.1192
10414W        W26488  12.420   1.262  15.284 -0.1376  0.2838  0.2469
10415W        W26489   2.740  13.010   5.543  0.0664 -0.2391  0.1747
10416W        W26490   5.765  17.744  16.031 -0.1281 -0.2407  0.0985
10417W        W26491   7.592   9.124   1.204  0.0284 -0.0790 -0.4042
10418W        W26492   4.425  13.614  14.604 -0.1101  0.0717 -0.1449
10419W        W26493  17.352   0.588  16.323 -0.0624  0.2500 -0.0933
10420W        W26494   1.169   3.106   0.938  0.0452  0.0199  0.0507
10421W        W26495   1.319  12.928  11.467 -0.2666 -0.1941  0.1943
10422W        W26496   6.142   1.949   0.848 -0.1099 -0.1558  0.0252
10423W        W26497  15.747   7.438   3.479 -0.0519  0.1511 -0.0412
10424W        W26498   9.054   9.730  15.929  0.0268  0.1440 -0.1822
10425W        W26499  10.224   5.035   0.424 -0.0415 -0.0320  0.0656
10426W        W26500   2.284  11.433  13.091 -0.1074 -0.0350  0.0349
10427W        W26501   7.595   4.229   4.736 -0.1674  0.2151 -0.1243
10428W        W26502   3.499  11.907  14.551  0.3827 -0.1623  0.2915
10429W        W26503   3.030  11.309  10.480 -0.0428 -0.4593 -0.0449
10430W        W26504  17.204  14.336   4.798 -0.1776  0.0077  0.1464
10431W        W26505   2.441   0.955  15.890 -0.0815 -0.0298  0.2718
10432W        W26506   3.300  15.011   1.371 -0.1071  0.1600 -0.2962
10433W        W26507   5.983   2.591   2.937 -0.2408 -0.0001  0.2553
10434W        W26508   6.397  10.458  11.933 -0.1696 -0.0485 -0.0626
10435W        W26509   1.559   1.469  16.364  0.1257  0.0017  0.0568
10436W        W26510   1.068   4.936  12.599  0.2772  0.4345  0.1912
10437W        W26511   0.812  14.999  14.863  0.1576 -0.2118  0.0319
10438W        W26512  16.373  10.387   5.579 -0.0580 -0.1106  0.0758
10439W        W26513   5.354   0.510   1.593 -0.0064  0.1047 -0.0042
10440W        W26514  11.842  12.157   5.068  0.3005 -0.0225  0.3784
10441W        W26515  14.814  11.898   3.860  0.5118  0.0368 -0.0201
10442W        W26516   3.321   5.974  11.710 -0.0451  0.1578 -0.0642
10443W        W26517   6.550  18.020  15.108 -0.0935 -0.1771 -0.3320
10444W        W26518   3.481   3.966  15.559  0.0935  0.1061 -0.0869
10445W        W26519   8.788  16.956   5.579  0.0541  0.2186  0.0392
10446W        W26520   1.919  15.936  15.851  0.2535  0.2354  0.0820
10447W        W26521  16.312  15.724  14.425 -0.2475  0.1150  0.2406
10448W        W26522   9.922   4.544   3.081 -0.0459  0.2703 -0.0734
10449W        W26523  12.861  15.237  15.100 -0.2576 -0.0185  0.3940
10450W        W26524  11.002   5.761  15.318  0.1849  0.2706 -0.1980
10451W        W26525   9.892  14.062  14.138 -0.1104 -0.0631  0.1730
10452W        W26526  12.850   0.629   1.466 -0.0144  0.2366 -0.2218
10453W        W26527   9.896   3.777   3.703  0.2783  0.1890 -0.0017
10454W        W26528  17.526   1.957  14.790  0.1334 -0.0498 -0.0037
10455W        W26529  10.192  18.070  14.432  0.2270 -0.1708 -0.4704
10456W        W26530   8.595   5.582   0.103 -0.0217 -0.4303  0.2254
10457W        W26531   7.574  12.859   4.929  0.0819  0.1161  0.0054
10458W        W26532  15.149   8.815   1.069 -0.2985 -0.0316 -0.1051
10459W        W26533   8.013   9.157   4.805 -0.3055  0.1597  0.0536
10460W        W26534   6.145  12.493   3.615  0.1085  0.1558 -0.0694
10461W        W26535  16.844   5.458   0.538  0.1324  0.1485  0.3129
10462W        W26536  17.446   9.001   5.463 -0.1369 -0.1309  0.2101
10463W        W26537   5.055  10.148   1.563  0.2040 -0.5197  0.3274
10464W        W26538   8.238  15.361  12.614  0.2068  0.3545  0.0423
10465W        W26539  18.160   4.815   5.570  0.3778  0.3516  0.1942
10466W        W26540   2.462  11.444  14.650  0.1979 -0.0267  0.2602
10467W        W26541   3.787   3.010   1.388 -0.2878 -0.0877  0.1063
10468W        W26542   4.419  13.134  14.258 -0.2893  0.0913 -0.1601
10469W        W26543  12.171   5.277   1.212  0.0872  0.0814  0.0748
10470W        W26544  17.420   0.885  15.933  0.1413  0.1036 -0.0492
10471W        W26545   7.366  13.121   4.525 -0.1090  0.4810 -0.0277
10472W        W26546   8.036  10.098  13.877  0.3147 -0.0456  0.1614
10473W        W26547   1.788  12.133  13.649  0.2358 -0.0816  0.0770
10474W        W26548  12.893  12.243  13.780  0.0934 -0.1580  0.0969
10475W        W26549   2.890   2.410  13.482  0.0579  0.1783  0.4091
10476W        W26550   2.466  10.625   4.358  0.0725  0.3678  0.3786
10477W        W26551   5.297   9.474   3.848  0.1049  0.0469  0.2275
10478W        W26552  15.866  10.561   3.098  0.1719 -0.1661  0.2142
10479W        W26553   0.253  17.176  16.485 -0.2847 -0.0433 -0.2144
10480W        W26554   7.945   9.164   1.995  0.1302 -0.0203  0.4514
10481W        W26555  15.809   6.805  12.019 -0.1262 -0.0147 -0.2295
10482W        W26556   0.078   5.129   9.805 -0.0565 -0.0539  0.1339
10483W        W26557   6.752   6.472  13.831  0.1814  0.0660  0.1017
10484W        W26558   3.451   3.551   4.217 -0.0773 -0.1993  0.0021
10485W        W26559   7.406  15.472  13.177 -0.0888  0.1136 -0.0653
10486W        W26560   6.896   0.160   2.658 -0.0049 -0.0368 -0.0276
10487W        W26561   4.672  10.877   5.342  0.1250  0.0193 -0.4017
10488W        W26562  16.007   4.009   0.094  0.2690 -0.2925  0.1392
10489W        W26563  17.349   7.824  16.252  0.1900  0.0083 -0.0020
10490W        W26564  14.444  14.436  15.136  0.0947  0.2290 -0.1248
10491W        W26565   4.701   9.516   3.056  0.1499  0.0710  0.4740
10492W        W26566   8.586   3.047   0.878  0.1703 -0.1060 -0.0079
10493W        W26567   5.060  16.014   4.335 -0.2563 -0.0263  0.0171
10494W        W26568   4.645   7.989  15.617  0.0179  0.4502  0.0445
10495W        W26569   0.194  12.401  15.063 -0.5215 -0.1578  0.2205
10496W        W26570   0.918   5.176   6.212  0.0458  0.0626 -0.2014
10497W        W26571  15.051  11.598   4.214 -0.1335 -0.0154  0.1685
10498W        W26572  11.822   3.666   0.347 -0.1898 -0.2698  0.2900
10499W        W26573  10.752  10.151  14.149 -0.1248 -0.3073  0.2927
10500W        W26574   8.888  15.155  14.454 -0.0953 -0.2155  0.0791
10501W        W26575   8.519  13.777   0.309  0.0549 -0.4194 -0.4092
10502W        W26576   1.731   3.354   5.319 -0.0816 -0.1237  0.2564
10503W        W26577   4.368   9.416   5.340 -0.3145  0.2217 -0.2030
10504W        W26578   3.299   9.450   0.555  0.0857 -0.1583  0.1158
10505W        W26579   6.438   1.074   2.729  0.3551 -0.0959 -0.1926
10506W        W26580  10.742   4.933  13.382 -0.1494  0.0937  0.3210
10507W        W26581   2.741  13.940   1.236 -0.2712 -0.3336 -0.3341
10508W        W26582   7.892   3.338   0.264 -0.2049  0.2323 -0.0007
10509W        W26583   2.635  15.816   0.412 -0.1242  0.0390  0.0807
10510W        W26584  15.759  15.579  11.262 -0.3422  0.1007  0.1618
10511W        W26585   6.737   5.610   5.101 -0.0194 -0.0103 -0.0144
10512W        W26586  12.282   7.100   3.312  0.3361  0.0748 -0.1325
10513W        W26587  15.290   1.536  13.115  0.1671 -0.1081  0.2017
10514W        W26588   2.235  15.430  14.340  0.2144  0.0041  0.0932
10515W        W26589  16.145  15.058  11.856 -0.1051  0.0022  0.1327
10516W        W26590  14.748  15.312   5.067  0.0671 -0.1509 -0.0746
10517W        W26591  11.471  15.717  13.388 -0.5360  0.0352 -0.0998
10518W        W26592   0.769  11.554  12.503  0.3254 -0.1615  0.1871
10519W        W26593  12.021   9.653   3.947 -0.0261  0.1171  0.0264
10520W        W26594   4.659   9.714  15.677 -0.5876  0.0355  0.0123
10521W        W26595   6.717   1.635   2.132  0.0724  0.2267 -0.0965
10522W        W26596   4.153   1.322   6.191  0.0593  0.2603  0.1403
10523W        W26597  16.984   4.353   3.401 -0.2047 -0.2292 -0.1288
10524W        W26598   0.968   1.983  13.539  0.0536  0.2667  0.3320
10525W        W26599  10.615   2.762   5.829  0.0412  0.0813  0.5812
10526W        W26600  14.850   1.632   0.283  0.0439 -0.1326 -0.0593
10527W        W26601   7.491   8.863   4.038 -0.2968 -0.0792  0.0463
10528W        W26602  17.665   4.164  12.388  0.1465  0.1515  0.0803
10529W        W26603  10.049  17.159   2.441 -0.2400 -0.2255  0.0018
10530W        W26604   6.756  15.111   1.043 -0.3249 -0.0412  0.2270
10531W        W26605  11.758  12.666   1.285  0.4799  0.1267  0.0640
10532W        W26606   0.751  17.578   3.599  0.0983 -0.2860 -0.1010
10533W        W26607   8.805   9.389   4.434 -0.1427 -0.2363 -0.2678
10534W        W26608   1.918   0.880   4.462 -0.2117 -0.2848  0.0055
10535W        W26609   2.197   4.380   3.291  0.0404 -0.1120  0.1177
10536W        W26610   9.629  16.083  13.508  0.0285  0.1625  0.4657
10537W        W26611   1.845  13.202   1.933 -0.0979 -0.0196 -0.2566
10538W        W26612   5.215   6.784  16.113 -0.1360  0.1459  0.2599
10539W        W26613  15.706  17.479  15.059 -0.1593  0.2759 -0.0876
10540W        W26614   9.794   0.114   4.379 -0.0408 -0.2725 -0.1609
10541W        W26615   7.144   6.570  14.256  0.1839 -0.3610  0.1825
10542W        W26616   8.774  11.606   3.415 -0.1593  0.2318 -0.0211
10543W        W26617   0.579   9.219   5.621 -0.0641 -0.1759  0.1971
10544W        W26618  13.314   6.984  15.858 -0.0485 -0.1095  0.0041
10545W        W26619  15.234  11.150   1.220  0.0574 -0.0998  0.1525
10546W        W26620  14.432  12.258   2.447 -0.0461 -0.0888 -0.0156
10547W        W26621   5.141  17.661   0.078  0.4919 -0.3873 -0.0454
10548W        W26622  17.930   7.291   3.126  0.1693 -0.0116 -0.0237
10549W        W26623   8.532   3.908   1.890 -0.0132 -0.0401 -0.0147
10550W        W26624   1.557   3.964  13.899  0.0634  0.1236  0.0404
10551W        W26625   2.669  17.083   0.114 -0.1561  0.0430 -0.6168
10552W        W26626  11.181   2.061  11.755 -0.0946  0.0819 -0.1143
10553W        W26627  17.639   6.042  11.556  0.3069 -0.1011 -0.1205
10554W        W26628  12.337   5.317  13.241 -0.3233  0.0207  0.2535
10555W        W26629   9.839  11.332   1.827 -0.0584  0.1543  0.1090
10556W        W26630  10.400   3.191  13.486 -0.1692  0.1022 -0.2492
10557W        W26631  16.592  15.807  15.497 -0.2605  0.0787 -0.4121
10558W        W26632   5.896   0.828   3.984  0.1493  0.1091 -0.1042
10559W        W26633  12.369   4.580  12.762 -0.1275  0.0965 -0.0034
10560W        W26634   0.916   2.661  13.131 -0.3352 -0.1313 -0.2853
10561W        W26635  17.711  10.808  11.904 -0.1588 -0.1369 -0.1070
10562W        W26636   8.902   0.543   4.620  0.2405 -0.0017  0.1183
10563W        W26637   5.651   0.258   4.509 -0.2820 -0.1406 -0.1581
10564W        W26638   3.606  12.769   1.117 -0.2076  0.3625 -0.1016
10565W        W26639   3.722   0.712   0.092 -0.3271  0.1630  0.2170
10566W        W26640   3.544  11.154  13.714  0.1447  0.1370  0.1998
10567W        W26641  11.656  15.541  14.970  0.1119  0.1530  0.0402
10568W        W26642  17.715  15.131  15.173 -0.1191  0.0648 -0.2116
10569W        W26643   2.425   1.703   1.846  0.1482  0.2195  0.0938
10570W        W26644  17.711  13.566   1.178  0.3365 -0.0717  0.0496
10571W        W26645  15.312   7.649   0.378  0.2329  0.1341 -0.2342
10572W        W26646  14.688  17.097  11.909  0.0312  0.1003 -0.3389
10573W        W26647   5.033  11.256   5.502  0.2444  0.2144 -0.1011
10574W        W26648   0.539  12.248   1.048 -0.1501 -0.1138  0.2207
10575W        W26649   7.145   9.142   2.444  0.2037  0.0301 -0.1416
10576W        W26650  17.651   3.592  14.828  0.1074  0.1304  0.4157
10577W        W26651   9.117   8.468   4.623  0.2703  0.0623 -0.0325
10578W        W26652  13.502   9.206  15.522  0.0448 -0.0627  0.1358
10579W        W26653   1.238   9.729  14.205 -0.1927  0.0288 -0.0916
10580W        W26654   4.850   8.389   3.565 -0.0203 -0.1347 -0.0440
10581W        W26655  15.713  11.518   0.369 -0.0406 -0.1483 -0.4744
10582W        W26656  11.066  14.761  12.328  0.0761  0.0906  0.1768
10583W        W26657   0.496   6.061   1.412  0.0047  0.1840 -0.3150
10584W        W26658   0.454   6.687  12.991 -0.2852  0.0421 -0.1645
10585W        W26659  16.481  12.089  13.327 -0.3158 -0.0534  0.0172
10586W        W26660  15.685   6.452  16.438 -0.0935  0.2100  0.1230
10587W        W26661  11.676   7.078  12.231  0.1619  0.0481 -0.2877
10588W        W26662  11.229   8.561   5.497  0.3390 -0.1436  0.2135
10589W        W26663   3.579  11.912  11.511  0.1749  0.3439 -0.3052
10590W        W26664   9.871   7.273  12.253  0.4450  0.1605 -0.1164
10591W        W26665  16.701   2.956   1.648  0.0171  0.1143 -0.1408
10592W        W26666  15.015  12.866   4.136 -0.0259  0.1122 -0.4044
10593W        W26667  14.944   6.246   1.568 -0.3107 -0.1069  0.1856
10594W        W26668  14.484  13.368  15.309 -0.2734  0.0295  0.3339
10595W        W26669   1.756   6.490   1.355  0.0319  0.0596  0.1069
10596W        W26670  16.079  12.844   0.237 -0.1244  0.1241  0.0163
10597W        W26671  17.526  15.058   0.097  0.2125  0.0270  0.1781
10598W        W26672  13.777   2.156   3.472 -0.2139  0.1557  0.1760
10599W        W26673   1.556   5.266  13.155  0.0044 -0.1413  0.0296
10600W        W26674   8.558   4.901   0.870  0.0997  0.4420 -0.0520
10601W        W26675  18.077  13.872   4.361  0.0582  0.2890  0.4253
10602W        W26676  14.059  17.159  16.249 -0.1112 -0.3237 -0.0379
10603W        W26677  14.519  12.917  15.621 -0.1468 -0.0348  0.0821
10604W        W26678   0.330   8.844   2.540 -0.1785  0.0130 -0.0349
10605W        W26679   3.629  11.264   3.633  0.0994 -0.1542 -0.2249
10606W        W26680  17.079   1.944   4.686 -0.1297  0.1554 -0.1363
10607W        W26681  17.323  10.029  11.926 -0.2067  0.2293 -0.3136
10608W        W26682   2.551   6.084   4.745  0.0459  0.1539  0.0984
10609W        W26683  15.803  14.176  14.567  0.0332 -0.1613  0.0344
10610W        W26684  12.596  15.454  11.562 -0.2084 -0.1359 -0.1727
10611W        W26685   3.353   6.931   0.591  0.0728 -0.0792 -0.1864
10612W        W26686  11.007  10.387  12.548 -0.1731 -0.0391 -0.0512
10613W        W26687   1.265  13.660   4.919  0.2425 -0.1899  0.0109
10614W        W26688   4.116  13.011  11.881 -0.0333 -0.1373 -0.0986
10615W        W26689  15.161   2.195   2.345 -0.2763  0.2393  0.2916
10616W        W26690   2.488   4.407   3.665  0.0068 -0.1100  0.0304
10617W        W26691  14.380   3.586  14.331 -0.2036  0.2824 -0.1630
10618W        W26692   3.956   7.897  14.993  0.0611  0.0324 -0.0924
10619W        W26693  14.877   8.233  16.321 -0.0210  0.0511 -0.2062
10620W        W26694  13.740   3.170   1.941 -0.3122 -0.0966  0.0540
10621W        W26695   1.623  10.665  12.030  0.1573 -0.0765  0.0487
10622W        W26696   0.214   7.027   1.415  0.0509 -0.1074 -0.2391
10623W        W26697   6.994   0.213   1.681 -0.0212 -0.2004  0.0189
10624W        W26698  13.924  16.709   1.404 -0.1246  0.1532  0.2942
10625W        W26699   9.609   3.538   5.648 -0.0077  0.1020 -0.0080
10626W        W26700   4.834  16.091   2.405 -0.3149 -0.0403  0.1328
10627W        W26701  17.866   9.771   3.150  0.0078 -0.2160  0.1572
10628W        W26702  15.455   3.267   2.196 -0.0462  0.0853 -0.0304
10629W        W26703   0.451   3.819   1.901 -0.1176  0.3404 -0.1584
10630W        W26704  14.862  14.796  14.183 -0.1090 -0.0167  0.2139
10631W        W26705   6.456  17.024   2.498 -0.5958 -0.0551 -0.1858
10632W        W26706   0.960  10.022   1.320  0.0539  0.0042 -0.0720
10633W        W26707   3.559   1.711  14.556  0.1642 -0.0691 -0.5174
10634W        W26708   5.620   0.308   0.956  0.1570 -0.0281 -0.0398
10635W        W26709   3.063   8.179   3.133 -0.0620 -0.1582 -0.1895
10636W        W26710   5.529  16.863  13.315 -0.0760  0.0790  0.1904
10637W        W26711   4.508  14.248   0.944 -0.0892  0.0381  0.1614
10638W        W26712   8.865   8.886   0.643 -0.2473  0.0538  0.1463
10639W        W26713  11.260  16.203   5.038 -0.1711 -0.0015  0.0816
10640W        W26714   9.295   5.306   5.781 -0.2385 -0.0160 -0.0676
10641W        W26715  10.891  10.373   2.989  0.1387 -0.2125  0.0182
10642W        W26716   9.967   9.746   0.282  0.0737 -0.0856 -0.3191
10643W        W26717   1.941   0.575  14.098 -0.0634 -0.1451 -0.0282
10644W        W26718  15.144   5.775  11.845  0.2557 -0.1714 -0.2517
10645W        W26719   9.766  10.514  11.989  0.0939  0.5451 -0.0345
10646W        W26720   4.513   0.366   0.045 -0.1004  0.0604 -0.2051
10647W        W26721   6.193   8.715  16.353  0.0770  0.0415 -0.0521
10648W        W26722  14.679   4.174  16.495  0.0398  0.2613 -0.0332
10649W        W26723  16.845  14.023   1.615  0.0356  0.0845 -0.1097
10650W        W26724   3.542   2.284   5.162 -0.0737  0.0871  0.1605
10651W        W26725   5.931  14.213  14.047  0.2388 -0.2584  0.1027
10652W        W26726   4.224  18.143   2.689 -0.0957 -0.0405 -0.2147
10653W        W26727   8.467   7.924   0.864  0.0310  0.1535 -0.1166
10654W        W26728  13.409   8.618   3.235  0.1578 -0.0798  0.2160
10655W        W26729  10.216  14.628  15.401 -0.1259  0.0632  0.0591
10656W        W26730  16.670   0.850  14.182  0.1311  0.0237  0.1097
10657W        W26731   9.095   8.436   5.296 -0.0493 -0.0042 -0.0470
10658W        W26732   1.919   6.209  13.384  0.4281 -0.0781 -0.3166
10659W        W26733   7.235   7.873   4.913  0.2028 -0.0432  0.0048
10660W        W26734   9.985   2.288   5.863 -0.3121  0.1383 -0.1534
10661W        W26735  16.495  12.903   3.224  0.1237  0.1314 -0.0025
10662W        W26736  15.391   8.670   6.164 -0.4283  0.1459 -0.1746
10663W        W26737   2.257  16.853  12.327  0.0336  0.0141 -0.1196
10664W        W26738   7.043   4.442  12.634 -0.1915  0.1779 -0.0410
10665W        W26739   3.694  12.402  11.338  0.1639 -0.1750  0.2132
10666W        W26740  15.523   1.071  15.725  0.2028 -0.0115 -0.0371
10667W        W26741  15.942   0.169  14.155  0.0383  0.1441 -0.0054
10668W        W26742  13.550   1.908   0.851  0.3435  0.1865  0.0168
10669W        W26743   1.874   1.834   1.855 -0.0833  0.0628 -0.2835
10670W        W26744   4.677  13.198   0.493 -0.1343  0.1750  0.0346
10671W        W26745   4.791  17.214  12.458  0.2179 -0.0046 -0.0595
10672W        W26746   0.892   0.176  14.956  0.1341 -0.3238  0.1961
10673W        W26747  15.301  12.386   4.807 -0.0357  0.0524  0.0185
10674W        W26748   1.180   1.931   1.052 -0.1016 -0.0771  0.4347
10675W        W26749   2.361   9.268  13.307 -0.2057 -0.3142 -0.0977
10676W        W26750   3.342  12.065   0.216  0.1839  0.1764 -0.1883
10677W        W26751   7.761  11.547  13.538 -0.1125 -0.0044  0.1781
10678W        W26752  11.599   6.465   5.881 -0.1115  0.1768  0.1063
10679W        W26753   5.491   6.982  15.264  0.3169 -0.1423  0.3213
10680W        W26754   1.730   8.434  13.110 -0.0930 -0.0283 -0.0652
10681W        W26755   0.071   6.785   3.765 -0.0686  0.1174 -0.1326
10682W        W26756  11.777  13.042   3.526 -0.1254 -0.4753 -0.1003
10683W        W26757   9.906   5.545  14.197  0.1130 -0.0310 -0.0126
10684W        W26758  10.712  14.852  16.386  0.2685 -0.0460  0.2239
10685W        W26759  14.977   6.412   4.100  0.2028  0.0946  0.1449
10686W        W26760   3.285   3.924   1.539 -0.2048 -0.0742  0.0617
10687W        W26761   3.701   0.680  12.305 -0.1771 -0.3401  0.2901
10688W        W26762  14.447   1.904   5.773  0.0385 -0.0727 -0.1346
10689W        W26763  11.289   5.029  12.250  0.0127  0.2686 -0.0098
10690W        W26764  15.537  11.966   2.272  0.0509 -0.0613 -0.0540
10691W        W26765  11.978   7.992  15.709 -0.1725 -0.1710 -0.4333
10692W        W26766  13.428  12.119  13.548 -0.2716  0.1544  0.0428
10693W        W26767  14.514   3.808   2.349  0.1967  0.0053  0.2498
10694W        W26768  18.076   3.440  13.900 -0.1049 -0.1672  0.0889
10695W        W26769  14.653   5.291  12.661 -0.2600  0.1129 -0.0993
10696W        W26770  11.395   5.636   5.660  0.3185 -0.0186 -0.2363
10697W        W26771  17.252   6.479  16.126  0.1126 -0.0754  0.1443
10698W        W26772   5.086   8.058   4.466 -0.0418 -0.2237 -0.1671
10699W        W26773  15.447  16.480   0.466 -0.1907  0.0608 -0.2285
10700W        W26774   6.194  13.298  10.962 -0.0849  0.0776  0.1520
10701W        W26775  15.566   8.691   1.456 -0.3291 -0.1694  0.2813
10702W        W26776   8.788  14.636  12.823 -0.3990 -0.1629  0.0448
10703W        W26777   1.600  12.144  11.943  0.0704 -0.1222 -0.2329
10704W        W26778  13.990   3.986   0.383 -0.0415 -0.0577 -0.0698
10705W        W26779   4.813  18.115  14.290 -0.3392  0.0716  0.0222
10706W        W26780  16.534   1.059   2.014 -0.1321  0.0297 -0.3728
10707W        W26781   0.508  14.116  12.081  0.0119 -0.3598  0.0718
10708W        W26782  10.071  13.009  16.103  0.1828  0.0628  0.1078
10709W        W26783   9.002   1.635   5.197 -0.4253  0.0040 -0.3793
10710W        W26784   3.700  16.534  14.751 -0.0367  0.0547  0.1844
10711W        W26785   6.007   7.227   6.693  0.3368  0.2242  0.2266
10712W        W26786   4.288  16.165  13.166  0.0745  0.2187  0.1406
10713W        W26787  13.080   3.088   1.955 -0.0017 -0.0271 -0.2273
10714W        W26788  11.974   7.160   6.038  0.0145  0.1968 -0.2771
10715W        W26789   3.171  11.281   1.249 -0.2066  0.7015  0.2300
10716W        W26790   7.969   9.672  13.620  0.1929  0.1873 -0.0977
10717W        W26791  11.210   5.231   2.222  0.1682  0.1288 -0.0368
10718W        W26792  11.857   1.676   4.818 -0.0028 -0.1871 -0.0540
10719W        W26793   0.773   5.334  14.417  0.0884  0.1143  0.0314
10720W        W26794   4.852   8.153   3.119 -0.1816 -0.0750  0.0705
10721W        W26795   5.297   3.341   0.870 -0.0831 -0.0450 -0.2764
10722W        W26796  16.408  12.243   2.709 -0.1044 -0.2190  0.1916
10723W        W26797   0.369   2.730  13.275 -0.1182 -0.1947 -0.4574
10724W        W26798  13.465  12.286  15.308 -0.0582  0.0252 -0.3391
10725W        W26799   8.280  11.180  12.229 -0.0474  0.2800  0.2127
10726W        W26800  16.074   6.820  11.596 -0.2423  0.0869 -0.0429
10727W        W26801  17.670  15.358  12.608 -0.0231 -0.0583 -0.1667
10728W        W26802  11.352  12.522  16.006 -0.1057 -0.0871  0.0224
10729W        W26803   5.990  11.738   1.499 -0.2892 -0.1313  0.3229
10730W        W26804  10.488   2.243   5.693  0.1826  0.3206 -0.3773
10731W        W26805  14.778   8.948   0.759  0.3615 -0.0143 -0.0817
10732W        W26806  10.906  11.237   3.587 -0.1748 -0.0805 -0.1516
10733W        W26807  13.403  13.303  16.512  0.2476  0.1721  0.0369
10734W        W26808   3.640  10.645  13.718  0.0519 -0.2310 -0.3009
10735W        W26809   6.350   3.987   2.393  0.0908 -0.0970 -0.1080
10736W        W26810   3.510   2.448   4.662 -0.0838  0.0194 -0.1110
10737W        W26811  16.826  15.672  13.144 -0.0115  0.2054 -0.0420
10738W        W26812  15.199   4.176  15.745  0.0664 -0.4383 -0.2540
10739W        W26813   1.211  15.446  15.433  0.0823 -0.0031 -0.0854
10740W        W26814   7.628  17.573  12.952 -0.0792  0.5504  0.0959
10741W        W26815   2.920  16.625  14.238 -0.3579  0.1131 -0.1436
10742W        W26816   4.273   0.317   1.511 -0.1074  0.1429 -0.0832
10743W        W26817  10.075  17.556   2.739 -0.1276  0.0195 -0.1078
10744W        W26818   7.591   3.802  15.955 -0.3682  0.0153 -0.1278
10745W        W26819   6.399   1.348   0.862 -0.0935 -0.1505 -0.1674
10746W        W26820  13.738   3.517  15.441  0.2020 -0.3338 -0.1538
10747W        W26821   4.004  17.667  15.916  0.0905  0.3061  0.0478
10748W        W26822   0.491  17.850   2.709  0.2778  0.1145 -0.0847
10749W        W26823   8.527   4.389  13.538 -0.0476 -0.2370  0.1926
10750W        W26824   0.718  10.521  12.582 -0.0716 -0.0788 -0.1115
10751W        W26825  14.748   9.463   2.649 -0.3143  0.1282  0.1974
10752W        W26826   7.403   5.418  14.343 -0.3530  0.0381  0.0310
10753W        W26827   8.783  10.287   4.318  0.0013  0.3172 -0.0986
10754W        W26828   5.673   5.223   2.575 -0.0202  0.1386 -0.4474
10755W        W26829   7.008  13.803   1.066 -0.0840  0.1205  0.1165
10756W        W26830   0.185  13.960  16.280  0.0939 -0.3523  0.1308
10757W        W26831   0.336   6.719  13.563 -0.0524 -0.0885 -0.1625
10758W        W26832  16.068  14.222  11.464  0.3708  0.0964  0.0119
10759W        W26833   7.238   0.142  16.412  0.0517  0.1405  0.1115
10760W        W26834   3.557   6.050   2.477 -0.0846  0.2558  0.2703
10761W        W26835   3.319  16.319  13.791 -0.3016 -0.3791  0.0820
10762W        W26836   9.241   4.302   6.583  0.1302  0.1167 -0.0243
10763W        W26837   7.348  15.997  11.591  0.1310 -0.0780 -0.4187
10764W        W26838  10.389   0.584  12.718 -0.1234 -0.0201 -0.1641
10765W        W26839   4.906  13.558  15.655 -0.0816  0.3530  0.0150
10766W        W26840  10.856   2.216  13.486  0.0834 -0.0628  0.3372
10767W        W26841   4.091   3.131   5.080 -0.0818 -0.1900 -0.1309
10768W        W26842   0.061   4.805  13.548  0.1858 -0.0854  0.2857
10769W        W26843  15.079   3.973  16.253  0.0213 -0.0523 -0.2267
10770W        W26844   8.727  11.570   5.781 -0.3239 -0.1037 -0.0359
10771W        W26845  13.835  14.023  16.437 -0.1101 -0.1508  0.0401
10772W        W26846  14.979   4.169   5.150 -0.0817  0.1091  0.2692
10773W        W26847   3.755  12.167   3.367  0.2747 -0.0188  0.3555
10774W        W26848   1.866   5.999  11.152  0.0135 -0.2220  0.5569
10775W        W26849   9.968   2.572  12.297  0.1620  0.5440 -0.0229
10776W        W26850   5.118  15.824  15.262 -0.0094  0.0010  0.1783
10777W        W26851  14.682  12.964   0.680 -0.0601 -0.0921 -0.2809
10778W        W26852  15.985  11.051  12.586  0.1633  0.1071  0.1339
10779W        W26853  10.513   4.141   4.405  0.2448  0.0213  0.3532
10780W        W26854   2.387   3.766   2.964 -0.0388  0.0905  0.0050
10781W        W26855  15.177  12.017   3.071  0.0374 -0.0324 -0.3809
10782W        W26856  11.068  13.029   5.977 -0.0990  0.1497  0.1792
10783W        W26857   5.183   8.517   3.035 -0.0032 -0.2086  0.1002
10784W        W26858  12.942  12.055  16.548  0.0241 -0.2978 -0.3184
10785W        W26859  11.088   7.931   6.346  0.2544  0.2295 -0.0133
10786W        W26860  11.205  13.286  15.367 -0.1331  0.0129  0.1289
10787W        W26861   5.380  11.810   0.497 -0.0068 -0.0534  0.0754
10788W        W26862   2.555   4.838  14.965  0.2456 -0.0632  0.0627
10789W        W26863  15.377  10.330   4.280  0.4702  0.1802  0.0390
10790W        W26864  15.112  12.132   2.479 -0.2520 -0.1226  0.3898
10791W        W26865   7.732   9.802   5.074 -0.2418  0.1283 -0.1742
10792W        W26866  10.426   0.386  12.253  0.0748  0.0235 -0.1319
10793W        W26867  14.339  18.202   0.513 -0.1620  0.1125 -0.0607
10794W        W26868  10.645   7.355   6.032 -0.0415  0.0551 -0.0506
10795W        W26869   8.440  14.749   3.305 -0.0708 -0.0238  0.0664
10796W        W26870   8.011  16.463  14.610  0.0006  0.0742  0.0411
10797W        W26871  11.673   6.145  15.168 -0.0734  0.0763  0.0160
10798W        W26872   4.201   7.597  13.448 -0.0813  0.0887  0.0275
10799W        W26873  11.632   2.150  11.584 -0.0460 -0.3800 -0.1827
10800W        W26874  14.870   1.743  11.910  0.0408  0.2404  0.1280
10801W        W26875   9.661   8.857   6.181  0.0938  0.1182  0.0354
10802W        W26876  10.753   0.917  12.882 -0.0898  0.0659  0.0553
10803W        W26877  17.393   0.419  12.941 -0.1258 -0.0338 -0.1193
10804W        W26878  18.179   3.772   3.263 -0.2057 -0.0631 -0.0657
10805W        W26879  16.597  14.076   2.404 -0.2501 -0.0985 -0.2537
10806W        W26880  13.916   8.102  12.863 -0.2587  0.2286  0.0255
10807W        W26881   5.148  17.050  12.848 -0.2213  0.1046  0.0006
10808W        W26882   4.696  17.657  11.926  0.1935  0.0542  0.1816
10809W        W26883  12.723   1.340   3.683 -0.0226  0.0515 -0.0756
10810W        W26884   4.165  14.224   4.442  0.0714 -0.0830 -0.2916
10811W        W26885   8.234   3.485   1.614 -0.0720 -0.0233 -0.4263
10812W        W26886  18.110   1.682  12.553 -0.2871 -0.2976  0.2021
10813W        W26887   2.879   4.728  12.698  0.2117 -0.0512  0.5218
10814W        W26888   0.505   3.773  13.455 -0.0209 -0.2741  0.0033
10815W        W26889   3.571  15.774   1.954  0.0600  0.1611 -0.0524
10816W        W26890  13.678   2.397  13.085  0.0076  0.4907 -0.2320
10817W        W26891   4.794  17.550  13.522 -0.1267  0.1466  0.1408
10818W        W26892  18.022   5.230  13.749 -0.4026  0.0401 -0.0487
10819W        W26893   2.899   1.811  12.696 -0.1748  0.1126  0.0280
10820W        W26894  17.881   7.141   4.745  0.0661  0.0309  0.2419
10821W        W26895  12.283   3.893   1.840 -0.1749 -0.0781  0.3025
10822W        W26896  15.103  11.175  13.456 -0.2917  0.0070  0.2165
10823W        W26897  13.590  10.853   3.497  0.1890 -0.1860 -0.3302
10824W        W26898  17.287   2.856   0.397 -0.0586  0.1214  0.0218
10825W        W26899  11.650   6.238  10.830  0.0144 -0.1226 -0.2188
10826W        W26900   5.591  14.402  12.825 -0.0628 -0.1117 -0.3767
10827W        W26901   5.034  11.885  14.077  0.1682 -0.0434  0.0416
10828W        W26902   8.659  10.549   6.218 -0.1594  0.0490  0.1244
10829W        W26903   4.098   9.794  13.606  0.0309 -0.2102  0.1795
10830W        W26904   2.140  10.141   4.574  0.0488 -0.0551  0.3408
10831W        W26905   1.066   3.916   0.634 -0.1395 -0.1338  0.0402
10832W        W26906   4.479  17.912   4.681  0.2225 -0.1880 -0.1811
10833W        W26907   8.521  17.966  11.445 -0.0995  0.1350 -0.1726
10834W        W26908  17.688   0.598  13.436 -0.2919 -0.0174  0.2134
10835W        W26909  12.333  14.384   2.965 -0.1680  0.0838  0.1381
10836W        W26910   8.685  12.948  14.406 -0.1701 -0.2822 -0.0439
10837W        W26911   2.974   7.710  13.688  0.3317  0.1613  0.0814
10838W        W26912  13.363   7.672  15.334 -0.0382 -0.0919 -0.2716
10839W        W26913  12.695   5.047   3.676 -0.1558  0.1340 -0.0947
10840W        W26914  15.163   3.893   4.337 -0.2417  0.0104  0.1621
10841W        W26915  17.587   1.095  14.239 -0.2512  0.1448  0.1319
10842W        W26916   3.393  16.407  13.030  0.1278  0.0222  0.0111
10843W        W26917   3.109  11.936  11.646 -0.2111  0.1295  0.1157
10844W        W26918   7.856  11.779  10.856  0.0778 -0.3752 -0.0645
10845W        W26919   0.261  13.488  13.990 -0.1030  0.2054 -0.1384
10846W        W26920   8.590   1.000  13.198 -0.0086 -0.1724  0.4157
10847W        W26921   3.111   3.808   5.038 -0.2142  0.2060  0.3319
10848W        W26922   2.036   5.330   0.680 -0.1225 -0.1254  0.1244
10849W        W26923   2.587   4.350  15.787  0.1632  0.0928  0.2002
10850W        W26924   7.555  15.544  15.006  0.3281  0.0641 -0.2316
10851W        W26925   4.522  16.266   5.352  0.1874 -0.4489 -0.1150
10852W        W26926   9.082  17.233  13.694 -0.5313 -0.1115  0.0561
10853W        W26927  13.611   9.015  11.845 -0.0025 -0.2654 -0.0411
10854W        W26928   8.969  10.591  11.973 -0.0633 -0.4621  0.1160
10855W        W26929  17.998  15.251  15.570 -0.0882  0.1510  0.0415
10856W        W26930   9.778  14.788  14.088 -0.0546 -0.1229  0.1135
10857W        W26931  13.478   4.003   6.206  0.0142 -0.2952 -0.2903
10858W        W26932  16.453   5.983  14.848 -0.4631  0.1489  0.2002
10859W        W26933  13.931  10.879   1.509 -0.0872  0.1192  0.0532
10860W        W26934   1.172   4.393   5.064 -0.1293 -0.0854  0.0761
10861W        W26935  14.479   3.967   3.635  0.3282 -0.0510  0.0560
10862W        W26936  17.998  16.464  14.961  0.2140 -0.1970 -0.1404
10863W        W26937  16.471  13.250   4.247  0.1938  0.0985 -0.2352
10864W        W26938   2.113   8.977   5.091 -0.0372  0.2021 -0.0810
10865W        W26939  11.671   8.285   4.603 -0.0072  0.4379 -0.1246
10866W        W26940  11.486  15.192  10.606  0.4031  0.1541  0.0754
10867W        W26941   1.655  10.149   4.354  0.0524  0.3913 -0.0336
10868W        W26942   5.159   4.869   2.031 -0.0241 -0.2331  0.4231
10869W        W26943  15.973  12.005   1.347  0.0063 -0.3444  0.0712
10870W        W26944   4.595   0.276  13.838  0.0793 -0.2450  0.2308
10871W        W26945   1.121   6.257  15.371  0.2291  0.0031  0.0313
10872W        W26946  16.026   0.518   5.039  0.0810  0.0990  0.0820
10873W        W26947  14.783  13.683   2.151 -0.3099  0.1931  0.1529
10874W        W26948  10.012   1.643   4.621 -0.0547  0.0629  0.1566
10875W        W26949   2.822   4.562   1.856 -0.1180 -0.0361  0.0777
10876W        W26950   2.842   3.091   0.944 -0.0181 -0.2423 -0.2314
10877W        W26951   8.854   4.198  16.089  0.3205  0.0634  0.1717
10878W        W26952  17.602  10.653   6.190  0.0759  0.2049 -0.0550
10879W        W26953   2.397   4.556   2.485 -0.1989 -0.0249 -0.0734
10880W        W26954   9.880   9.077   1.373  0.0345 -0.4396  0.1498
10881W        W26955   3.767  12.285   4.748  0.1686 -0.2210  0.2529
10882W        W26956  15.818   6.372   1.124 -0.0239  0.1382 -0.0710
10883W        W26957   2.244   8.320  11.388  0.1017 -0.1104 -0.0233
10884W        W26958  10.898   6.752  12.474 -0.0218 -0.1191  0.2118
10885W        W26959   4.434   1.282   0.218 -0.0474 -0.1535  0.0050
10886W        W26960  11.875   3.820   1.524  0.3333  0.1893 -0.2949
10887W        W26961   0.190   8.072   3.604 -0.2861  0.2862  0.2285
10888W        W26962   9.025   6.401  12.770  0.1593  0.1034  0.1826
10889W        W26963  10.821  11.317  12.597  0.3576  0.1590 -0.2136
10890W        W26964  16.796  11.880   2.516  0.1098  0.1003 -0.1199
10891W        W26965   8.536   2.758   3.046 -0.0830  0.0304 -0.1006
10892W        W26966   6.824  13.673  16.171 -0.1702  0.2530 -0.0606
10893W        W26967  12.129  16.576   4.461  0.2077 -0.4684 -0.0732
10894W        W26968   6.458   1.887   6.390 -0.0198  0.1172  0.1727
10895W        W26969  12.384  18.106  11.537  0.0196  0.2389  0.2629
10896W        W26970   8.911  10.258   1.961 -0.2712 -0.1175  0.2665
10897W        W26971   7.770  15.187  14.224 -0.1823  0.0696  0.0915
10898W        W26972  10.515  13.041   5.811 -0.1630  0.1562  0.1599
10899W        W26973   5.965   2.501  15.077  0.0861 -0.0839  0.0458
10900W        W26974  10.281  13.662  12.342  0.1183 -0.0422 -0.3657
10901W        W26975  11.883   8.687   4.964  0.0045 -0.1541 -0.0028
10902W        W26976   6.751  10.192  13.430 -0.2527  0.0605 -0.0617
10903W        W26977  15.564   9.084  15.854  0.2114 -0.3359 -0.0616
10904W        W26978  17.028   9.634  12.085  0.1351 -0.3328 -0.0224
10905W        W26979   2.512   6.055   5.756 -0.3366  0.3461  0.0827
10906W        W26980  13.671  17.238   0.538 -0.1535  0.0149  0.0309
10907W        W26981   3.904  17.663   5.908  0.3449 -0.2638  0.3820
10908W        W26982   8.080   0.301   4.380  0.4620 -0.1124  0.2736
10909W        W26983  17.231   8.333  13.453  0.1994 -0.0143  0.0395
10910W        W26984   0.575  13.109  15.267 -0.2368  0.3776 -0.1584
10911W        W26985  16.091  14.580   0.181  0.2293 -0.1849 -0.0130
10912W        W26986  16.391   9.371  12.417  0.0204 -0.0581  0.1374
10913W        W26987   9.836   5.861  16.011 -0.1746  0.1397  0.1421
10914W        W26988   0.188  17.975  11.814  0.0805 -0.3236  0.1728
10915W        W26989  16.569   5.677   1.007  0.0192 -0.0275  0.1463
10916W        W26990  13.507   7.100  13.632  0.1293  0.2424  0.2050
10917W        W26991   5.166   6.271  16.492  0.1574 -0.1309  0.0315
10918W        W26992   9.547  18.177   2.304  0.2454 -0.1061  0.0500
10919W        W26993  12.802   3.553  13.640 -0.0081  0.1314 -0.0458
10920W        W26994  14.997  11.768  13.477  0.1084 -0.2411  0.2551
10921W        W26995  14.452   4.103   1.946 -0.1474 -0.0448  0.2595
10922W        W26996  15.276  15.502  11.410  0.0454 -0.2887  0.1961
10923W        W26997   6.450   6.130   0.020  0.3479  0.0122 -0.1631
10924W        W26998  12.442   4.905   1.118 -0.2439  0.0999  0.1125
10925W        W26999   7.652  16.423  14.123  0.1778  0.1473 -0.0786
10926W        W27000  17.168   1.102  14.998 -0.0949 -0.0150  0.2226
10927W        W27001   0.208  17.078   2.110  0.0178  0.0267  0.0516
10928W        W27002   5.780   2.238  14.597  0.3062 -0.3009 -0.0096
10929W        W27003  12.802  11.724   4.636 -0.1824  0.0064 -0.4914
10930W        W27004   6.181   9.128  14.232  0.0986  0.0776  0.1669
10931W        W27005  17.485   7.500  11.911  0.3191 -0.1494 -0.1235
10932W        W27006  14.956   2.193  13.558 -0.0331 -0.1585 -0.2055
10933W        W27007  14.524   0.231  12.395  0.1095  0.2831 -0.2256
10934W        W27008   4.664  14.431  16.270 -0.0587 -0.2691 -0.1236
10935W        W27009   0.947   6.098  13.414 -0.2046 -0.2619 -0.0062
10936W        W27010  14.235   1.639  11.800 -0.1433  0.2469 -0.0348
10937W        W27011   0.622   8.935  14.625  0.2283  0.1227  0.3027
10938W        W27012  14.898  14.312   3.742 -0.1052  0.1002  0.0435
10939W        W27013  14.919  12.664  12.544  0.2032 -0.1021 -0.0138
10940W        W27014  13.128   8.749  11.937  0.1069  0.0699 -0.5267
10941W        W27015  14.711   2.697  13.732  0.1262 -0.1847 -0.4081
10942W        W27016  15.965   5.486   1.597  0.3025  0.1133  0.2637
10943W        W27017  16.266   5.266   0.917 -0.2464  0.0555  0.1034
10944W        W27018   7.172  13.473   2.622  0.0665  0.1130  0.3789
10945W        W27019  13.168   4.290  13.179  0.2031 -0.1635  0.2390
10946W        W27020  15.592   9.374  13.365  0.3987 -0.2395 -0.0653
10947W        W27021   8.205  17.540  16.448  0.1467 -0.2348  0.3966
10948W        W27022  12.777   4.208  14.529  0.0262 -0.0641  0.0009
10949W        W27023  14.279  17.654   0.338  0.1038  0.0655  0.0680
10950W        W27024  11.670   6.082   5.423  0.1155 -0.1039 -0.0320
10951W        W27025   7.321  16.873  14.783  0.0142 -0.0289 -0.3461
10952W        W27026  14.205   5.718  15.575  0.1348 -0.3554  0.1604
10953W        W27027  10.079   0.902  12.149 -0.2031 -0.1318 -0.0297
10954W        W27028   7.475   8.802  13.869 -0.2207 -0.0194  0.0388
10955W        W27029   3.033   7.541  14.902  0.0695  0.0055  0.1917
10956W        W27030   0.916   1.028  13.928  0.1918  0.0398 -0.0806
10957W        W27031  17.790   0.774  11.345 -0.0541  0.0359  0.0760
10958W        W27032  17.912  16.725  11.801  0.1210  0.2248 -0.0884
10959W        W27033  13.594  13.872   4.689 -0.1530  0.0802 -0.1199
10960W        W27034   0.480  14.846   0.197 -0.2257 -0.1504  0.0983
10961W        W27035  10.304  13.902  13.092 -0.1732  0.1728  0.1257
10962W        W27036  17.487   2.699  11.190 -0.1338  0.1016 -0.0914
10963W        W27037  10.526  10.529  15.245 -0.3699  0.3093  0.1158
10964W        W27038  11.274   9.634   4.668  0.0399 -0.0809  0.0959
10965W        W27039  14.137   9.237   1.475 -0.0784  0.0801 -0.2643
10966W        W27040   2.270  18.066   3.767 -0.2822 -0.4683 -0.0918
10967W        W27041   7.580   6.113  11.439  0.0038  0.1028  0.2554
10968W        W27042   7.372   5.185   6.660  0.2297 -0.5868 -0.0915
10969W        W27043   0.407  10.246  11.519 -0.0696  0.1410 -0.2892
10970W        W27044  12.510   2.855  15.688  0.2011 -0.0702 -0.0471
10971W        W27045  15.396   8.852  11.624  0.0134 -0.0318  0.1571
10972W        W27046  12.747  14.224   1.549  0.1006  0.3192 -0.1716
10973W        W27047  12.483   1.204   4.110 -0.2382 -0.1623  0.0925
10974W        W27048   6.675   0.036   3.102  0.1274 -0.2298 -0.2065
10975W        W27049   0.717   6.005   0.641 -0.3121 -0.0500  0.1179
10976W        W27050   8.264  15.210  11.550 -0.2273 -0.0904 -0.1095
10977W        W27051   1.183   0.112  14.487  0.2676 -0.0182 -0.2052
10978W        W27052  12.569   5.473   3.918 -0.0167  0.0333  0.1019
10979W        W27053   7.661   6.038   2.290  0.0799  0.0849 -0.1692
10980W        W27054  17.275   3.198   3.981  0.2388 -0.1283  0.0324
10981W        W27055  10.073   2.042   0.937 -0.1042  0.0195  0.1785
10982W        W27056   1.824   8.779   1.426  0.1598  0.0511 -0.2318
10983W        W27057  11.953   8.103   0.033 -0.0749  0.0456  0.1700
10984W        W27058   7.936   6.473   2.082  0.2659  0.0892  0.3176
10985W        W27059   8.334  17.567   0.600  0.1872 -0.2998 -0.0399
10986W        W27060  11.104  13.565  11.896 -0.0367 -0.1280  0.1554
10987W        W27061  17.912  10.525   2.494 -0.0454 -0.1969  0.1285
10988W        W27062   9.942  12.688   2.654 -0.1718 -0.0818 -0.1352
10989W        W27063  11.326   4.557  14.551  0.1214 -0.1464  0.0232
10990W        W27064   5.188  12.941  12.611  0.0233 -0.4185  0.4287
10991W        W27065  16.903  13.047   0.549  0.1024 -0.0476 -0.4240
10992W        W27066   1.176  13.180  14.508 -0.1651  0.0839 -0.1502
10993W        W27067  14.117   1.488   0.872 -0.0606  0.1114  0.0445
10994W        W27068  18.171   0.367  16.351  0.0451  0.0001  0.0723
10995W        W27069   1.144  11.317   3.305 -0.4069  0.1556  0.3574
10996W        W27070   6.709   2.437   2.256 -0.1341 -0.0798  0.2211
10997W        W27071  11.966  14.072   1.931 -0.1790  0.1546  0.0261
10998W        W27072  13.237   3.012   0.579 -0.0208 -0.2022  0.0002
10999W        W27073  13.014   1.150   4.097  0.1128 -0.0139  0.1024
11000W        W27074   2.823  10.080   3.466  0.1516  0.3039  0.3121
11001W        W27075   5.793   0.993  12.033 -0.3864 -0.0013  0.1576
11002W        W27076  14.826  10.560  12.852 -0.0005 -0.0634 -0.0911
11003W        W27077  11.995  17.080   2.545  0.2818 -0.0223  0.4400
11004W        W27078   5.448   0.854  12.890 -0.3938  0.2222  0.0735
11005W        W27079  15.301   0.412   1.793 -0.3758  0.3410 -0.0125
11006W        W27080   4.340   5.469   4.067 -0.3725  0.2673  0.0794
11007W        W27081  15.687  10.458  14.913  0.4148  0.0715  0.2839
11008W        W27082  15.518  10.616  16.099 -0.0423  0.0095 -0.2625
11009W        W27083  11.425  17.717  14.371  0.0151 -0.2715 -0.0989
11010W        W27084   3.504   1.136   5.878 -0.0491 -0.0592  0.1853
11011W        W27085  14.433   6.159   5.839 -0.2199 -0.1208  0.3715
11012W        W27086   4.458  16.292   2.129 -0.0251 -0.1581 -0.0638
11013W        W27087   9.468   8.554   6.501  0.0045 -0.1000  0.2821
11014W        W27088  13.062   1.119  14.284 -0.0513 -0.0581 -0.3170
11015W        W27089   6.582  17.788   0.165  0.0965 -0.0789 -0.0239
11016W        W27090  10.456   4.008   4.934  0.2033  0.3389 -0.0064
11017W        W27091  17.569   2.814  12.741  0.1832 -0.0085  0.0241
11018W        W27092  13.133   0.008   4.570 -0.3853  0.5705  0.1536
11019W        W27093   8.974   0.439  14.891 -0.0586 -0.0386 -0.1647
11020W        W27094  16.572   4.600  13.247 -0.1804  0.0614  0.1882
11021W        W27095  10.463  14.120  12.647 -0.1654  0.1396  0.1107
11022W        W27096  14.470  13.078   3.466  0.1033  0.2701 -0.1387
11023W        W27097   8.171   6.916  12.062  0.0073  0.2895  0.0869
11024W        W27098  14.332   2.641  14.699 -0.1647 -0.1503  0.1135
11025W        W27099   8.413   4.150   2.807  0.0154  0.1015  0.0364
11026W        W27100   9.204   5.687   3.742  0.4060 -0.1472  0.0424
11027W        W27101  11.839   2.629  11.797 -0.2075 -0.1388 -0.0912
11028W        W27102   4.552   8.325  14.308  0.3170  0.0791 -0.3733
11029W        W27103  12.090  13.288  11.748 -0.4428 -0.0214 -0.0078
11030W        W27104   2.628   8.075   4.611 -0.3946  0.0682 -0.0406
11031W        W27105   0.595  13.037  14.754 -0.0806  0.0147 -0.0627
11032W        W27106  13.246  11.903  12.149 -0.1862  0.2797 -0.0858
11033W        W27107   6.401  13.437  13.933  0.0977 -0.2626  0.0553
11034W        W27108  13.656  12.236   5.367 -0.0975 -0.1462 -0.1637
11035W        W27109  14.880  14.844  15.328 -0.1278  0.0302 -0.0273
11036W        W27110   8.292  15.220  12.103 -0.1033 -0.0817 -0.3415
11037W        W27111   8.317  14.173  14.861 -0.2662  0.0931 -0.2869
11038W        W27112   1.026   1.558   3.462  0.1083 -0.0926 -0.0302
11039W        W27113  11.624   3.587  14.396  0.0805 -0.1543 -0.1247
11040W        W27114  18.031  10.479  14.142  0.0915 -0.1279  0.2323
11041W        W27115  15.325  14.608   3.480  0.1860 -0.1690  0.2497
11042W        W27116   2.888  10.794   2.043  0.2456  0.3723 -0.1371
11043W        W27117  14.502  12.774  13.587 -0.1051  0.0629 -0.1982
11044W        W27118  17.410   4.631  13.859  0.0777  0.1199  0.0453
11045W        W27119  10.691   8.641   3.775 -0.1219 -0.1480 -0.1114
11046W        W27120   9.024   5.723  12.614 -0.1169 -0.0884  0.2125
11047W        W27121  10.009  10.848   2.620  0.0432 -0.1760 -0.0730
11048W        W27122   7.175   9.216  14.578  0.0170  0.1230  0.0341
11049W        W27123  12.642  17.426   4.428 -0.0300  0.2674 -0.0767
11050W        W27124   7.255  11.146   0.049 -0.1016  0.4207 -0.0984
11051W        W27125   9.947  13.680   0.311 -0.1068  0.0243 -0.1543
11052W        W27126   9.266   2.352   1.409 -0.2228  0.0622  0.0781
11053W        W27127  11.919   5.718   1.481  0.1164 -0.1767 -0.2504
11054W        W27128  14.065  15.794  12.681  0.0721  0.0460 -0.0077
11055W        W27129  15.449  11.309   0.743  0.0992  0.0378 -0.2123
11056W        W27130  16.405  14.181   1.763 -0.0318 -0.0881  0.0106
11057W        W27131  10.825   3.304   3.923  0.0701 -0.0530  0.0533
11058W        W27132  12.529  12.353  15.511  0.0381  0.3635  0.0072
11059W        W27133  11.899   6.636  16.394  0.2970  0.1205 -0.2088
11060W        W27134   1.946  11.094  13.199  0.3197  0.0296 -0.3124
11061W        W27135  11.245   4.682  15.490 -0.1320 -0.2219 -0.1736
11062W        W27136   5.214   7.275  14.936  0.1612  0.2105  0.0631
11063W        W27137  15.922  18.199   1.408 -0.1567  0.2379 -0.3883
11064W        W27138   6.278   4.363  12.083 -0.0080 -0.0564 -0.0367
11065W        W27139  15.117   9.915   3.249  0.4154 -0.0629 -0.1089
11066W        W27140  12.338   2.016   2.276 -0.1865 -0.0655 -0.0082
11067W        W27141   9.546   7.636  12.062  0.2502 -0.1539 -0.1056
11068W        W27142  15.009  10.769  16.164  0.0723  0.0003 -0.3192
11069W        W27143   5.781  16.710   5.432  0.3151 -0.0286 -0.1947
11070W        W27144   5.836  14.548  13.408  0.0558 -0.3665  0.2615
11071W        W27145   9.432   4.547   3.071 -0.0857  0.4738  0.3696
11072W        W27146  12.690   1.540  16.222 -0.1582 -0.5458 -0.0607
11073W        W27147   6.337   0.340  11.783  0.1369 -0.1816 -0.1325
11074W        W27148   9.675  11.224   2.568  0.0668  0.0561  0.1565
11075W        W27149  10.045   7.625   3.027  0.2363  0.1758 -0.0147
11076W        W27150   5.884  16.024   0.313 -0.2698 -0.3032 -0.2365
11077W        W27151   1.285  11.807   0.747 -0.0886 -0.1773  0.1043
11078W        W27152  16.462  10.173  15.114 -0.0792 -0.1315  0.1899
11079W        W27153   1.467  12.971  12.482  0.1659 -0.4958  0.3475
11080W        W27154   8.865  16.004   1.153 -0.3092 -0.0201  0.0747
11081W        W27155  13.777  10.901  14.652 -0.1668 -0.0329 -0.4113
11082W        W27156  17.392   1.108  15.492  0.1017  0.2531 -0.0994
11083W        W27157   7.784  16.203   3.366 -0.0353 -0.1576 -0.0227
11084W        W27158   9.450   2.234  15.543 -0.1073 -0.4772 -0.0309
11085W        W27159  18.171   3.327  15.893  0.2259  0.2445 -0.1298
11086W        W27160  12.838   0.462  14.526 -0.0802  0.0627  0.1818
11087W        W27161   8.235  13.467  12.555  0.0872 -0.0134  0.1979
11088W        W27162  12.245   6.303  15.166 -0.0363  0.3489 -0.2108
11089W        W27163   6.346  16.832   5.597  0.1030 -0.1166  0.0687
11090W        W27164  15.691   0.629   0.379 -0.4803 -0.0784 -0.2156
11091W        W27165  17.103  15.763   2.579 -0.2945 -0.2131  0.1239
11092W        W27166   3.104   1.940   0.957 -0.1236  0.0545 -0.1776
11093W        W27167   3.011   8.362  15.945 -0.3130  0.0157  0.0111
11094W        W27168  17.870   6.985  14.104 -0.1490  0.3687 -0.1258
11095W        W27169   1.455   9.220   3.892 -0.2403 -0.0618 -0.0142
11096W        W27170   3.317   9.572   1.905  0.1007 -0.0627 -0.3447
11097W        W27171   1.521   9.677   4.077 -0.2463 -0.0918 -0.2061
11098W        W27172   5.303   2.340   2.704  0.1526  0.1324  0.1057
11099W        W27173   2.834   2.730  12.584  0.1903 -0.2681  0.4428
11100W        W27174  16.020  18.185  11.944 -0.1009  0.1935 -0.0114
11101W        W27175  11.914   7.108   0.018  0.1916 -0.0631  0.0416
11102W        W27176   9.437  10.665   1.286 -0.1208  0.1912 -0.2638
11103W        W27177   9.670  11.926  12.397 -0.2018  0.0584 -0.0854
11104W        W27178   7.134   2.969  13.324  0.0374 -0.1518  0.3955
11105W        W27179   9.507   5.044   4.328  0.1622  0.1455  0.0291
11106W        W27180  13.782  13.658   2.235  0.0377  0.2263 -0.0367
11107W        W27181   5.774  16.412  11.682 -0.1262  0.1474 -0.0369
11108W        W27182  10.898  12.561  15.709 -0.0773 -0.0782 -0.1171
11109W        W27183  10.242  17.764   5.175 -0.3282  0.2934 -0.0114
11110W        W27184   0.425  16.612  11.239  0.1632 -0.1806  0.0201
11111W        W27185  14.607  16.776  13.317 -0.0881  0.2501  0.0871
11112W        W27186   4.800   6.746   5.165  0.2507  0.1921 -0.1618
11113W        W27187  11.156  12.036  14.929  0.0752  0.1454 -0.0408
11114W        W27188   3.459   5.798  12.165  0.0955 -0.0160 -0.1194
11115W        W27189  10.392   9.849   3.520  0.1486 -0.0178 -0.1362
11116W        W27190  12.862   6.085   5.927  0.3379  0.0442  0.0101
11117W        W27191  14.584  10.185   5.131 -0.0281  0.1177 -0.0402
11118W        W27192   0.445   0.091  14.778  0.1555 -0.0431 -0.0016
11119W        W27193  12.950   6.265   5.056  0.1424  0.0654  0.1177
11120W        W27194   6.159   7.052  12.230 -0.1763 -0.2741 -0.0259
11121W        W27195   5.297  11.722   2.895 -0.0785 -0.0628  0.0876
11122W        W27196  17.078   1.971   3.758  0.1874 -0.0390  0.2056
11123W        W27197   7.063   8.537  13.907  0.0797  0.1442 -0.1322
11124W        W27198   0.073   6.659   0.969 -0.2533  0.3104  0.0142
11125W        W27199  13.050   2.829  13.529 -0.0827  0.0731  0.3128
11126W        W27200   4.520   3.934  15.163  0.1969  0.0053  0.0491
11127W        W27201  17.723  11.321   5.211  0.1883  0.0973  0.0268
11128W        W27202   2.164   5.535   2.486  0.0261 -0.0373 -0.0070
11129W        W27203   1.006  13.734  15.836  0.2616  0.2230 -0.2144
11130W        W27204  17.316   5.092  15.511  0.3575  0.0002  0.1689
11131W        W27205   7.283   5.323   5.661 -0.0507  0.1035 -0.1489
11132W        W27206  16.880   2.357   4.449  0.1042  0.2322  0.2534
11133W        W27207   3.043  17.753   5.636  0.1242  0.0482  0.3938
11134W        W27208   9.464   3.403   4.332  0.1258  0.1012 -0.1459
11135W        W27209  15.594  14.657   0.471  0.0107 -0.1715  0.1189
11136W        W27210   6.205   6.112   4.512 -0.1225  0.2351 -0.0977
11137W        W27211  15.101   1.292   4.244 -0.2032 -0.0364 -0.1701
11138W        W27212   3.802  12.835   0.657  0.1964 -0.0804 -0.1478
11139W        W27213  11.429  12.446   5.234 -0.1148  0.0748 -0.0262
11140W        W27214   6.446  17.566  12.640  0.3176  0.0570 -0.1535
11141W        W27215  13.837   9.826   2.409  0.1542 -0.2048 -0.4057
11142W        W27216   8.064  10.073   5.415 -0.0540 -0.1242  0.0359
11143W        W27217   4.992  16.373  11.680 -0.1002  0.1182 -0.2404
11144W        W27218  16.606   2.767  15.643 -0.1110 -0.0464 -0.4648
11145W        W27219  14.889   4.970   1.208  0.2191 -0.1335  0.0699
11146W        W27220  17.219   4.982   1.399  0.2754  0.1684 -0.0999
11147W        W27221   1.822  18.088   4.858  0.1387  0.2996  0.0960
11148W        W27222   9.881  15.498  11.602  0.0272 -0.0529  0.0798
11149W        W27223  17.120  11.727   4.193  0.2370  0.0784 -0.0620
11150W        W27224   4.295  17.517  12.871  0.0014  0.2492 -0.0968
11151W        W27225   8.250   2.343   0.263 -0.2042 -0.0712  0.0381
11152W        W27226   0.837   6.289   1.100 -0.1132 -0.1030 -0.0948
11153W        W27227  15.615   3.752   1.968  0.0272  0.0978  0.5249
11154W        W27228   6.222   6.867   5.811  0.0176  0.0439 -0.1327
11155W        W27229   6.984   8.073  15.303 -0.0220  0.2707  0.0812
11156W        W27230  16.812   5.730  10.141 -0.0191  0.0573 -0.2636
11157W        W27231   5.040   2.100   2.238  0.0457  0.0986 -0.0827
11158W        W27232  16.663   3.574   0.453  0.2079 -0.0781 -0.0389
11159W        W27233  10.651   3.347  14.135 -0.1285 -0.1134  0.1750
11160W        W27234  15.080  14.345   2.246 -0.2003  0.0091  0.1032
11161W        W27235   9.406   4.632   1.570 -0.0471 -0.0611 -0.0599
11162W        W27236  13.017  10.048   2.956 -0.0237  0.1652  0.4419
11163W        W27237   0.322  13.635  11.264 -0.0727  0.1455 -0.1431
11164W        W27238   8.944   4.338   1.950 -0.0131 -0.0093 -0.0278
11165W        W27239   3.338   7.960   3.621  0.0834 -0.0255  0.0860
11166W        W27240   5.623  17.414   1.593 -0.0480  0.0627  0.1735
11167W        W27241   9.659   0.923  13.220  0.0194  0.2327  0.0096
11168W        W27242  15.965   1.763  14.052 -0.0243  0.0453  0.1503
11169W        W27243   8.729  12.810   3.093 -0.0052  0.1762 -0.0176
11170W        W27244  15.165  10.871   6.151 -0.0270 -0.0553  0.1508
11171W        W27245   5.818  11.197   1.217  0.0411 -0.0307  0.0320
11172W        W27246   5.793  18.204  14.638  0.2852  0.0390  0.0586
11173W        W27247   2.790  17.878   1.297 -0.1730  0.0233  0.1386
11174W        W27248  14.680   3.011   2.818  0.0468  0.0780  0.2569
11175W        W27249   5.997  16.616   0.024  0.1172  0.0622  0.1072
11176W        W27250  14.500   1.134  12.517  0.1017 -0.2187  0.0745
11177W        W27251   6.603   2.921   5.355 -0.2413 -0.0507 -0.2595
11178W        W27252  14.661  17.121  12.575  0.1543  0.0645 -0.0776
11179W        W27253   3.755  11.023  12.704  0.0941  0.0361  0.0777
11180W        W27254  16.070   9.783   2.352 -0.0435  0.3629 -0.1386
11181W        W27255   1.901  11.402  14.100  0.0574  0.1173  0.1442
11182W        W27256  10.355  18.124   1.244 -0.3281 -0.3430  0.1475
11183W        W27257   8.988  10.574   5.115  0.0120 -0.2244  0.1023
11184W        W27258   1.841   8.591   0.028 -0.1967  0.1798 -0.4686
11185W        W27259  12.020   8.185   3.314  0.0339 -0.2159 -0.3828
11186W        W27260  17.126  12.189  12.602  0.3514  0.4862 -0.0535
11187W        W27261   8.351  14.994  13.491 -0.0899  0.0052  0.0369
11188W        W27262  13.677  13.858  13.086  0.2254  0.1880 -0.0146
11189W        W27263  13.095   8.822   4.364 -0.0353  0.2689  0.0805
11190W        W27264  14.054  17.456  15.607  0.0535  0.0798  0.2153
11191W        W27265  16.308   5.395   5.279  0.0160  0.2829  0.2147
11192W        W27266   9.878  13.852  15.684  0.4673  0.1986  0.0842
11193W        W27267  14.142   3.430   1.638 -0.0937  0.0593  0.2271
11194W        W27268  10.743   1.188   4.130 -0.3166  0.1654 -0.1304
11195W        W27269   2.260   8.365  13.979 -0.4183 -0.1039  0.2404
11196W        W27270  16.899   0.557  16.542 -0.0576  0.1241  0.2131
11197W        W27271   7.171  15.132   4.578 -0.0741 -0.0733 -0.0035
11198W        W27272  14.824   2.274   4.475  0.3877  0.2358  0.1949
11199W        W27273  13.179  14.900   3.760  0.1493 -0.0657  0.2336
11200W        W27274  10.481  14.552   3.967  0.3904  0.0858  0.1044
11201W        W27275   4.059   3.412   1.621 -0.0936 -0.1138  0.4478
11202W        W27276  13.403   1.371  13.089  0.0811  0.1838 -0.3570
11203W        W27277   8.116   4.238   2.187 -0.2268  0.0818 -0.0861
11204W        W27278  13.952  17.487   3.060  0.0362 -0.1028 -0.1231
11205W        W27279   5.654  15.755  14.824 -0.0369 -0.2565  0.2375
11206W        W27280  13.835  15.343  12.120 -0.2118 -0.1994  0.2647
11207W        W27281   0.337  15.992  12.650  0.1237  0.0197 -0.1426
11208W        W27282   7.190  15.864   5.280 -0.3693  0.2338 -0.1881
11209W        W27283   9.341   6.163   3.039  0.1476 -0.0471  0.1422
11210W        W27284  15.224   9.199  14.809 -0.0956  0.2267  0.1709
11211W        W27285   3.208  11.164   4.035  0.3502  0.3009 -0.1037
11212W        W27286   0.240  16.258   3.496 -0.1110  0.2583 -0.4664
11213W        W27287   9.324   3.330   1.571 -0.1581  0.2086 -0.1577
11214W        W27288   5.737  12.304  16.189  0.1136  0.1719 -0.2309
11215W        W27289  10.939   5.103  16.230 -0.0484  0.2539  0.1207
11216W        W27290   7.685   7.097  13.852 -0.1991  0.0292  0.2765
11217W        W27291   1.965   9.583  13.640 -0.2164  0.2097  0.1312
11218W        W27292  10.791   2.488  13.938  0.0225 -0.3480 -0.1229
11219W        W27293  11.745   6.333  12.690  0.3143  0.2954  0.3040
11220W        W27294  17.612   3.624  11.637  0.0740 -0.1507 -0.0768
11221W        W27295   4.941   2.298  11.569 -0.0491  0.3319 -0.1585
11222W        W27296  14.838   8.983  12.595  0.0750 -0.3079 -0.0880
11223W        W27297   1.384   3.740   5.281  0.3447 -0.0742  0.0555
11224W        W27298   8.249   9.919   1.284  0.1347  0.0647  0.1423
11225W        W27299  16.529  13.145  15.503  0.0124  0.2142 -0.0160
11226W        W27300   1.228   8.699   2.076  0.2957 -0.0973  0.1150
11227W        W27301   1.223   0.322   5.377 -0.0186  0.1972  0.2525
11228W        W27302   0.990   0.332   4.869 -0.0701  0.0261  0.1144
11229W        W27303   6.235   3.761  11.999 -0.1034 -0.2058  0.0727
11230W        W27304  16.201  14.359  15.222 -0.1212 -0.0095 -0.1942
11231W        W27305   2.233  16.266  15.573  0.1312  0.0800  0.4407
11232W        W27306  15.875  17.196   0.654  0.1282 -0.1773 -0.0811
11233W        W27307   0.392   0.693   0.618 -0.2348 -0.0725  0.0692
11234W        W27308   1.403   4.910   1.021 -0.3374 -0.2151 -0.0411
11235W        W27309   9.973  13.478  15.388 -0.1834  0.4507  0.3268
11236W        W27310  13.283   5.764   4.306  0.2909  0.0391  0.2778
11237W        W27311  16.159  13.201   2.174  0.3090  0.1841  0.3556
11238W        W27312   0.329  17.591  15.566 -0.2674  0.0453  0.1243
11239W        W27313   2.818   8.530   4.843 -0.0436 -0.0070  0.0706
11240W        W27314  11.073   8.326  12.918 -0.1646  0.1802 -0.0298
11241W        W27315  14.569  10.694   1.650  0.1844 -0.0459  0.1583
11242W        W27316  16.307   4.535  13.692 -0.1002  0.4377  0.0014
11243W        W27317   5.883   0.425   1.812 -0.1251 -0.0085 -0.0755
11244W        W27318   2.089   1.450   2.207  0.1137 -0.2635  0.2722
11245W        W27319  17.510  14.412  11.061 -0.0245 -0.2102  0.1094
11246W        W27320  11.458   0.397  13.343  0.2467  0.0747 -0.0313
11247W        W27321  10.668   2.772   4.059 -0.0793 -0.0206 -0.0587
11248W        W27322  17.128  12.381   2.317 -0.0762 -0.1730  0.1421
11249W        W27323  15.320   0.981  14.332  0.4190 -0.1429 -0.2587
11250W        W27324  15.331  17.952   1.334 -0.2932 -0.4326  0.0955
11251W        W27325  17.964   2.910  14.006 -0.0441  0.2711  0.0896
11252W        W27326  17.766   9.529  15.116  0.0006 -0.1460  0.3116
11253W        W27327   9.815   4.589   6.205  0.1340 -0.1410 -0.1746
11254W        W27328  14.943   2.788  11.768 -0.1888 -0.1039  0.1286
11255W        W27329   1.189   7.890  11.024  0.0349 -0.2240  0.0307
11256W        W27330  12.358   1.598   4.869 -0.1472  0.0141 -0.0159
11257W        W27331   7.237  15.858  14.862 -0.1451  0.5263  0.4925
11258W        W27332  11.313  11.565   3.501 -0.0488 -0.1250  0.1089
11259W        W27333   6.746  17.830  11.700  0.0278  0.0037  0.2999
11260W        W27334  12.463   2.378   0.182 -0.2439 -0.1669  0.2823
11261W        W27335   3.921   8.234   4.912 -0.0705  0.1796  0.1835
11262W        W27336   1.473   8.114  14.345 -0.2294 -0.0055 -0.3948
11263W        W27337   9.504   7.183  16.308  0.2289  0.0472  0.1450
11264W        W27338  11.210   2.054   4.632 -0.1931  0.0674 -0.2551
11265W        W27339   2.792  15.877   1.300 -0.2100  0.0832 -0.2302
11266W        W27340  13.863   8.795  14.122 -0.1215  0.0923  0.2252
11267W        W27341  14.735   9.923   2.839  0.3428 -0.3742  0.1195
11268W        W27342   1.650   9.295  12.107  0.1097  0.1110 -0.1876
11269W        W27343   8.490   7.847  13.836  0.1482  0.0148  0.2936
11270W        W27344  16.114  14.676  12.274 -0.4146 -0.0661  0.0273
11271W        W27345   5.178   6.021  11.573 -0.3550 -0.0127  0.0390
11272W        W27346  11.857   9.213   0.821 -0.2263  0.1095 -0.2093
11273W        W27347   8.712   7.703   5.125 -0.0574 -0.5247  0.0018
11274W        W27348   6.248  16.442   1.054 -0.1095 -0.1960 -0.2870
11275W        W27349   3.707   0.291  13.622 -0.0117  0.0150 -0.1613
11276W        W27350   4.413  17.259  16.078 -0.0191  0.0434  0.4537
11277W        W27351   1.299  17.763   5.919  0.0940  0.0528  0.0835
11278W        W27352   5.168  11.360   0.613 -0.0926  0.1042 -0.1899
11279W        W27353   4.358   3.207   0.105 -0.0334 -0.0818 -0.2724
11280W        W27354  13.843  11.908   2.987 -0.1209 -0.1841  0.1671
11281W        W27355   5.119   9.009   3.316  0.1783 -0.3572  0.2208
11282W        W27356   4.899   4.530  11.861  0.1489  0.3277  0.1633
11283W        W27357   4.013  17.233  15.033  0.1776  0.0430 -0.1015
11284W        W27358  16.088   0.932   1.860 -0.1404 -0.0452 -0.0810
11285W        W27359   9.949   0.745  12.612  0.3253 -0.0509  0.0729
11286W        W27360   1.127   9.703   1.660  0.3450  0.0513 -0.0635
11287W        W27361  15.764   9.567  14.871  0.0608 -0.3432  0.3690
11288W        W27362   9.082  13.798   5.673 -0.1116 -0.2978  0.0065
11289W        W27363   7.298   9.127  16.047  0.3101 -0.1879 -0.1035
11290W        W27364   2.566  15.396   0.827  0.1576 -0.1103  0.1731
11291W        W27365   6.898   4.637   0.717  0.1951  0.2282  0.2840
11292W        W27366   2.117  16.624   0.704 -0.1662 -0.0957 -0.2593
11293W        W27367  11.489  16.709  16.016  0.2537 -0.1030 -0.1722
11294W        W27368  11.324  10.999  15.800 -0.3656 -0.0104  0.2778
11295W        W27369  11.994   4.788   1.371  0.1909  0.1075  0.0085
11296W        W27370   9.346  16.463   4.284 -0.0201 -0.0949  0.0221
11297W        W27371  14.217   1.722  13.011  0.0269  0.0460  0.0159
11298W        W27372  14.943   9.813   0.706  0.1153 -0.0748  0.0121
11299W        W27373  16.059  12.433  12.581  0.0195  0.1276 -0.0173
11300W        W27374  14.483  14.418  16.044  0.1575  0.0200 -0.0151
11301W        W27375   2.581   8.634   1.184  0.2485  0.2359 -0.3634
11302W        W27376   6.464   7.462   0.004  0.1080  0.0394 -0.0924
11303W        W27377   7.021  16.113  14.483  0.1279 -0.0301  0.0135
11304W        W27378   2.026   3.369   2.967  0.1710  0.0945  0.2051
11305W        W27379   7.831   2.617  12.266 -0.0671  0.0923 -0.2226
11306W        W27380   0.616  16.241  10.985  0.1798  0.1447  0.0450
11307W        W27381   9.080   6.634   4.142 -0.1354  0.3506 -0.1376
11308W        W27382   1.198  14.481   4.271  0.1503  0.0659  0.2391
11309W        W27383   0.579   8.978   0.232  0.2164  0.0504 -0.1687
11310W        W27384  10.775   8.259  15.866  0.0032  0.3229  0.0084
11311W        W27385   9.299   0.661   0.557 -0.0480  0.1402 -0.0494
11312W        W27386   7.954  14.047  16.110 -0.2616  0.0134 -0.0789
11313W        W27387   9.962  13.279   3.497  0.0084  0.2049  0.1433
11314W        W27388  10.720   7.986   0.088 -0.0568  0.0190  0.0874
11315W        W27389   0.347  10.040   3.702  0.1474  0.0876 -0.1854
11316W        W27390  14.559  11.607  11.534  0.0607 -0.0378  0.1079
11317W        W27391  11.935   7.971  12.207 -0.0025  0.2739 -0.1243
11318W        W27392  16.892  13.978   0.288 -0.1326  0.0379 -0.2698
11319W        W27393   1.642  15.510   0.316  0.0748  0.3927  0.3183
11320W        W27394  10.258  11.802   5.550  0.2246  0.0091  0.0689
11321W        W27395   3.891  18.018  13.830  0.0734  0.2876  0.1780
11322W        W27396  15.173   6.760   0.036  0.0839 -0.2326 -0.0765
11323W        W27397  11.391   7.674   1.111 -0.1434  0.1127  0.0417
11324W        W27398   9.198   6.204  14.102 -0.2339 -0.1760  0.0404
11325W        W27399   1.942  17.825  11.383  0.1487  0.1252  0.1094
11326W        W27400  14.227  17.106  13.171 -0.1235  0.2722  0.1788
11327W        W27401  11.269  15.739  14.322  0.2280 -0.2303  0.1281
11328W        W27402   9.964  11.415   5.724  0.0410 -0.0978  0.0546
11329W        W27403   6.125   1.808   3.487 -0.2180 -0.2323  0.2385
11330W        W27404  14.737   9.404  15.091 -0.1723  0.0309  0.1307
11331W        W27405   5.086   9.759  11.562  0.2636 -0.1056  0.1251
11332W        W27406   4.157  15.495  13.219  0.1469 -0.1160 -0.0220
11333W        W27407  15.748  14.539   5.791  0.2555 -0.2808  0.4232
11334W        W27408  16.637   3.968   4.359 -0.0181 -0.1278 -0.1488
11335W        W27409   8.778  14.613   5.900  0.0754  0.2766  0.2985
11336W        W27410   0.623  12.550   4.500  0.1292 -0.0959 -0.3879
11337W        W27411   7.035   0.191  12.853 -0.0118  0.1070  0.2404
11338W        W27412   9.994   1.698   1.811  0.1835 -0.1748  0.2658
11339W        W27413  17.535  12.328   2.640  0.0317 -0.0302 -0.1704
11340W        W27414   3.960   3.753  11.632 -0.1104  0.1264  0.0432
11341W        W27415  15.720   1.574  15.483  0.3946 -0.1139 -0.2879
11342W        W27416   4.342   6.027   5.673  0.4638  0.3007 -0.0448
11343W        W27417  11.824  16.771   0.675 -0.0747  0.0322 -0.1673
11344W        W27418  13.176   8.323  15.479  0.1087  0.0315  0.0535
11345W        W27419   1.671  10.673   1.411  0.1961 -0.1749 -0.0349
11346W        W27420   4.795  11.435   0.944 -0.5455 -0.0124  0.3788
11347W        W27421   7.313   0.824  14.345 -0.3192  0.0988  0.3087
11348W        W27422   9.879   5.416   0.328  0.0070 -0.1010  0.1176
11349W        W27423  16.299   2.719   1.986 -0.1689 -0.1553 -0.1656
11350W        W27424  13.426  11.831  15.597  0.0890  0.0674  0.0029
11351W        W27425   5.972  18.204   0.687  0.0598  0.0234  0.1698
11352W        W27426   0.555  13.558   4.485  0.0240 -0.3633  0.2887
11353W        W27427   8.611  14.814   0.280 -0.0888 -0.0668 -0.0168
11354W        W27428   8.580  12.966   1.595  0.0480  0.1913 -0.0541
11355W        W27429   0.022  10.249  12.396  0.6016  0.0496 -0.1786
11356W        W27430  17.670  16.572  15.897  0.0629  0.0114  0.0312
11357W        W27431   0.581  12.306   3.491  0.1234  0.1616 -0.1271
11358W        W27432  14.155   5.744  13.051  0.0726  0.2017 -0.2785
11359W        W27433   8.849  14.977  13.703 -0.4093  0.0144  0.1885
11360W        W27434   3.108  13.255   0.128 -0.1819  0.1109  0.0701
11361W        W27435   2.789   5.602  14.746 -0.2426  0.0248  0.0768
11362W        W27436   8.604   7.602   0.034 -0.0977  0.0536 -0.1078
11363W        W27437   9.376  17.223   2.125  0.0852  0.3184 -0.3601
11364W        W27438   8.853  10.486   5.627  0.0444  0.0065  0.2734
11365W        W27439  14.637  18.218   3.698  0.0273  0.3904 -0.0861
11366W        W27440   0.376   2.327   4.743 -0.0601  0.0353 -0.2318
11367W        W27441   6.087   3.780   3.804 -0.2960 -0.2151 -0.0231
11368W        W27442  17.575  12.986   0.589 -0.0471  0.1913  0.1521
11369W        W27443  11.090  17.254   4.658 -0.0444 -0.0174  0.1795
11370W        W27444  15.139   5.478   1.168  0.2537  0.1847 -0.2290
11371W        W27445   1.670  11.793  14.072  0.2581 -0.0867 -0.3920
11372W        W27446   1.076   7.880  15.468 -0.0599 -0.2191  0.3059
11373W        W27447   5.477  15.265  12.824  0.0377 -0.1124 -0.2339
11374W        W27448   1.765   4.320  11.528 -0.1449 -0.0587 -0.0284
11375W        W27449   2.365   7.734   4.325  0.0120  0.1283 -0.2393
11376W        W27450  14.368  15.882  12.285 -0.0340  0.0827  0.3201
11377W        W27451  17.728   5.816   1.039 -0.0288  0.1968  0.0197
11378W        W27452   1.276  10.477   2.298  0.1491 -0.0572  0.1374
11379W        W27453  16.696   2.789  14.152 -0.0087 -0.0982  0.1352
11380W        W27454   4.873  13.003  14.029 -0.2132  0.1210 -0.1648
11381W        W27455   6.805   1.527  15.981 -0.4420 -0.2372 -0.0744
11382W        W27456  12.805   1.713   3.085  0.0230 -0.1706  0.0038
11383W        W27457  16.377   7.457  16.004 -0.1960  0.1998  0.1489
11384W        W27458   8.442   2.980  15.230 -0.3878  0.0115 -0.0568
11385W        W27459   0.784  11.369   4.667 -0.3745  0.1157 -0.1907
11386W        W27460  12.056   8.479   1.258 -0.1931 -0.1365 -0.0920
11387W        W27461   8.877   4.819  11.666  0.1000 -0.2348  0.2154
11388W        W27462   6.622  16.595   4.705 -0.3302  0.0996  0.1337
11389W        W27463   6.815  12.080   2.967 -0.0769  0.0472  0.0834
11390W        W27464   7.249   9.924  11.964  0.1011  0.0684  0.0436
11391W        W27465   2.337   7.333   5.269 -0.1682 -0.3095  0.1757
11392W        W27466  12.624   1.192  14.059  0.1752  0.1012 -0.0367
11393W        W27467  13.411   3.374   3.740 -0.0138  0.0657  0.0802
11394W        W27468  16.274   3.693   1.332 -0.2685 -0.0651  0.0951
11395W        W27469  15.074   0.693  11.762 -0.2741  0.2116 -0.1090
11396W        W27470   5.474   4.330  14.658 -0.0393  0.2343 -0.0706
11397W        W27471   5.073   0.934   3.544  0.0833 -0.0322  0.1816
11398W        W27472   1.303   7.518   3.171  0.0135  0.0839 -0.1984
11399W        W27473  14.544   0.782  12.858 -0.0943  0.2261 -0.2132
11400W        W27474  16.924   0.223  15.877 -0.1342  0.0023 -0.1154
11401W        W27475  12.825  18.102   0.286 -0.0502 -0.0961  0.3778
11402W        W27476  17.051  14.936  12.988  0.1327 -0.0668  0.0105
11403W        W27477   8.572  13.272  12.250 -0.2174  0.0697  0.3005
11404W        W27478   1.731  17.169   1.377 -0.2630  0.0227 -0.1124
11405W        W27479  13.214   2.156  13.921  0.0456  0.1316 -0.1311
11406W        W27480   8.694   4.311  14.795  0.1886  0.3513 -0.3177
11407W        W27481  11.977  12.065  12.666 -0.0144 -0.0260 -0.1224
11408W        W27482   2.083   3.312  14.099 -0.1675 -0.0502  0.0207
11409W        W27483   0.740  13.056   3.991 -0.0464 -0.0087  0.0188
11410W        W27484  16.398   4.507  15.921  0.1196  0.0102 -0.1126
11411W        W27485   7.832  13.338   4.224  0.0844 -0.3572 -0.0742
11412W        W27486  16.225   5.508   4.798 -0.1163 -0.2809 -0.3392
11413W        W27487  14.669   9.760  13.056  0.0269  0.2595  0.3819
11414W        W27488   5.209   6.616   5.374  0.4091  0.0607 -0.0207
11415W        W27489   6.073   8.013  15.768  0.1298  0.6287 -0.0664
11416W        W27490  11.706   6.198  13.221  0.3522  0.2594 -0.0221
11417W        W27491  13.344  14.312   1.603  0.0085 -0.0792 -0.4741
11418W        W27492   8.721   6.709   4.534  0.0074 -0.0677 -0.2958
11419W        W27493  14.529  10.057  15.483  0.1006 -0.0645 -0.0884
11420W        W27494   2.251  11.117  14.318  0.2354 -0.2955 -0.3226
11421W        W27495   3.409  15.061  14.204 -0.1697  0.1677 -0.2515
11422W        W27496  16.160   9.132   1.095  0.1622  0.1471  0.1943
11423W        W27497   9.695   8.629  12.161  0.1142  0.1657 -0.0681
11424W        W27498  14.687   7.061   3.271  0.0655 -0.3375 -0.1305
11425W        W27499   7.277   5.010  13.648 -0.2899 -0.0907  0.4228
11426W        W27500   1.630   2.699  15.007  0.0388 -0.1983  0.0871
11427W        W27501  12.227   1.036   2.614  0.5518 -0.1126 -0.1012
11428W        W27502   9.116  16.455   5.338 -0.2036 -0.3302 -0.3442
11429W        W27503   5.587  17.859  12.411 -0.0592 -0.1930 -0.0952
11430W        W27504  12.408   4.437  14.260  0.0392 -0.0380 -0.1344
11431W        W27505  14.699  12.594  11.432 -0.0285  0.0151 -0.0888
11432W        W27506  16.699  15.893  11.208 -0.1944 -0.0756  0.0362
11433W        W27507  18.183   3.162   0.674 -0.0229  0.1356  0.1085
11434W        W27508   4.375   9.852   2.919  0.1422 -0.0646 -0.0937
11435W        W27509   9.360  18.165  15.993  0.0478  0.4207  0.1367
11436W        W27510   0.941  16.499   0.851  0.2856  0.0698 -0.2424
11437W        W27511  14.383  15.961   1.342 -0.0652 -0.1120 -0.0417
11438W        W27512   6.132  10.470   3.409  0.0372  0.2367 -0.1683
11439W        W27513   1.622  12.468   4.520  0.2413 -0.1798  0.2418
11440W        W27514  14.297   1.036   0.254  0.0155 -0.0918 -0.0286
11441W        W27515   6.723  10.567  12.311 -0.0162  0.2854  0.3462
11442W        W27516  17.532  13.172  10.898 -0.0641 -0.2743  0.0436
11443W        W27517  11.605  12.621   3.285 -0.0877 -0.0022  0.2248
11444W        W27518  18.144   6.240   0.717 -0.1179  0.3395 -0.3252
11445W        W27519   7.958   4.948  16.254  0.1763 -0.0113 -0.4295
11446W        W27520  14.691   7.238   1.353 -0.2626 -0.0615  0.0573
11447W        W27521  15.121  10.395   3.804  0.1011  0.2286 -0.0060
11448W        W27522  15.300  15.681  15.681 -0.2397 -0.0746  0.0743
11449W        W27523   1.689  14.900   0.359 -0.0224 -0.4288 -0.1585
11450W        W27524  17.510   5.481   4.230 -0.0086 -0.1667  0.0618
11451W        W27525   7.844  17.823   1.145 -0.0581 -0.0274 -0.0289
11452W        W27526  13.867   0.008   1.165  0.0859 -0.1474  0.0233
11453W        W27527   7.727  13.145   0.658 -0.2138  0.1142 -0.0066
11454W        W27528   1.615   5.263  14.098 -0.3106 -0.2191  0.4698
11455W        W27529  17.404   8.363  14.464 -0.2936  0.0877 -0.1514
11456W        W27530  12.989   5.083  14.691  0.2881 -0.1401 -0.0895
11457W        W27531  10.900   2.648   0.705  0.0306  0.3396  0.2442
11458W        W27532  12.226   0.760   5.029 -0.2783  0.1107  0.2690
11459W        W27533   1.096  10.963  15.915  0.2471  0.1706  0.2013
11460W        W27534  11.690  14.989  15.434 -0.1120 -0.0461  0.2276
11461W        W27535  15.826  13.397   5.145  0.0764 -0.0482  0.1330
11462W        W27536   3.778   5.774  16.404  0.4383  0.2197 -0.1946
11463W        W27537  10.747  13.100  13.091 -0.0700  0.0060  0.1764
11464W        W27538   9.578  11.891  15.842 -0.1036  0.3136 -0.1019
11465W        W27539   9.582   1.664   2.474 -0.3017 -0.0308 -0.0185
11466W        W27540   7.328   5.740  12.670 -0.2215  0.1415  0.0244
11467W        W27541  16.104   6.677   2.486 -0.1251 -0.0662  0.0204
11468W        W27542  15.368   6.177  15.925  0.2633 -0.1713 -0.1360
11469W        W27543   7.724  13.499   5.989 -0.1255 -0.1499 -0.1766
11470W        W27544   7.191   7.228   0.401 -0.1554  0.1809  0.0554
11471W        W27545   8.753   0.036  12.691  0.0717 -0.2539 -0.3892
11472W        W27546   9.669  16.466  16.079 -0.0670  0.0098 -0.3022
11473W        W27547   3.874   3.441  10.804  0.0208  0.0740  0.0414
11474W        W27548  15.362  17.497  13.134 -0.1101 -0.1455 -0.2978
11475W        W27549  13.473   6.122   3.365 -0.2586  0.0887 -0.2268
11476W        W27550   8.243   6.320  15.854 -0.0372  0.3067 -0.3660
11477W        W27551  10.049   4.129  15.123  0.0288 -0.1245  0.0759
11478W        W27552   0.867  14.924  16.453  0.1692  0.0118  0.0635
11479W        W27553  16.656  11.570   1.716 -0.1608  0.1231 -0.2558
11480W        W27554   6.058   7.744   2.238 -0.3208  0.0723  0.1399
11481W        W27555  10.446   9.438   5.644 -0.3418 -0.0944  0.2444
11482W        W27556   1.928   3.667   4.205 -0.1565  0.1360 -0.1041
11483W        W27557   3.786  14.396  16.243 -0.0858  0.1810  0.1156
11484W        W27558   3.784  13.721  15.587  0.3599 -0.2166 -0.2200
11485W        W27559  16.864   4.597   2.268 -0.0250 -0.0778  0.0732
11486W        W27560  15.885  14.867  13.528  0.0021 -0.0803 -0.1027
11487W        W27561   3.354  13.829   5.845  0.4614  0.3832  0.1843
11488W        W27562  11.224  10.221   0.999  0.2958 -0.2170 -0.0268
11489W        W27563  17.863  16.449  10.866 -0.2733 -0.2229  0.0386
11490W        W27564   2.486  15.885  15.677  0.0236 -0.3769  0.0671
11491W        W27565  16.137   0.726  15.917  0.3374  0.1853  0.0565
11492W        W27566   2.115   6.183   4.508  0.0369 -0.1350 -0.2972
11493W        W27567   3.827  11.874  14.194  0.2104 -0.1337  0.0508
11494W        W27568   6.418   3.307   0.808 -0.2442 -0.1173 -0.0952
11495W        W27569   6.894  11.170   1.872  0.0579  0.1742  0.1662
11496W        W27570   6.919   7.536  13.935  0.1350  0.0802 -0.0639
11497W        W27571  16.454  15.617  11.854  0.1804  0.1816  0.0447
11498W        W27572   9.732   3.135  13.095  0.1032 -0.1364 -0.2768
11499W        W27573   3.985   5.651  15.116  0.3555 -0.5314  0.1773
11500W        W27574   0.815  15.084  13.486 -0.4584 -0.0441 -0.0122
11501W        W27575  13.976   3.847   1.298 -0.1218  0.0411  0.2055
11502W        W27576  14.522  12.343  11.877 -0.2057 -0.0594  0.0403
11503W        W27577   0.701  13.648  15.381 -0.0697  0.3206  0.0850
11504W        W27578   9.266   7.464   1.102  0.2153 -0.2551 -0.0387
11505W        W27579   1.367  14.801  14.923  0.0441  0.0092 -0.1927
11506W        W27580   9.306  10.277   5.379  0.0848 -0.0000  0.1455
11507W        W27581  17.608  16.111   4.646 -0.1305 -0.2123  0.1306
11508W        W27582   3.738  12.122  15.588 -0.2744 -0.3167  0.1222
11509W        W27583  11.703   9.923  13.149  0.0438  0.2439  0.0371
11510W        W27584   8.621  10.227   2.335  0.0673  0.1177  0.1339
11511W        W27585   5.483  17.894   1.507  0.2953  0.0061 -0.1472
11512W        W27586  11.775   0.757  13.298 -0.1497  0.1271  0.3729
11513W        W27587   3.042   4.032  15.757 -0.2624 -0.3737  0.1081
11514W        W27588  11.149   9.810   3.729  0.0630  0.1399  0.4536
11515W        W27589  16.255   0.092  12.410 -0.4072  0.1844 -0.0162
11516W        W27590   3.069   2.260  12.726  0.2961 -0.1463 -0.0482
11517W        W27591   7.117   4.408   2.542 -0.0486  0.1455 -0.3339
11518W        W27592  14.704   5.669   5.755  0.2113 -0.0832 -0.2310
11519W        W27593   4.824   3.225   1.069  0.0962  0.0519  0.0571
11520W        W27594  14.326   8.234  14.446 -0.0573  0.2115  0.1986
11521W        W27595   8.409   0.208   1.576 -0.1409  0.0722  0.0641
11522W        W27596   3.565  15.250   2.277  0.1818 -0.4348 -0.1852
11523W        W27597  13.095  17.059  13.139 -0.2115 -0.0436 -0.2624
11524W        W27598  16.575   6.246  15.283 -0.3132 -0.1033  0.0636
11525W        W27599  16.852  13.446   4.539  0.3200 -0.1510 -0.2320
11526W        W27600  16.958   5.316  14.620  0.1204  0.0639  0.1758
11527W        W27601   8.131   2.275   0.740 -0.0607 -0.0147  0.0704
11528W        W27602   6.110  13.561  14.854 -0.0843  0.0147  0.3372
11529W        W27603   6.779  14.300   3.487  0.0361 -0.2068 -0.1647
11530W        W27604  10.648   0.992   0.154  0.0183 -0.3316 -0.0357
11531W        W27605  14.521   9.135  12.049 -0.0021 -0.1933  0.1046
11532W        W27606  13.111  13.085   5.286  0.2488  0.2604  0.3037
11533W        W27607  13.441  18.004  13.128 -0.1270 -0.1220  0.2220
11534W        W27608   6.920  16.999   2.286 -0.0992 -0.1485  0.2704
11535W        W27609  15.012   7.814   3.806 -0.3013  0.1237  0.3136
11536W        W27610  10.085  11.785  12.693  0.0412  0.1187  0.1147
11537W        W27611  12.083   6.125   1.070 -0.0997  0.0607 -0.1413
11538W        W27612  10.399   4.466  15.376 -0.0467  0.2959 -0.2276
11539W        W27613   5.404   4.597   3.853 -0.1875  0.0351 -0.2203
11540W        W27614   1.169  10.351  12.425  0.0149 -0.2155 -0.1958
11541W        W27615   4.683   3.742   3.376 -0.2711 -0.1065  0.0864
11542W        W27616  15.117   8.863  12.165  0.1449  0.1683  0.2100
11543W        W27617   3.243   8.409   0.328 -0.0336 -0.1835  0.3806
11544W        W27618   8.689  11.909  16.269 -0.1250  0.0323 -0.0700
11545W        W27619   9.310   1.071  14.085 -0.0469 -0.0013  0.1147
11546W        W27620   5.600   3.469  11.174  0.2366  0.0772 -0.2314
11547W        W27621  16.415  10.635   1.419 -0.0216  0.0372  0.0169
11548W        W27622   8.155   7.357  15.539 -0.1270  0.0586 -0.4253
11549W        W27623   0.682  16.490   3.865 -0.2161  0.1391  0.0688
11550W        W27624  18.116  15.882   3.683 -0.0473 -0.0668 -0.2790
11551W        W27625  16.657  14.529   0.241 -0.5009  0.1757 -0.0505
11552W        W27626  16.581   7.014  14.102  0.0477 -0.1639  0.1703
11553W        W27627   6.892  13.320  15.492 -0.1713  0.1450 -0.3734
11554W        W27628   2.463  12.420  12.010  0.0633 -0.0197 -0.0509
11555W        W27629   3.388   3.923   4.597 -0.1665 -0.0738  0.2712
11556W        W27630   9.374  16.832   4.658  0.1727 -0.1860  0.1058
11557W        W27631   0.328   5.086  15.819 -0.2534  0.1091 -0.2966
11558W        W27632   7.085   5.367   0.213  0.1117  0.3054  0.0447
11559W        W27633   5.618   6.460   0.039 -0.0728  0.1660  0.1830
11560W        W27634  18.002   1.641  15.936 -0.1716 -0.0939  0.0030
11561W        W27635   5.369  14.931  15.100  0.1554 -0.1720  0.0133
11562W        W27636  11.746  14.687   0.789  0.1817  0.2061 -0.0809
11563W        W27637   2.785   9.579  13.650 -0.0427 -0.0325 -0.1481
11564W        W27638  16.867  14.355   3.595 -0.1746  0.3589  0.0566
11565W        W27639   8.803   6.581   2.770  0.1687 -0.2157 -0.0425
11566W        W27640  10.827  11.427   1.176  0.2532 -0.0987 -0.0506
11567W        W27641  13.778   9.952   3.106 -0.1500 -0.2203 -0.1671
11568W        W27642   4.475   1.057  12.367  0.1444  0.2818  0.1313
11569W        W27643  16.669   7.235   2.069  0.1313 -0.1881 -0.0413
11570W        W27644  18.003   9.261   4.987 -0.2141 -0.0247  0.0721
11571W        W27645  12.696  17.062   2.687  0.3609 -0.2928 -0.1292
11572W        W27646   8.253   5.924   0.229 -0.2380 -0.3423  0.0560
11573W        W27647   9.476   5.604  15.059  0.2801 -0.1413 -0.0694
11574W        W27648  11.882   6.297   1.635 -0.0452  0.1899  0.2870
11575W        W27649   5.080  16.215   2.981 -0.0077  0.2086 -0.1268
11576W        W27650   2.837   5.903   5.335  0.2054  0.3621 -0.4122
11577W        W27651   3.065  14.561   1.872  0.0693  0.1421 -0.0581
11578W        W27652   5.515   1.955  15.604  0.4144 -0.2735  0.0169
11579W        W27653  15.362  16.789   2.676 -0.2059 -0.0497  0.2836
11580W        W27654   3.286   3.048   1.288 -0.0794  0.0838 -0.5548
11581W        W27655  15.677   3.436  14.895  0.2572 -0.0987 -0.2449
11582W        W27656  13.891  12.752   1.531 -0.0240 -0.0677 -0.0350
11583W        W27657  15.941   1.960   1.675  0.0096  0.1137 -0.0916
11584W        W27658  17.561  12.619  11.512  0.0790 -0.3334 -0.1617
11585W        W27659   6.282   5.525  14.033  0.0961  0.1483 -0.1604
11586W        W27660   8.409  16.446   4.026 -0.0077  0.1319 -0.1735
11587W        W27661   0.647  10.694  14.646  0.2132  0.4338 -0.1029
11588W        W27662  17.508   0.745  15.120 -0.2474 -0.1075  0.0030
11589W        W27663  15.864  15.558   1.415 -0.1722  0.1616 -0.1010
11590W        W27664   3.511   0.091   4.379 -0.0106 -0.3448  0.0288
11591W        W27665   5.496   9.809   1.719 -0.1612  0.1051  0.3345
11592W        W27666  14.861  14.117  12.339  0.0681 -0.0403 -0.0080
11593W        W27667   1.765  13.119  16.495 -0.0687  0.2392  0.2324
11594W        W27668   1.829   0.974   0.569  0.2117  0.0219  0.1918
11595W        W27669  16.111   8.231  11.771  0.0491  0.1606 -0.2510
11596W        W27670   0.236   0.436  12.449 -0.1093  0.2972 -0.0139
11597W        W27671   8.296  17.112   2.111 -0.1403  0.2269 -0.1468
11598W        W27672  14.052   6.866   0.816  0.0849  0.0306  0.2604
11599W        W27673   9.928   6.671  12.289 -0.1884  0.1102  0.0249
11600W        W27674   5.830   2.380   2.374  0.0452  0.3317 -0.0095
11601W        W27675   9.721  15.569   5.202  0.1754 -0.2032  0.0219
11602W        W27676  10.841   9.584   2.363  0.0665 -0.0796  0.0081
11603W        W27677  13.851   6.907   0.146 -0.0563  0.1731  0.0563
11604W        W27678  13.569   3.436   5.923 -0.0034  0.0090 -0.1747
11605W        W27679  10.739  16.750   3.638 -0.0751 -0.3233  0.1439
11606W        W27680  12.532   5.904   0.289 -0.1980 -0.5147  0.2794
11607W        W27681  11.764  14.687  13.113  0.2170 -0.2186 -0.2510
11608W        W27682   1.763  15.033  14.737 -0.1880 -0.2263  0.0722
11609W        W27683  15.188   3.181  12.985  0.1785  0.1318 -0.2791
11610W        W27684   9.190   6.851   5.272  0.0183  0.0865  0.2770
11611W        W27685  17.330  15.871   3.930 -0.0150  0.1546  0.1208
11612W        W27686   4.922   7.621  11.762 -0.1035  0.1787  0.1639
11613W        W27687   3.019   5.671   0.412  0.0532 -0.1345 -0.4786
11614W        W27688   4.657  16.465   6.133  0.0817  0.0270  0.0916
11615W        W27689  10.878   9.067   5.539 -0.0290 -0.0100  0.2120
11616W        W27690  14.970   3.155  15.210  0.0528  0.1112 -0.0353
11617W        W27691  10.975  17.700   1.589  0.5315  0.3404 -0.2787
11618W        W27692   1.156   5.553  14.071 -0.1895 -0.0019  0.1256
11619W        W27693  14.092  16.333  15.539 -0.1836  0.4324 -0.0518
11620W        W27694   3.528  10.811  13.155 -0.0509 -0.0039 -0.2571
11621W        W27695  11.432   3.871  15.424 -0.0976  0.4785 -0.1279
11622W        W27696   8.069   5.120   4.171  0.2721  0.2228  0.0622
11623W        W27697   6.624   3.835   1.844 -0.4907  0.0584 -0.1504
11624W        W27698  15.448   4.357  16.123 -0.0789 -0.1279 -0.0406
11625W        W27699  10.002  17.083   3.869  0.1386 -0.1906 -0.0016
11626W        W27700  14.576   2.165  13.931  0.0097  0.1679  0.0861
11627W        W27701  10.418   7.216   2.985 -0.1661 -0.2091 -0.1813
11628W        W27702   6.173   3.277  12.241  0.4947 -0.1169  0.0199
11629W        W27703  15.989  15.319  16.182 -0.0605  0.1120 -0.1842
11630W        W27704  11.450  11.539  11.956  0.2736 -0.2509  0.0757
11631W        W27705   8.392  15.952  14.406 -0.0062 -0.0427  0.1870
11632W        W27706   6.081   3.130  14.232 -0.0996 -0.1040 -0.1159
11633W        W27707  11.890   0.339   0.128  0.1735 -0.0229  0.0814
11634W        W27708   3.711  15.261  13.852  0.2364 -0.2212  0.0494
11635W        W27709   0.752   8.758   5.570  0.0739 -0.0825  0.1388
11636W        W27710   3.335  12.703  11.543  0.0859  0.1874 -0.0665
11637W        W27711   8.400   5.009  11.981  0.1386  0.0639  0.0070
11638W        W27712   1.868  13.440  13.151  0.0904  0.1164 -0.3549
11639W        W27713  17.369   2.404  15.655  0.1022 -0.0413  0.0013
11640W        W27714  16.465   3.205  11.249  0.0079  0.0286 -0.0775
11641W        W27715  14.812  13.935   4.338 -0.0655 -0.0024 -0.2269
11642W        W27716   9.741  17.101  12.464 -0.1106 -0.0579  0.0519
11643W        W27717  16.136   3.130  11.623  0.3777 -0.1746  0.2423
11644W        W27718   2.556  15.194  13.223 -0.2723 -0.1399  0.2757
11645W        W27719  11.123   5.855  15.794  0.1191 -0.0873 -0.0893
11646W        W27720  12.770  15.813   5.308  0.2499  0.1618 -0.0815
11647W        W27721   9.778  16.359   1.026 -0.1972 -0.0436 -0.0198
11648W        W27722   8.056   3.089  13.706  0.4175  0.0195 -0.1623
11649W        W27723   5.330   2.778   5.006  0.0317 -0.1158  0.4961
11650W        W27724  10.669  16.929  15.336 -0.1404 -0.0046 -0.0012
11651W        W27725   1.690   5.464   5.574  0.0994  0.1973  0.3061
11652W        W27726   6.364  11.712   3.809 -0.1251  0.0338  0.0544
11653W        W27727  15.018  17.787  14.350 -0.2410  0.1072 -0.0017
11654W        W27728   5.203  13.166  14.775  0.0398 -0.1517 -0.4471
11655W        W27729  11.497   4.136   5.006  0.3611 -0.3178 -0.1588
11656W        W27730   6.891  17.159   1.230 -0.3587 -0.0084 -0.2001
11657W        W27731   8.442   7.958   5.753 -0.0328  0.0647 -0.0819
11658W        W27732   1.386  15.865  15.088  0.0246  0.2898 -0.2359
11659W        W27733   9.169   1.565   0.324 -0.0774 -0.3614  0.1430
11660W        W27734   8.276   6.845   0.331 -0.0582 -0.0017  0.0530
11661W        W27735   4.496   6.100  15.314 -0.2506  0.3321  0.1430
11662W        W27736  15.531   9.952  14.744  0.0201  0.0294  0.1706
11663W        W27737  13.719   6.862   2.000 -0.1648 -0.0849  0.2814
11664W        W27738   0.859   8.378  14.018 -0.0865 -0.2445  0.0281
11665W        W27739   0.951  15.349   0.099  0.0341 -0.0325 -0.1320
11666W        W27740   8.768   5.196  14.665  0.0793 -0.0418  0.0953
11667W        W27741  15.387  10.846   3.013  0.3222  0.0468  0.1137
11668W        W27742   8.485  12.203  13.107 -0.2937 -0.2525 -0.2645
11669W        W27743   1.044   1.573   3.988  0.0863  0.0704  0.2285
11670W        W27744  16.295   7.913   1.426 -0.1199 -0.1843  0.1131
11671W        W27745   5.207  12.601   3.007 -0.1543 -0.0424  0.4246
11672W        W27746  13.871  12.035  13.370 -0.2602  0.3693 -0.3221
11673W        W27747   0.321   2.038   0.298  0.2813  0.0026  0.1025
11674W        W27748  14.360  10.648   3.161  0.2128 -0.0575  0.1480
11675W        W27749   1.834   4.719   4.290  0.1340 -0.2690  0.3185
11676W        W27750  10.047   1.102   1.906 -0.0748 -0.0287 -0.1489
11677W        W27751   9.573   3.097   4.764 -0.2213  0.0751  0.0219
11678W        W27752   1.700   0.527   4.211  0.2552  0.1271  0.2021
11679W        W27753   3.373   2.666   4.229  0.1353  0.1654  0.0489
11680W        W27754  16.862  13.363   5.095 -0.4331 -0.0958 -0.1543
11681W        W27755  17.537   6.321  15.115  0.3412 -0.1073 -0.4411
11682W        W27756  10.171   4.274   2.438  0.0400 -0.2053  0.2298
11683W        W27757  17.454   1.517  10.743 -0.3309  0.2830  0.2713
11684W        W27758  17.356   2.103  11.956 -0.1321  0.1367 -0.0260
11685W        W27759  15.460  11.949  11.551  0.0893  0.2023  0.0709
11686W        W27760   2.529  14.680  13.479 -0.4050 -0.2075 -0.1701
11687W        W27761   5.968  13.236   2.757  0.0454  0.1068 -0.1109
11688W        W27762   5.003   5.723  11.961  0.1253 -0.1030  0.0713
11689W        W27763   9.753  10.825   0.906  0.2464  0.1699  0.3586
11690W        W27764   3.920  15.978   5.682  0.2095 -0.0180 -0.0087
11691W        W27765   1.196  12.457  14.569 -0.1358 -0.0062  0.2458
11692W        W27766  15.340  15.539  13.970  0.0566  0.1151  0.0399
11693W        W27767   3.894   7.172   2.571  0.0036  0.2620 -0.0575
11694W        W27768   0.456  14.433   2.543  0.0427 -0.3968 -0.1581
11695W        W27769  16.514   6.776  15.441 -0.1735 -0.0549  0.0970
11696W        W27770   2.097   6.378  13.982  0.0598 -0.3394  0.1979
11697W        W27771   7.280  13.620  15.588  0.3200  0.0848  0.2534
11698W        W27772   8.409   6.999   3.862  0.2892 -0.1810 -0.0739
11699W        W27773  18.125  17.644  11.504  0.1098 -0.0120 -0.3150
11700W        W27774   0.124  17.415  14.310 -0.2742  0.1496  0.1425
11701W        W27775   0.244   5.047   2.301  0.2684 -0.2985 -0.0555
11702W        W27776  12.930   6.678  15.711 -0.2888 -0.1510 -0.2406
11703W        W27777   6.015   1.719  16.399 -0.2932 -0.0200 -0.1658
11704W        W27778  13.146  14.925  10.926 -0.0997 -0.3678 -0.2922
11705W        W27779   8.269  14.949  11.029  0.3490  0.0533 -0.1874
11706W        W27780   0.960   2.553   3.251 -0.0934  0.0537 -0.1943
11707W        W27781  10.739  13.452  15.341  0.0622 -0.1222  0.3138
11708W        W27782   3.602   5.415   5.954  0.1933  0.2730  0.1371
11709W        W27783  16.363   0.028   1.668 -0.0092 -0.3072 -0.1099
11710W        W27784   6.107  10.713   2.967  0.0177 -0.2602  0.1250
11711W        W27785   8.060  10.192  14.418  0.1645 -0.0327  0.0279
11712W        W27786   7.781  10.082   1.942 -0.3149 -0.1019 -0.0337
11713W        W27787  10.495  11.533  14.545 -0.0741  0.2659 -0.1838
11714W        W27788   2.379  13.236  14.024  0.1357  0.2295  0.3370
11715W        W27789   2.850  10.592   3.487  0.2485  0.0972 -0.0818
11716W        W27790  17.376   9.813  11.416 -0.2306  0.1550  0.2678
11717W        W27791  15.565   7.716  16.393  0.0133  0.1203  0.0818
11718W        W27792  17.233   5.026   4.911 -0.1394 -0.1601 -0.1479
11719W        W27793   8.423  17.100  15.288 -0.1770  0.0825 -0.0708
11720W        W27794  16.630   1.862   0.964  0.1061 -0.0818 -0.3690
11721W        W27795   5.132   0.317  14.157 -0.0078 -0.0842 -0.0898
11722W        W27796   3.802  16.456  13.805  0.0204 -0.3568 -0.1260
11723W        W27797  13.241  12.766   0.860 -0.1485 -0.1337 -0.0946
11724W        W27798  11.949  17.801   5.896  0.1255 -0.1032 -0.0172
11725W        W27799   3.411  15.484   4.257  0.1104 -0.2307 -0.0397
11726W        W27800   3.534   5.514   0.320 -0.1065  0.4180  0.3435
11727W        W27801  18.105   6.504   2.906 -0.2240  0.0555 -0.1496
11728W        W27802   1.227  12.960  16.311  0.1794 -0.0700  0.1722
11729W        W27803  10.178  16.292   0.680 -0.3951  0.4165 -0.2419
11730W        W27804   2.757   0.539   5.504  0.1652 -0.0313 -0.0168
11731W        W27805   6.422   4.974   1.162  0.2371 -0.0898  0.1620
11732W        W27806   8.696   3.554   4.984 -0.0383  0.1693  0.0894
11733W        W27807  12.110   6.015   0.583 -0.0952 -0.1575 -0.3518
11734W        W27808   6.364   7.687   3.200  0.0736 -0.0365  0.0045
11735W        W27809   0.831   7.346   1.999 -0.1369  0.1536 -0.3072
11736W        W27810  10.997  17.374   2.450 -0.0605 -0.0506 -0.0193
11737W        W27811   6.271   6.114  14.267  0.0979  0.2185  0.1266
11738W        W27812   7.692   0.789  12.166  0.0639 -0.1544 -0.0499
11739W        W27813   6.791  16.419   2.129 -0.0604 -0.3956  0.1950
11740W        W27814  12.767   5.863  12.471  0.1317  0.0131 -0.0787
11741W        W27815  10.793  11.506  14.103  0.1882 -0.2383  0.1903
11742W        W27816   0.251  10.705  12.411 -0.0231  0.0691 -0.2221
11743W        W27817  13.274  12.789  11.792 -0.0709  0.0676  0.1143
11744W        W27818   9.273   1.288  15.862 -0.0996  0.3554  0.1481
11745W        W27819   9.852   3.135   5.428  0.1154 -0.1289 -0.4583
11746W        W27820   3.390   1.848   2.108 -0.0316 -0.0959  0.2413
11747W        W27821   2.257  17.414   0.248 -0.1272 -0.0102  0.0100
11748W        W27822   6.551   4.411   4.161 -0.1625 -0.2695  0.1076
11749W        W27823   8.940   6.953  16.187  0.1887 -0.3639 -0.0270
11750W        W27824   2.959  12.663  14.659 -0.1506  0.0107  0.1181
11751W        W27825  15.157   7.485   5.782 -0.2684  0.1239  0.0353
11752W        W27826   9.175  11.851  15.028 -0.1797  0.1130 -0.0156
11753W        W27827  15.727   0.068   2.408  0.0111  0.0706 -0.0595
11754W        W27828   6.353   6.023   4.947  0.0712 -0.0445 -0.4994
11755W        W27829   4.927   0.573  11.647  0.1755 -0.3854  0.0204
11756W        W27830   6.909  10.948  14.316  0.1852  0.0783  0.2271
11757W        W27831  13.218  11.345  13.917 -0.2195 -0.1482 -0.0766
11758W        W27832   4.122   2.405  15.608  0.2363  0.3581  0.0056
11759W        W27833  11.086   4.016   0.352 -0.0390 -0.1596 -0.1450
11760W        W27834  11.941  15.557   0.186 -0.0647  0.2945 -0.0695
11761W        W27835   0.684   6.696  11.160  0.1709  0.1446  0.4307
11762W        W27836   1.885  12.019  12.836  0.1580  0.2344  0.2953
11763W        W27837  15.799  15.390  13.612 -0.1453  0.0109  0.1013
11764W        W27838   2.348  13.144  15.073  0.0163 -0.1795  0.0320
11765W        W27839   0.134   6.822   5.187 -0.1886  0.1856  0.0575
11766W        W27840  14.165   0.332   4.612  0.0065 -0.2690  0.0452
11767W        W27841  11.407  13.748   2.544  0.3557  0.0160 -0.3027
11768W        W27842  15.935  13.308  14.184  0.3569 -0.0721  0.0378
11769W        W27843  17.171  13.523   5.949 -0.0723  0.0061 -0.0215
11770W        W27844   2.054   8.336   1.507  0.1508 -0.0023 -0.1357
11771W        W27845  16.223   7.318   0.689  0.0230  0.0688  0.1954
11772W        W27846  12.882   9.842   5.179  0.0455 -0.1174 -0.0913
11773W        W27847   0.844  15.639   1.747 -0.0089 -0.0944  0.1108
11774W        W27848   1.759  16.962   4.512  0.1605  0.1148  0.1268
11775W        W27849  14.567  12.786   1.889 -0.1780  0.2219 -0.0353
11776W        W27850   2.599   5.131   5.238 -0.2279 -0.0615 -0.0485
11777W        W27851   8.758  16.315   0.394 -0.2113  0.0242 -0.1901
11778W        W27852   3.654  14.418   4.374  0.0211  0.2240  0.1388
11779W        W27853   6.757   7.478   0.372 -0.2252 -0.1930  0.0264
11780W        W27854  14.978   5.938   2.045 -0.2805 -0.2514  0.0844
11781W        W27855   9.691  10.788  12.611  0.1005 -0.0258 -0.2196
11782W        W27856   8.162  17.765   4.170  0.2160 -0.0081 -0.1305
11783W        W27857   5.207  11.059   5.053  0.0155  0.5310 -0.0438
11784W        W27858   5.236  10.962  16.055 -0.1160 -0.0445  0.1768
11785W        W27859   1.978  16.606  12.691  0.1431 -0.1054 -0.0361
11786W        W27860   3.263   9.376  13.480  0.1371  0.0561 -0.0041
11787W        W27861  12.801   9.271   0.266  0.2797  0.1326 -0.1700
11788W        W27862  17.584   1.278   4.583  0.1396  0.1455 -0.3136
11789W        W27863   6.779  11.492   6.516  0.0405 -0.0433 -0.1401
11790W        W27864  15.736   9.566  16.041  0.0378 -0.0489  0.1156
11791W        W27865   1.045  14.094   5.146 -0.0709 -0.3813  0.4047
11792W        W27866   0.425   5.470  10.604 -0.1201 -0.3264  0.2264
11793W        W27867   8.593  17.238   1.482  0.0459  0.1271  0.0276
11794W        W27868  12.270  12.677  15.877 -0.1651  0.1786  0.1976
11795W        W27869   8.263  16.466  14.081  0.1494 -0.0474  0.1342
11796W        W27870   8.931   5.484   1.878 -0.0917  0.3631  0.1254
11797W        W27871   6.702   1.101   4.546 -0.4335  0.3016  0.0746
11798W        W27872   0.088   6.727  10.706  0.0605  0.1825  0.3542
11799W        W27873   1.041  15.917  15.544 -0.0501  0.3066  0.1302
11800W        W27874  17.144   8.847   2.268  0.0666  0.0334 -0.1107
11801W        W27875   2.789  14.607  11.678  0.4348 -0.0884 -0.2096
11802W        W27876   3.840  16.123   2.940  0.0557  0.3163 -0.0863
11803W        W27877  12.389  12.105   2.005  0.0027 -0.0731 -0.1945
11804W        W27878  13.983  12.397  14.353 -0.1713  0.1334  0.0929
11805W        W27879  17.104  10.266   4.753 -0.2741 -0.2147  0.2135
11806W        W27880  17.893  18.192   5.911 -0.2252  0.2137 -0.1244
11807W        W27881   0.570   1.533   0.309 -0.0326 -0.1902  0.0532
11808W        W27882  17.850  13.744  12.348  0.0472  0.0200 -0.3490
11809W        W27883   1.765   8.402  14.083  0.0853 -0.0759  0.0646
11810W        W27884   5.933  16.513   0.565 -0.0286 -0.0391  0.1347
11811W        W27885   4.325  11.441   1.993  0.1262  0.1728  0.1246
11812W        W27886   0.710  11.446   0.475 -0.1658  0.3734 -0.2262
11813W        W27887   7.828   8.294  13.351  0.0154 -0.0397  0.1540
11814W        W27888  14.663   1.564  11.068 -0.0101 -0.1987 -0.0508
11815W        W27889   2.738   2.397   0.041  0.1919  0.2855  0.3395
11816W        W27890   0.490  17.705   4.805 -0.0762  0.2740 -0.2116
11817W        W27891  11.102  14.576   4.951 -0.2347 -0.0839 -0.0759
11818W        W27892  16.292  12.020   3.505 -0.5584 -0.1645 -0.0696
11819W        W27893   3.035  17.773  11.690 -0.1200 -0.0626  0.3172
11820W        W27894  11.595   8.040  16.185  0.1722 -0.0494  0.1449
11821W        W27895  12.139   4.733  14.929  0.0007  0.2919  0.1564
11822W        W27896   1.457   6.934   2.636 -0.1323 -0.3048 -0.0157
11823W        W27897   1.598   5.001   3.919  0.0183  0.1487  0.0745
11824W        W27898  10.180   1.280  12.525  0.1136  0.1380  0.0246
11825W        W27899  11.130  12.019   3.321  0.3121  0.4664 -0.3671
11826W        W27900  15.954   8.708   1.155  0.3448 -0.2966  0.4103
11827W        W27901  14.081   5.374   4.300 -0.2277 -0.4415  0.0376
11828W        W27902  10.202  16.449   0.080 -0.1339  0.0523  0.1539
11829W        W27903   5.372   8.342   3.522 -0.3366 -0.0668  0.0437
11830W        W27904  11.353  10.905   5.719 -0.1146  0.0649 -0.1617
11831W        W27905   5.368  14.147  11.257 -0.1763  0.1192  0.1750
11832W        W27906   8.725   2.731  14.859  0.1188 -0.0298  0.0130
11833W        W27907  10.997   5.528   4.889  0.1359 -0.0159 -0.2341
11834W        W27908  13.005   7.844   5.549 -0.1404 -0.0744 -0.0170
11835W        W27909   2.992  11.574   4.594  0.3099 -0.0573  0.2382
11836W        W27910  14.597   2.884  12.234 -0.0842 -0.0249  0.1709
11837W        W27911   4.623   2.147  13.702  0.0662 -0.2587 -0.3374
11838W        W27912  10.539  14.398  13.168 -0.1041  0.4178 -0.1620
11839W        W27913   7.472  14.523  11.619  0.2443 -0.1485 -0.0320
11840W        W27914  16.023   3.655  16.006 -0.0458  0.0485 -0.2583
11841W        W27915   9.810  10.416  12.901 -0.2004 -0.2408  0.1474
11842W        W27916  14.702   8.186   4.055 -0.1159  0.1321 -0.1374
11843W        W27917   9.851   6.507  13.352 -0.0328  0.4006  0.1989
11844W        W27918   1.559  13.916   0.466 -0.0266  0.0294  0.2267
11845W        W27919  10.777  10.577   4.345 -0.2218 -0.0650 -0.3021
11846W        W27920  13.959  16.282  12.318  0.1362  0.4058  0.0839
11847W        W27921   1.425  16.369  12.405 -0.0955  0.3192 -0.0481
11848W        W27922  14.318  15.896   2.976  0.0349 -0.1011  0.1046
11849W        W27923   0.623  12.661   1.839  0.1090 -0.0654  0.1170
11850W        W27924   4.808  14.978  14.761 -0.1810  0.2143 -0.0120
11851W        W27925   8.706   0.700   3.187  0.2377  0.0447 -0.1093
11852W        W27926   9.642  14.575   2.786 -0.0024  0.1978  0.0735
11853W        W27927  13.258   4.759   5.386 -0.0293  0.0361  0.1110
11854W        W27928   7.492   6.548  12.304  0.1294  0.0622  0.3707
11855W        W27929   6.687  10.560  13.151  0.3666 -0.2617 -0.0767
11856W        W27930   7.252  16.210   2.120 -0.1475  0.1198  0.0111
11857W        W27931   7.943  11.012   4.271  0.0172  0.1974 -0.0167
11858W        W27932   5.729   4.886   0.315  0.0574 -0.0065 -0.0615
11859W        W27933  10.343   4.303  14.599 -0.1330  0.0185  0.0032
11860W        W27934  14.551   1.980  12.697  0.0193 -0.0305  0.1653
11861W        W27935   6.002   8.703   5.844 -0.0737 -0.1232 -0.1678
11862W        W27936  15.546  14.533  13.715 -0.3963 -0.0647 -0.0447
11863W        W27937  10.862   1.312   2.238 -0.1719 -0.1142  0.0985
11864W        W27938   9.830  12.495  12.877 -0.1266  0.3000 -0.0119
11865W        W27939   0.167  10.536  15.490  0.0659  0.0313  0.4996
11866W        W27940  14.620  10.920  15.762 -0.1629  0.2361  0.0247
11867W        W27941  14.958  14.073  11.339 -0.0621 -0.2783 -0.1661
11868W        W27942   8.858   8.852   4.876 -0.0255  0.1683 -0.0365
11869W        W27943  17.622   0.382  14.446  0.3108 -0.1158 -0.0506
11870W        W27944  10.300   0.020  11.950  0.0187 -0.0334 -0.1449
11871W        W27945   5.008  15.250   0.087  0.2054  0.2933  0.0946
11872W        W27946  13.957  13.205  15.887  0.0873  0.0018 -0.1588
11873W        W27947   9.051   1.557  13.242 -0.1589 -0.3897 -0.3542
11874W        W27948   7.188   7.164  15.590 -0.2447  0.1983 -0.1614
11875W        W27949   5.005  14.877   3.259  0.2058 -0.0650  0.1544
11876W        W27950   6.192  10.976   5.983  0.1570 -0.2985 -0.2307
11877W        W27951  12.169  13.639  15.133  0.1816  0.1125 -0.2617
11878W        W27952   9.384  17.696   5.389 -0.4308  0.1761  0.0302
11879W        W27953   5.417   7.467   3.459 -0.0265 -0.1018 -0.1352
11880W        W27954   9.687   1.495   4.190  0.0016 -0.2315  0.3176
11881W        W27955  14.477  11.952  14.640 -0.1575  0.2628  0.3957
11882W        W27956   8.202  14.557   5.935  0.3286 -0.0282  0.1818
11883W        W27957  13.126   9.245   5.102  0.1876 -0.0271  0.0553
11884W        W27958   0.804  14.502  12.407  0.0130  0.0924 -0.3345
11885W        W27959   5.194  10.651   0.597  0.0769  0.0094 -0.0827
11886W        W27960  12.843   5.058  13.062 -0.0959 -0.1245 -0.0085
11887W        W27961  16.740  17.976  13.334 -0.2445 -0.1100 -0.0143
11888W        W27962  15.993   3.892   3.505  0.0699 -0.1642 -0.0298
11889W        W27963  15.367   4.143  11.802 -0.1141 -0.0989  0.2011
11890W        W27964   3.182   0.350   4.700 -0.2478 -0.2420  0.1400
11891W        W27965  14.718  12.446   0.392 -0.2261  0.1377  0.5571
11892W        W27966   3.313   0.392  11.728 -0.0394 -0.2224 -0.0914
11893W        W27967  16.803  11.611   4.711 -0.3167 -0.1139  0.1953
11894W        W27968   2.221   8.519  12.251  0.2449  0.0656  0.1450
11895W        W27969   3.844   5.893  11.677 -0.1977 -0.0633  0.0849
11896W        W27970   5.050   2.640  14.483 -0.0699 -0.2783  0.1473
11897W        W27971  10.954   3.802  15.078  0.0819 -0.1997  0.0357
11898W        W27972   4.012   6.561  12.367  0.4143 -0.3619 -0.0524
11899W        W27973  13.732   6.747  15.886  0.2453  0.1418 -0.2921
11900W        W27974   2.208  16.721  11.496 -0.1134  0.2575  0.1397
11901W        W27975   0.947  13.761  12.828  0.2590 -0.0847 -0.1984
11902W        W27976  16.315  15.592  15.884 -0.0463  0.2054  0.0178
11903W        W27977  15.501   3.268  13.993 -0.0080 -0.3056 -0.1021
11904W        W27978   1.790   1.820  15.238 -0.0672  0.1863 -0.2226
11905W        W27979  15.544   8.358   4.927  0.3111 -0.4478  0.1779
11906W        W27980  12.548  11.883  15.741  0.2028  0.0525 -0.1021
11907W        W27981  16.494   1.267   6.138  0.0309 -0.0750  0.0649
11908W        W27982  10.006   5.330  12.459  0.0916  0.0150 -0.0046
11909W        W27983   4.451  11.654   3.750  0.0403 -0.2481  0.1081
11910W        W27984   9.920  16.611  14.968 -0.1373 -0.3921 -0.1842
11911W        W27985   0.080  15.785   4.915 -0.0873 -0.1313  0.2168
11912W        W27986   1.626   6.175  13.995 -0.1103 -0.1423 -0.3069
11913W        W27987   4.218  13.014  15.915 -0.2805 -0.2418  0.2704
11914W        W27988   7.168  15.255   0.645  0.0877  0.0907 -0.2476
11915W        W27989   0.237   1.088  15.038 -0.2501  0.0321 -0.0662
11916W        W27990  14.370   9.017   4.126 -0.1803 -0.1843 -0.0364
11917W        W27991   3.360  15.639  10.753  0.1063  0.0032  0.2785
11918W        W27992   2.976   7.180   2.306 -0.3125  0.1733  0.1253
11919W        W27993  13.182   9.376  15.174  0.3775 -0.0101 -0.1348
11920W        W27994  12.808   1.265  14.953  0.2601  0.1973 -0.0000
11921W        W27995  12.155   7.426   5.312 -0.1352 -0.0692  0.1518
11922W        W27996  17.392   1.873   2.376  0.0286 -0.2311  0.0274
11923W        W27997  14.174  15.817   2.371 -0.2775 -0.2351  0.2372
11924W        W27998   9.515   9.137   1.709  0.2077  0.0199  0.0290
11925W        W27999   3.001   1.842  15.793  0.4620 -0.0266 -0.1080
11926W        W28000   2.924   3.251  13.603  0.0704  0.0269  0.0776
11927W        W28001   9.277   7.724  12.978 -0.0232  0.0469  0.3136
11928W        W28002   6.990   7.457  14.559 -0.1258 -0.3210  0.0511
11929W        W28003   4.798  10.267  14.764  0.3075  0.0471 -0.0075
11930W        W28004  12.195   2.555  15.437  0.2402 -0.1906 -0.2981
11931W        W28005   3.535  15.210  11.750 -0.0905 -0.0828  0.1294
11932W        W28006   8.792  10.040  14.646  0.1775  0.0149  0.2913
11933W        W28007  17.295   2.370  13.583 -0.1944 -0.1022 -0.2194
11934W        W28008  11.000   5.339  11.876 -0.0363  0.0105 -0.0757
11935W        W28009   4.377  12.175   6.185 -0.3664 -0.2120  0.1846
11936W        W28010   2.829  17.692  11.227  0.2184 -0.0950  0.1088
11937W        W28011   0.263   7.030  12.205 -0.1988  0.2538  0.3014
11938W        W28012   7.023  17.482  14.542  0.2441  0.0251  0.0835
11939W        W28013   6.211  16.294  11.965 -0.1700 -0.0519  0.0272
11940W        W28014   4.553   7.791   1.415 -0.2352  0.0747  0.1555
11941W        W28015  18.144  17.957   3.738  0.0076 -0.0209 -0.1417
11942W        W28016  12.452  12.253  12.522  0.3345  0.0201  0.0715
11943W        W28017  16.308  13.799  11.294  0.3908 -0.0763  0.0717
11944W        W28018   5.073   4.016  12.805  0.0306  0.2336  0.4437
11945W        W28019  13.481   1.940  12.269  0.0864 -0.1885  0.2188
11946W        W28020  17.140  17.081   0.665 -0.0822 -0.3601 -0.2262
11947W        W28021   9.320   4.151   1.252  0.0015  0.0504  0.2688
11948W        W28022   3.476   4.433  13.231  0.0468  0.1722  0.1642
11949W        W28023   2.078  13.880  14.451  0.4153  0.2994  0.0894
11950W        W28024   5.001  10.580   6.072 -0.2429  0.0089  0.1005
11951W        W28025   7.138  10.615   1.304  0.2423 -0.0121  0.1031
11952W        W28026  12.874  10.644   1.690  0.0150  0.0726 -0.1970
11953W        W28027  16.756   7.688   2.385 -0.2093 -0.0622  0.0239
11954W        W28028  11.259   3.250  16.376 -0.1204  0.1379 -0.0655
11955W        W28029  14.757  13.738   1.684  0.2145 -0.0919  0.1215
11956W        W28030   6.818  12.892   3.303 -0.0879  0.0330  0.0776
11957W        W28031  10.188   5.190   1.443  0.0695 -0.0506  0.0048
11958W        W28032  10.604  11.990   2.141 -0.0093 -0.4977 -0.1905
11959W        W28033   5.030   4.055  13.858  0.0764  0.0447  0.1403
11960W        W28034  12.230  11.883  11.757 -0.1136  0.2380 -0.1461
11961W        W28035  10.324   6.829  14.616 -0.0144  0.2227 -0.0641
11962W        W28036  10.025   6.490   6.367 -0.1769 -0.1506  0.0473
11963W        W28037   3.812   1.022   4.678 -0.0755 -0.1926 -0.5425
11964W        W28038   0.503   9.784   4.365  0.1841 -0.1494 -0.0595
11965W        W28039   2.590   8.215  12.151  0.0221  0.1169 -0.1332
11966W        W28040  14.275  10.212  15.071  0.0297 -0.1084  0.1805
11967W        W28041   0.130   2.363   9.872 -0.2253 -0.3054  0.0131
11968W        W28042   7.634   7.153   3.420 -0.1059  0.0438 -0.2377
11969W        W28043   3.852  15.791  15.217 -0.1247 -0.0392  0.1831
11970W        W28044   4.404   3.644   0.848  0.1679 -0.0648  0.4089
11971W        W28045  17.109   7.948  15.773  0.1371 -0.0630  0.0514
11972W        W28046  18.196  18.137   2.931  0.1654  0.1577 -0.0353
11973W        W28047   4.136  10.763  10.740  0.0922 -0.1151  0.4301
11974W        W28048  12.312  11.469   5.402 -0.0523 -0.0891  0.0686
11975W        W28049   4.754   2.011  11.994  0.1475 -0.1659 -0.2089
11976W        W28050  10.661   7.719  13.334  0.2388  0.1471 -0.3514
11977W        W28051  18.102  10.980  14.130 -0.3805  0.1518  0.1148
11978W        W28052  17.289  16.514  13.358 -0.1754  0.0234  0.1101
11979W        W28053   4.369  11.827   3.277 -0.0774 -0.3422  0.1448
11980W        W28054  15.521  15.114   2.341  0.3270  0.3484 -0.1111
11981W        W28055   1.492  17.950   3.550 -0.1707  0.5627 -0.2974
11982W        W28056  11.840  17.411  14.510  0.0176 -0.1817 -0.2965
11983W        W28057  16.755  11.388   4.231  0.0361 -0.2404 -0.3903
11984W        W28058  13.600  17.108   0.073 -0.1853  0.0338  0.1147
11985W        W28059  11.182  17.960   4.094 -0.0399 -0.2432 -0.0646
11986W        W28060  15.154   4.200   3.029 -0.0258  0.0117 -0.0690
11987W        W28061  17.127  12.614  12.937  0.1052  0.2176  0.0845
11988W        W28062   5.470   0.740  12.350  0.2849 -0.0718 -0.2160
11989W        W28063   0.762  11.878   0.150  0.2294 -0.2328  0.2677
11990W        W28064   2.270   6.644   2.288 -0.0617  0.0773  0.0827
11991W        W28065  11.975   5.305   5.011  0.0887  0.0547  0.1715
11992W        W28066  12.992   2.339  12.427  0.3199  0.0609  0.1593
11993W        W28067   8.430  10.843  15.005 -0.2231  0.3724  0.0533
11994W        W28068   5.641  13.990  14.760 -0.0214  0.5525 -0.1162
11995W        W28069   0.550   6.040   4.791  0.0037 -0.0239 -0.3009
11996W        W28070   7.471   3.460  15.170 -0.3812 -0.2867  0.2656
11997W        W28071   5.410   6.793   5.791 -0.3574 -0.4037 -0.2823
11998W        W28072   7.701   8.308  16.481  0.1361  0.0516 -0.2759
11999W        W28073   1.549  17.613  12.143 -0.4581  0.0923  0.0848
12000W        W28074   5.526  15.684   1.230 -0.1454  0.0090 -0.1441
12001W        W28075  17.773  16.050  15.899 -0.0149 -0.1290  0.0876
12002W        W28076  16.016   9.823  15.199  0.0208 -0.1658  0.2122
12003W        W28077   6.370  12.998   3.516  0.1567 -0.0565  0.0891
12004W        W28078  12.734  17.091   3.586  0.1426  0.0639  0.2235
12005W        W28079  12.332  15.793   0.101  0.1828  0.1555  0.0808
12006W        W28080  12.725  11.311  13.932  0.0879  0.0077  0.0222
12007W        W28081  14.425  14.507   3.773 -0.3905  0.0324  0.0248
12008W        W28082  10.662  14.692   2.099  0.1199  0.0237  0.2300
12009W        W28083  14.409   3.375   1.171 -0.2300  0.2215 -0.1282
12010W        W28084   6.760   3.863   5.226 -0.1275  0.3066  0.0921
12011W        W28085   2.449  13.998   0.110  0.0217 -0.1165  0.0534
12012W        W28086  11.556   7.747   1.935 -0.0570 -0.0722 -0.2877
12013W        W28087   7.801  13.202   4.744 -0.3298 -0.1946  0.0350
12014W        W28088  17.734  11.940   1.592  0.2211 -0.2002 -0.0816
12015W        W28089  11.216  13.876  14.766  0.1387  0.3619 -0.3254
12016W        W28090  13.471  10.338  13.163  0.0326  0.2279 -0.1103
12017W        W28091  10.427  11.300   0.369  0.0483  0.1707  0.2054
12018W        W28092  15.475   3.823   3.397  0.1265 -0.1503  0.6389
12019W        W28093  15.531   8.439  14.630  0.0862  0.0420  0.4044
12020W        W28094   8.339   1.861  15.628  0.3605 -0.0263  0.0201
12021W        W28095  16.927  17.924   2.477 -0.4586  0.0168  0.0933
12022W        W28096  13.660   4.163   3.726  0.3270 -0.2313 -0.1820
12023W        W28097  17.211   1.834   1.577  0.4198 -0.0390 -0.2570
12024W        W28098  13.527  11.743  13.875 -0.0581  0.1346 -0.0902
12025W        W28099  11.762  12.548   3.752  0.0600  0.0438  0.1603
12026W        W28100  15.327  10.895   0.004 -0.0125 -0.3245 -0.1085
12027W        W28101   8.433   9.541  15.402  0.4593 -0.4604  0.3401
12028W        W28102  14.720   2.625   5.376 -0.0607  0.3203  0.0278
12029W        W28103   1.528  17.289   0.633 -0.0693  0.0074  0.4384
12030W        W28104   3.565  12.799  15.094 -0.2196 -0.2798 -0.1141
12031W        W28105  13.339  11.022   2.850  0.2012  0.3763 -0.1149
12032W        W28106   5.417   9.510   1.378 -0.0023  0.0483 -0.1228
12033W        W28107   9.994  17.558   4.615 -0.1276  0.0275 -0.2445
12034W        W28108   4.834  12.664  12.857  0.3183  0.1397  0.0330
12035W        W28109  11.473   5.164   1.754 -0.1937  0.0209  0.3748
12036W        W28110  14.392   5.086  16.480  0.0609  0.1935  0.1806
12037W        W28111   9.273   6.237   0.108  0.1971  0.2332 -0.0409
12038W        W28112   9.393   8.485   4.157 -0.2772 -0.1765 -0.2428
12039W        W28113  15.771  17.726  11.198  0.1038 -0.1478  0.2393
12040W        W28114   9.142  14.585  13.926  0.2551 -0.1623  0.0618
12041W        W28115   1.443  10.972   3.525  0.2393  0.1802 -0.0225
12042W        W28116   4.510  14.834   0.833  0.0150  0.0428  0.1515
12043W        W28117   0.668  17.770   5.296  0.1364 -0.1811 -0.2936
12044W        W28118   2.063  10.541   1.840 -0.0742  0.2542  0.2878
12045W        W28119   4.805  17.463  12.904  0.0146 -0.0749 -0.0666
12046W        W28120   0.452  11.170  14.869 -0.0054  0.0414  0.0926
12047W        W28121  11.418  12.739   0.838 -0.1113  0.0302  0.0601
12048W        W28122   4.016   1.685  11.590  0.0445 -0.4096 -0.1360
12049W        W28123  17.058   9.706   4.852  0.2207  0.0705 -0.2010
12050W        W28124  13.071  14.696   1.245 -0.3573  0.2140 -0.1186
12051W        W28125   2.149   7.259   0.492  0.0477  0.3160  0.2080
12052W        W28126  17.030  12.955   4.763  0.1798  0.0406  0.2744
12053W        W28127   2.265   0.208   5.686  0.1232 -0.4125  0.0328
12054W        W28128  12.281  16.905   3.532  0.0324 -0.0416  0.0924
12055W        W28129  16.469   1.114   5.625 -0.2419  0.4250 -0.1732
12056W        W28130   6.312   9.595  15.867 -0.0173 -0.0253  0.1300
12057W        W28131  10.686   5.943   4.757 -0.0455 -0.0675  0.1855
12058W        W28132  13.292  13.687  11.940  0.0235 -0.0972 -0.1645
12059W        W28133   8.678  17.410   4.131  0.0737 -0.1529  0.0300
12060W        W28134  10.168   5.078   3.150 -0.0595  0.1745 -0.1767
12061W        W28135   7.957  12.990  14.956  0.1087  0.1144  0.0781
12062W        W28136  11.377   3.568   2.559 -0.1087  0.2107  0.0713
12063W        W28137   4.339  15.426  12.199 -0.0722 -0.2966  0.3090
12064W        W28138   2.027   3.447   3.438  0.0738  0.0720  0.1939
12065W        W28139   6.290   9.270  16.246  0.3646  0.0872 -0.3789
12066W        W28140   9.897  12.714   1.527  0.0416  0.2129  0.0283
12067W        W28141  15.561   3.365  15.881 -0.3478  0.0958 -0.2273
12068W        W28142   8.367   8.016   1.381 -0.0774  0.2349 -0.3976
12069W        W28143   8.035   0.766   4.199 -0.0326  0.0086  0.1801
12070W        W28144   3.315  12.693  16.349  0.1445 -0.2745  0.5104
12071W        W28145   5.678  10.822   1.470 -0.2275  0.5475  0.2941
12072W        W28146  11.532   8.516   4.166 -0.1498  0.1277 -0.4588
12073W        W28147   6.183   9.599  14.885  0.0812  0.1875  0.1275
12074W        W28148   4.328   1.258   2.149 -0.0683 -0.0899  0.0188
12075W        W28149   8.685  14.914  11.808 -0.0547 -0.1299 -0.2563
12076W        W28150  17.780  12.765  13.361  0.1235 -0.0373  0.1644
12077W        W28151  17.439   3.934  13.180  0.0262 -0.1936 -0.2352
12078W        W28152   4.000  16.732   0.279  0.0017  0.1068 -0.0574
12079W        W28153  17.413   6.477  11.787  0.2992 -0.2444 -0.0736
12080W        W28154  11.321   4.056  12.649  0.1034 -0.0437  0.3910
12081W        W28155   7.118  12.583   5.132 -0.4589 -0.0508 -0.2264
12082W        W28156  11.322  13.887   1.269 -0.1601  0.1685  0.2940
12083W        W28157  14.796  13.215  13.880  0.1285 -0.1368 -0.0860
12084W        W28158  13.862  14.044   4.254  0.2073  0.1599  0.0009
12085W        W28159   1.774  11.668   1.551  0.4839  0.1707  0.1260
12086W        W28160   2.124   1.524  13.607  0.1549 -0.1850 -0.0082
12087W        W28161  13.205   1.683  14.040 -0.0724 -0.2079  0.2545
12088W        W28162  13.379  11.959   0.083 -0.1027 -0.4112 -0.3148
12089W        W28163   8.847  14.261   5.550  0.2384  0.1086  0.0042
12090W        W28164  16.122   9.390  14.592  0.1696 -0.1073 -0.1577
12091W        W28165  13.647  16.503  15.567 -0.1418  0.1120 -0.0209
12092W        W28166  14.063   1.538   0.135 -0.2417  0.2324  0.3135
12093W        W28167   4.922  15.888   5.992  0.0688 -0.3417 -0.1649
12094W        W28168   3.209   5.688   2.411  0.0325  0.2301  0.0450
12095W        W28169   0.802  18.148  14.238  0.1870  0.0754  0.1472
12096W        W28170  12.081   6.421   4.625 -0.1969 -0.1698  0.1918
12097W        W28171  14.211   4.563   1.106  0.0421 -0.0906 -0.0010
12098W        W28172   7.484   4.492   4.334  0.0980 -0.1361  0.0467
12099W        W28173   8.680   5.920  15.436 -0.3388  0.0522  0.1494
12100W        W28174   9.435  13.937   1.966 -0.0691  0.0252 -0.2016
12101W        W28175  17.548  13.855   1.595 -0.1414  0.0812  0.1670
12102W        W28176  16.333  15.674  13.353  0.4580  0.4652 -0.2626
12103W        W28177  17.881   0.888  12.152  0.2552  0.4517 -0.1442
12104W        W28178  15.931  15.039   0.159 -0.0419  0.0507 -0.3784
12105W        W28179  17.653   8.394   2.935 -0.1736 -0.2690  0.2458
12106W        W28180   3.192  13.312   2.967 -0.1298  0.3785  0.0587
12107W        W28181   9.801  15.297  14.244  0.0141 -0.2491  0.1910
12108W        W28182   4.346  10.694  11.391  0.2080 -0.1467  0.1418
12109W        W28183   4.054   0.253  12.478  0.0997 -0.1837 -0.3227
12110W        W28184  12.954  16.193  15.366  0.1480  0.3636  0.1850
12111W        W28185  13.938   1.374   4.921 -0.1023 -0.1177 -0.1489
12112W        W28186  16.837   9.331   3.473 -0.0671  0.1387  0.0518
12113W        W28187  10.415  11.891  15.951 -0.0879  0.0644 -0.0705
12114W        W28188   5.618   0.116   1.425 -0.3021 -0.1641 -0.1479
12115W        W28189   0.544  12.225   5.398  0.1224 -0.0374  0.0170
12116W        W28190   1.991  10.912  16.270  0.0245  0.0522  0.2258
12117W        W28191   8.540  14.588   4.543 -0.3330  0.1307 -0.1654
12118W        W28192  11.584   2.805   1.094  0.2065  0.0437 -0.1270
12119W        W28193   8.646  11.592  12.409  0.1101  0.0548  0.2783
12120W        W28194   3.946  15.200   2.708  0.0151  0.1466  0.2436
12121W        W28195  13.665   1.285   4.424 -0.1048 -0.4505 -0.2316
12122W        W28196   6.071   8.837  15.238  0.2599  0.0310 -0.0533
12123W        W28197  10.056  16.941   0.958 -0.0662 -0.1964 -0.2395
12124W        W28198   1.362   7.537   2.129  0.3435  0.2704 -0.2765
12125W        W28199  11.486  16.281  16.327  0.0010 -0.0662  0.0891
12126W        W28200   0.832   8.747   0.663 -0.1971 -0.0877 -0.0444
12127W        W28201   1.168   0.620   4.272 -0.1084  0.1928  0.1887
12128W        W28202  17.554   3.623  16.449  0.1641  0.0746 -0.0584
12129W        W28203   5.195  15.615  13.292 -0.2143  0.1690  0.2968
12130W        W28204  15.546   6.537  14.476  0.0878 -0.1160 -0.2004
12131W        W28205  17.671   8.580  13.413 -0.0089 -0.0312 -0.1800
12132W        W28206   3.743   6.848  13.702 -0.0614 -0.0420  0.3812
12133W        W28207   6.405  15.210   3.223  0.1122 -0.3385  0.0467
12134W        W28208   3.408   7.504   2.327  0.0821 -0.0391 -0.0751
12135W        W28209  12.616  13.610  14.845 -0.5782 -0.0034  0.3532
12136W        W28210   2.745  10.029   0.954 -0.0341 -0.1996  0.0121
12137W        W28211  16.445   0.917   5.169 -0.0779  0.0854  0.1915
12138W        W28212  16.592  14.142  11.581  0.0424  0.3839  0.0856
12139W        W28213   9.251  11.850   5.103 -0.2824  0.0227 -0.1464
12140W        W28214   0.650  16.233  13.904 -0.1736  0.0125 -0.2183
12141W        W28215  11.616  10.498   0.699  0.0043  0.0490  0.0721
12142W        W28216   9.145   0.902   2.086 -0.0322  0.1218  0.3631
12143W        W28217   2.179  11.846  14.308 -0.0728 -0.1406  0.1199
12144W        W28218   9.002  11.565   4.752 -0.1710  0.0039 -0.0842
12145W        W28219   1.512   8.327  10.919  0.1936 -0.2689  0.2090
12146W        W28220  17.655  17.607  11.415 -0.2990  0.0464 -0.0612
12147W        W28221   5.211  17.570   2.407 -0.3215 -0.3714  0.3019
12148W        W28222   5.570   6.966  15.793 -0.1688  0.0508 -0.4050
12149W        W28223   1.848  14.338  11.470 -0.3015 -0.1568  0.0278
12150W        W28224  18.222   1.561   0.324  0.1382 -0.0998 -0.0887
12151W        W28225  15.390  14.113  13.163  0.1580 -0.0719  0.0089
12152W        W28226   5.876  18.211  12.694  0.0921  0.0565 -0.2702
12153W        W28227   5.214  11.813   5.346  0.2999  0.0187  0.0544
12154W        W28228   1.017  14.445  15.171  0.0529 -0.0956 -0.0223
12155W        W28229  11.031   0.239  14.622 -0.1556 -0.0952 -0.2194
12156W        W28230  15.377  13.309   5.428 -0.0735 -0.1430 -0.1522
12157W        W28231  15.818  16.744   3.679 -0.2429  0.0527 -0.1486
12158W        W28232  12.720  12.953   2.012 -0.2548  0.2569 -0.3452
12159W        W28233   6.069   9.256   1.746  0.1458 -0.1623  0.2429
12160W        W28234   7.806  13.487   3.110 -0.0717  0.0687 -0.2375
12161W        W28235   7.927   1.414   4.109  0.0124 -0.0287 -0.0829
12162W        W28236  10.906   5.141   0.799  0.0219 -0.1372  0.0198
12163W        W28237   7.382   7.337  11.710  0.2391  0.2226  0.2716
12164W        W28238   9.320   7.965  13.561  0.1124 -0.1531 -0.0085
12165W        W28239  11.394  17.658   2.619  0.1744 -0.1629 -0.3503
12166W        W28240   9.897   4.072  14.055 -0.1034  0.1099  0.1581
12167W        W28241  17.837  10.132  12.605  0.1417  0.0126 -0.0558
12168W        W28242  14.267  11.076   2.889 -0.1134  0.0489 -0.2594
12169W        W28243   6.452   0.723   4.694 -0.1071 -0.0749 -0.3047
12170W        W28244   2.948   1.804  11.449  0.1668 -0.3011 -0.3039
12171W        W28245  12.417  15.751  13.180 -0.0125 -0.2769  0.0355
12172W        W28246   0.499  12.583  14.538 -0.1353 -0.0848  0.1056
12173W        W28247   4.984   0.650   0.189  0.1055  0.0963  0.0950
12174W        W28248  16.881   6.209   4.137 -0.5312  0.1525  0.0630
12175W        W28249   7.695   2.674   2.107 -0.0110  0.1460 -0.5356
12176W        W28250  14.350   0.575   4.151 -0.0823  0.2523 -0.1255
12177W        W28251  11.342   7.742  15.061 -0.0612  0.0729  0.0246
12178W        W28252   4.497   8.013  13.855 -0.1319 -0.2494 -0.1125
12179W        W28253   3.038  15.647   3.926 -0.1796 -0.1612 -0.2027
12180W        W28254   1.278  16.646  16.143  0.0631 -0.0189 -0.0493
12181W        W28255  10.156  15.415   3.423 -0.0608  0.1793  0.1295
12182W        W28256   2.285   0.960  15.418 -0.0789 -0.1342 -0.1399
12183W        W28257  10.255   0.594   1.870  0.0272 -0.0875  0.0728
12184W        W28258   8.481  15.878  12.967 -0.2608 -0.0148 -0.0516
12185W        W28259   1.157  12.974   2.421 -0.0395  0.1889  0.1324
12186W        W28260  15.089   2.308  11.546 -0.4135  0.2671 -0.0734
12187W        W28261   1.134  17.562  14.194 -0.4281  0.3567  0.0456
12188W        W28262   0.563   6.631   5.535  0.0798 -0.0787 -0.0228
12189W        W28263   1.396  10.552  16.061 -0.1423 -0.3724  0.2127
12190W        W28264   3.296   6.380   0.519 -0.2854  0.0046 -0.0703
12191W        W28265  17.125  14.143  12.496 -0.1136  0.1791 -0.4343
12192W        W28266   3.890   5.181   0.230  0.0267  0.0788 -0.2549
12193W        W28267  17.932  15.107   3.979 -0.2067  0.0449 -0.0807
12194W        W28268   1.744  17.097  14.897 -0.1648  0.0952 -0.1364
12195W        W28269   1.404   9.164   2.828 -0.3879 -0.2842  0.0123
12196W        W28270  17.702  16.957   3.194  0.1385 -0.0403 -0.0884
12197W        W28271   6.453   1.180  15.585  0.0164 -0.0077 -0.2834
12198W        W28272  18.155  15.417  10.814 -0.2013  0.0268 -0.0575
12199W        W28273  10.225  16.686   2.357  0.1406  0.0245  0.0609
12200W        W28274   3.793   8.154  12.690  0.1252  0.1499  0.3854
12201W        W28275   3.696   7.517   0.365 -0.3106  0.2578 -0.0039
12202W        W28276  14.477   0.059  12.840 -0.1403  0.0681 -0.2791
12203W        W28277   7.950   8.348  12.405 -0.1995 -0.0534 -0.0452
12204W        W28278   8.357  12.989  12.714  0.2544 -0.0296 -0.1713
12205W        W28279  13.110  14.176  11.731 -0.1437 -0.1627 -0.2650
12206W        W28280   7.783   0.685   2.217  0.1722  0.1594  0.2788
12207W        W28281   1.585  10.566  15.136 -0.0961 -0.1715 -0.0651
12208W        W28282   0.620   8.950  15.951 -0.3359 -0.0808 -0.1871
12209W        W28283  12.017   5.313  12.641 -0.0494  0.1538  0.0052
12210W        W28284  14.785  10.341   1.298  0.0340 -0.3490 -0.0611
12211W        W28285   3.950   2.638   0.453 -0.0039  0.2755 -0.4813
12212W        W28286  13.498  17.018   2.569 -0.1525  0.4240  0.0056
12213W        W28287  13.279   1.859   1.788 -0.5835 -0.2240 -0.0426
12214W        W28288  11.037  13.014   0.608  0.0572  0.0347  0.2166
12215W        W28289  11.685   8.817  16.508 -0.4406 -0.0734 -0.1751
12216W        W28290  15.759   2.561  14.946  0.1444 -0.0026  0.0793
12217W        W28291  13.228  17.006  14.934 -0.0129  0.2108 -0.1558
12218W        W28292   3.856   4.488   1.659 -0.0627 -0.1353  0.0100
12219W        W28293  14.484  16.717  13.931  0.0120  0.3124  0.0955
12220W        W28294   1.796   5.868   5.851 -0.0032 -0.0234  0.1748
12221W        W28295   6.437  10.849  12.563 -0.0611  0.0113  0.0190
12222W        W28296   3.521  17.407  15.089  0.1210 -0.1426  0.0513
12223W        W28297  12.862   1.885   1.385  0.0409  0.1272 -0.0760
12224W        W28298  16.477   5.447  15.460  0.4276 -0.0378 -0.0636
12225W        W28299  16.136  16.841   0.147 -0.2132  0.1152 -0.0860
12226W        W28300   7.124   9.580  16.273 -0.0688 -0.0146  0.1959
12227W        W28301   5.149  13.266   0.243  0.2370  0.0141 -0.0796
12228W        W28302  15.258   6.984  15.120 -0.2771  0.0934  0.0370
12229W        W28303   1.812  11.157   4.621  0.0436  0.0248  0.2327
12230W        W28304   5.332   5.298   3.459 -0.0268 -0.0308  0.2886
12231W        W28305  11.746   6.174  11.794  0.0991  0.0842 -0.2342
12232W        W28306  15.098  15.122   4.251  0.1193  0.2834  0.0620
12233W        W28307   8.235  16.872  14.382  0.0143  0.3156  0.0580
12234W        W28308  16.279  15.367   0.593 -0.1464  0.1098 -0.2916
12235W        W28309  17.428   1.531   5.764 -0.1005 -0.2176  0.1989
12236W        W28310   3.293  12.651  14.257  0.2272 -0.2383 -0.3158
12237W        W28311   3.565   3.439   1.599 -0.1059 -0.3295 -0.1447
12238W        W28312   9.172  11.191   3.550 -0.3507  0.0018 -0.1625
12239W        W28313  13.897   4.055  13.378 -0.0737  0.1286  0.1888
12240W        W28314  10.433  11.058  15.874 -0.1473  0.0539  0.2677
12241W        W28315   8.305   4.942   3.060  0.2396  0.0406  0.2408
12242W        W28316  13.389   6.605   1.135  0.0797  0.1982  0.1004
12243W        W28317  16.938   9.744   2.038  0.2695 -0.0201 -0.0388
12244W        W28318   8.056   4.480   4.893 -0.1198 -0.2163 -0.1461
12245W        W28319   5.843   5.224   5.144  0.2131  0.1536 -0.4165
12246W        W28320   7.442   9.354  12.057 -0.0776 -0.1115 -0.0341
12247W        W28321   1.351  16.470   0.538 -0.0163  0.1386  0.1049
12248W        W28322   0.144  14.060   0.241  0.3626 -0.1008 -0.3402
12249W        W28323  16.397  11.473  11.648  0.0293  0.0448 -0.3882
12250W        W28324  16.826   9.929  12.865  0.1046 -0.2319  0.2726
12251W        W28325   5.727  15.620   1.671 -0.1170 -0.0153 -0.1997
12252W        W28326  12.523  17.193   1.710  0.0494  0.2146  0.0739
12253W        W28327   1.024   3.187   2.140 -0.2119 -0.0634  0.1663
12254W        W28328   5.142   6.575  15.057  0.3916  0.0011  0.0377
12255W        W28329   7.271   3.037   0.661  0.1957 -0.1915  0.0827
12256W        W28330  14.877   3.436   4.379  0.0194 -0.0830 -0.0050
12257W        W28331   3.522  16.989  13.767  0.0747  0.2012  0.0346
12258W        W28332   1.603   9.606   1.632 -0.0074  0.0478  0.1074
12259W        W28333   1.505   6.040   3.838  0.2554  0.0057  0.4988
12260W        W28334  17.560  10.244   4.005  0.0376  0.0546 -0.4246
12261W        W28335  14.620  17.134   1.943  0.1566 -0.0544 -0.0241
12262W        W28336  16.963  16.608   3.146 -0.2854 -0.2203 -0.0891
12263W        W28337   5.303   5.183  14.888  0.2781  0.0144  0.0698
12264W        W28338  15.464  14.142   3.734 -0.2946  0.2522  0.0082
12265W        W28339   2.561   0.330   2.144  0.1586 -0.1531 -0.4011
12266W        W28340  15.968  11.605  10.836 -0.3016  0.0414 -0.2206
12267W        W28341   3.772   8.689   5.113  0.1688 -0.3032 -0.0094
12268W        W28342  10.755   4.477  13.747 -0.2005  0.1607 -0.0134
12269W        W28343  14.975   3.544  13.262  0.1147 -0.0170  0.3350
12270W        W28344   8.707   1.482   1.671  0.1383 -0.1599  0.0334
12271W        W28345   2.452  13.781  15.146  0.1382  0.1206  0.0939
12272W        W28346  16.464   9.096  15.517 -0.1674  0.1942  0.2673
12273W        W28347   1.609  12.081   4.134  0.0161  0.3692  0.3578
12274W        W28348  12.588  11.626   1.878  0.1517  0.2632  0.1756
12275W        W28349  13.213   5.545   1.620 -0.3657 -0.0899 -0.2575
12276W        W28350  13.009   0.091   3.092  0.1417  0.1957 -0.0739
12277W        W28351   4.460  15.855   3.562  0.3151 -0.0025  0.2256
12278W        W28352   7.667   1.393   0.830  0.0512  0.0602 -0.0909
12279W        W28353   0.360  12.073  14.618 -0.3187 -0.1441  0.4285
12280W        W28354   0.518  14.008  10.929 -0.2691  0.1783  0.6879
12281W        W28355   8.634  12.470  15.421  0.0642 -0.0203 -0.0512
12282W        W28356  17.699   3.146  11.052 -0.0384  0.0204 -0.0392
12283W        W28357  13.735   7.974   5.121 -0.2589 -0.1566  0.0574
12284W        W28358   0.993   3.439  14.722 -0.2697  0.1145 -0.0369
12285W        W28359  15.576  14.626   1.531 -0.1077  0.2329 -0.1818
12286W        W28360   7.598   2.213  15.965  0.0765 -0.0432  0.0888
12287W        W28361   0.552   4.295   3.780 -0.0337  0.3332  0.2324
12288W        W28362  14.580   6.766   0.744 -0.0292 -0.0040  0.1461
12289W        W28363   2.766  17.144  15.053 -0.0524  0.1284  0.1130
12290W        W28364   5.104   8.766  13.538  0.0084  0.1745  0.3496
12291W        W28365  16.790   5.458   5.540  0.0198 -0.0082  0.1180
12292W        W28366  12.776  16.476  16.271 -0.3217  0.5229  0.0449
12293W        W28367   7.795   9.168   5.579 -0.1262 -0.1238 -0.0770
12294W        W28368  16.590   2.249   2.238  0.0283  0.2013  0.0814
12295W        W28369   9.109  14.547   2.782  0.2198  0.1731  0.1396
12296W        W28370   6.250  14.062   3.436  0.1172  0.0785  0.3840
12297W        W28371   5.409   2.190   4.179 -0.0989  0.2430  0.0930
12298W        W28372   6.235  11.203   0.582 -0.3665  0.2097  0.4314
12299W        W28373  12.204  12.062   2.878 -0.2386  0.0724  0.0800
12300W        W28374  12.176   6.438   2.033 -0.2681 -0.1287  0.2770
12301W        W28375  17.688   9.030   3.755  0.1056 -0.0362 -0.2362
12302W        W28376   9.496  17.523   1.793  0.1254 -0.2845  0.1861
12303W        W28377  14.669   5.552  13.125 -0.1455 -0.1091 -0.0934
12304W        W28378   2.265  15.998   3.172  0.2554 -0.4544  0.3283
12305W        W28379   0.012  13.535   2.526 -0.0149 -0.1766 -0.1908
12306W        W28380  13.481   3.267  12.503 -0.0867  0.0189  0.2382
12307W        W28381   8.336  14.124   4.424  0.2032  0.0462  0.2702
12308W        W28382   3.945  16.114   0.871  0.0959 -0.0095  0.1607
12309W        W28383  15.922  12.808  12.894 -0.0234  0.0358 -0.1182
12310W        W28384  12.268   1.181   0.669 -0.0833 -0.0010 -0.0378
12311W        W28385   6.689  10.236  14.331  0.2388 -0.3455  0.2251
12312W        W28386  16.070   4.292  15.600 -0.0088 -0.1657  0.0445
12313W        W28387   2.393  10.169  16.077 -0.3345  0.1590 -0.2104
12314W        W28388  10.133  15.347  13.118  0.1178  0.0239 -0.1213
12315W        W28389  14.017  14.609   4.046  0.3254  0.3575  0.0395
12316W        W28390   2.518  13.360   3.646  0.1133  0.2017  0.1124
12317W        W28391  16.505  15.271  16.229  0.0770 -0.1510 -0.3408
12318W        W28392   3.778  10.429   3.137  0.1049  0.0407  0.0536
12319W        W28393   4.574   7.386  12.013  0.0704 -0.2193 -0.1619
12320W        W28394   5.021   5.759   0.853 -0.0328  0.0654 -0.1442
12321W        W28395   2.127   8.173   0.686 -0.0539  0.2684  0.1302
12322W        W28396   5.913  11.123   1.826  0.3213 -0.1840 -0.2981
12323W        W28397   8.407  15.711   3.656  0.3284  0.0578 -0.1483
12324W        W28398   4.301  13.590  13.466 -0.1851 -0.0666  0.1319
12325W        W28399  12.276   4.684   1.838 -0.0319  0.0079 -0.0894
12326W        W28400  15.745   7.875   4.703 -0.0718  0.3579 -0.2098
12327W        W28401  10.685  13.842  13.517 -0.1251 -0.1028 -0.2694
12328W        W28402  14.714  13.016   5.850  0.1319  0.1398  0.1867
12329W        W28403  13.586  12.373   3.173  0.0390 -0.2622  0.1163
12330W        W28404  13.763   5.413   4.719  0.1212  0.1765  0.1396
12331W        W28405   7.451   5.306   0.584  0.0959 -0.0400  0.1582
12332W        W28406   1.768   1.077  12.863  0.1990  0.2378  0.0253
12333W        W28407  16.743   5.369  14.145 -0.0159 -0.1390  0.1427
12334W        W28408  13.029   1.682   0.274 -0.1219  0.0243 -0.1836
12335W        W28409   5.307   4.671   5.876 -0.0125 -0.0591  0.1669
12336W        W28410   7.142   5.197  12.568 -0.0701  0.0071  0.4377
12337W        W28411  12.151  17.566   4.182 -0.1658  0.0030 -0.1051
12338W        W28412  12.117   1.838   2.686 -0.1491 -0.1814  0.2218
12339W        W28413  16.633  15.430  11.452 -0.0661 -0.1528  0.0803
12340W        W28414   1.628   8.409   1.715 -0.2193 -0.2617  0.1146
12341W        W28415  15.232   1.157   3.283  0.0470  0.3179 -0.1218
12342W        W28416  14.481   5.014  11.338  0.2530 -0.1064  0.0557
12343W        W28417   3.136  16.893   4.607  0.0323 -0.0181  0.0090
12344W        W28418   9.079   1.803  12.750  0.0705 -0.1090 -0.0483
12345W        W28419  10.145   9.215   5.266  0.2714 -0.0905  0.1210
12346W        W28420   4.702   1.639   2.880  0.0827 -0.0166 -0.0893
12347W        W28421  18.204  10.553  12.004  0.0405 -0.0714  0.2812
12348W        W28422  15.939  15.961   1.881 -0.1296  0.1750 -0.2553
12349W        W28423  18.219  14.171  12.715  0.3449  0.0237  0.0129
12350W        W28424   3.049   2.241   4.916  0.1264  0.1599  0.2709
12351W        W28425  17.120  18.078   1.186  0.1453 -0.0052 -0.3855
12352W        W28426   7.005   8.820   0.036 -0.2511 -0.0813 -0.2175
12353W        W28427   5.592   7.771   1.823  0.1792 -0.0625  0.0828
12354W        W28428   2.998  13.078  11.795  0.0348  0.4258 -0.0803
12355W        W28429   4.176  13.431   1.376 -0.2369 -0.1910  0.1287
12356W        W28430   7.167   3.120  16.220 -0.0734 -0.0636 -0.0253
12357W        W28431   0.661   7.006   3.735  0.3103 -0.1286  0.1359
12358W        W28432  12.803  15.815  14.082  0.0041 -0.0301  0.2591
12359W        W28433   9.187  11.641  16.152 -0.1934 -0.1859  0.1659
12360W        W28434   7.723  16.083  15.004 -0.0378 -0.0034  0.1081
12361W        W28435   5.975  18.078   0.209  0.1202  0.0805 -0.1580
12362W        W28436   1.962   8.434  13.603 -0.1324 -0.0660 -0.0364
12363W        W28437  14.993   0.083  14.252 -0.0612 -0.0085  0.3969
12364W        W28438  10.993  10.439  12.006  0.2293 -0.2894 -0.1170
12365W        W28439  12.564   6.043   2.203 -0.0789  0.0612 -0.0875
12366W        W28440   2.588   9.308   1.668 -0.0023 -0.3118 -0.1560
12367W        W28441  17.965   9.979   3.794  0.0805 -0.0194  0.3157
12368W        W28442  18.162  10.365  11.500 -0.0024 -0.2554  0.4273
12369W        W28443  11.147   3.094  14.538  0.1288 -0.0854 -0.2402
12370W        W28444  11.551   6.013   0.728  0.0716 -0.1116  0.1058
12371W        W28445  18.105   4.970  12.844  0.3289 -0.2308 -0.1733
12372W        W28446  11.302   9.952  14.873  0.1285  0.1731  0.0513
12373W        W28447  16.528  16.205   3.428 -0.3347  0.0606 -0.0278
12374W        W28448  13.120  11.978   0.535 -0.1215  0.0291 -0.2604
12375W        W28449  11.219   0.504   2.005  0.0731 -0.2341  0.1638
12376W        W28450   8.619  16.191  15.119  0.1941  0.3199 -0.0846
12377W        W28451   8.128  13.688  14.280 -0.2426  0.2419 -0.0619
12378W        W28452   8.577  14.327  12.355 -0.3649 -0.0548  0.0986
12379W        W28453   7.731   4.808  15.393  0.1058 -0.0738  0.1901
12380W        W28454   0.467  11.624  11.490  0.0384 -0.2189  0.0738
12381W        W28455  17.064  11.465  15.520 -0.3012  0.0827 -0.0894
12382W        W28456   9.763   8.069   3.850 -0.1097 -0.1461  0.0957
12383W        W28457  11.013   4.828  12.626  0.1166 -0.3170 -0.1843
12384W        W28458   6.838   9.155  16.303  0.0098  0.0367  0.0430
12385W        W28459  13.934  15.496  13.592 -0.0336 -0.0833 -0.3123
12386W        W28460   2.662  10.704  12.782 -0.0391  0.0293  0.0062
12387W        W28461   0.600   7.541   5.069 -0.0704 -0.2483  0.1317
12388W        W28462  14.525  11.043  14.672 -0.1113  0.0641  0.0774
12389W        W28463   5.493   6.990   0.001  0.0578  0.1665  0.0283
12390W        W28464   9.539   9.959  15.869  0.1347  0.0368  0.2110
12391W        W28465   2.352  12.641  12.432 -0.2984  0.1843 -0.2158
12392W        W28466   3.139  16.511   1.934  0.1791 -0.3020 -0.2710
12393W        W28467  18.030   9.616  11.759 -0.0371  0.1192 -0.0565
12394W        W28468  15.951   4.231   0.964 -0.0506 -0.0243  0.0266
12395W        W28469   1.395  12.541   5.614  0.3308 -0.1497  0.0558
12396W        W28470   1.861   0.776   2.683 -0.2374  0.0296 -0.3367
12397W        W28471   6.490   7.434   2.791 -0.1400 -0.2460 -0.2343
12398W        W28472  17.077  17.667  12.510  0.0255 -0.2562  0.2778
12399W        W28473   4.098  14.293   2.956  0.0031 -0.0210  0.3420
12400W        W28474  16.214  17.521   4.477 -0.0170  0.0351  0.1323
12401W        W28475   7.418   3.476   2.226  0.0019 -0.1549  0.0015
12402W        W28476   8.597  12.273   5.250  0.0324 -0.2548 -0.0109
12403W        W28477   7.245  13.681   0.533 -0.1134  0.2320 -0.0080
12404W        W28478  17.623   6.295   3.489 -0.1020 -0.0126  0.1072
12405W        W28479   4.654  18.092  12.784 -0.1124  0.0976  0.1865
12406W        W28480   2.137   8.071   4.640 -0.0286  0.3835  0.1175
12407W        W28481   7.982   6.785   5.610 -0.0066  0.2074 -0.1916
12408W        W28482  13.786  16.150   0.203  0.1077  0.3017  0.1606
12409W        W28483   5.931   8.865   4.160 -0.1241  0.0918  0.0727
12410W        W28484   2.122   7.014   4.930 -0.0413 -0.4281 -0.2942
12411W        W28485   5.844  10.595  13.939 -0.1208 -0.2690 -0.0514
12412W        W28486   2.195  17.851  16.283 -0.0895  0.2724  0.0593
12413W        W28487   9.877  17.589   2.204  0.0281  0.0516  0.0686
12414W        W28488   7.515  13.720   2.209  0.1197 -0.5797 -0.0429
12415W        W28489  12.890   6.824   4.720 -0.2674  0.2232 -0.0519
12416W        W28490  12.547  14.105   3.794  0.0649  0.2270  0.0713
12417W        W28491  15.184   4.416   4.103  0.2838 -0.0524 -0.0128
12418W        W28492  12.716   1.447   2.243  0.0811  0.1081  0.1267
12419W        W28493  14.508  11.414   0.515 -0.0108  0.0565 -0.0754
12420W        W28494   9.187  16.121  12.523  0.1026 -0.0626  0.0084
12421W        W28495  16.371   2.421   5.781  0.0626  0.2201 -0.0856
12422W        W28496   6.026  13.855   2.460  0.1962  0.1293 -0.0185
12423W        W28497   6.060   8.299   3.502 -0.2357 -0.0301 -0.1061
12424W        W28498  13.053  17.490  11.814  0.1002 -0.1237  0.3162
12425W        W28499   5.328  17.075  15.467 -0.2310  0.2431  0.0991
12426W        W28500   6.376  13.378  12.155  0.0040  0.0064  0.3648
12427W        W28501  16.380  10.773  16.202 -0.2867  0.2334 -0.3315
12428W        W28502  16.693   4.149  13.043 -0.2492  0.2487 -0.1061
12429W        W28503   4.807   7.119  14.242  0.0977  0.1018 -0.1188
12430W        W28504  14.850  10.544  13.359  0.2953 -0.0308 -0.0003
12431W        W28505  10.279   7.678   0.189  0.0643 -0.0331  0.0635
12432W        W28506   1.856   3.739  13.005 -0.0557  0.0858 -0.0742
12433W        W28507  12.797  15.296  12.387  0.0889 -0.0210  0.0639
12434W        W28508  14.446  18.078  13.363 -0.3380 -0.1736  0.0415
12435W        W28509   4.944   3.955  16.087 -0.0783  0.0263  0.0268
12436W        W28510   8.620   6.563   4.066  0.0377 -0.0188  0.0247
12437W        W28511  14.824   5.592  12.209 -0.0250  0.0386 -0.0660
12438W        W28512  10.336   3.529   1.470 -0.2344  0.2753 -0.0030
12439W        W28513   6.407  13.740   5.978 -0.1213 -0.0223 -0.3513
12440W        W28514   9.907   9.395   4.346  0.2813 -0.3026  0.0552
12441W        W28515   0.892   3.804   1.557  0.3504 -0.0300 -0.4121
12442W        W28516   2.540   6.255   2.497 -0.3023  0.0550  0.0017
12443W        W28517   2.806   0.001   1.601  0.0999  0.2282  0.1132
12444W        W28518  10.496   9.451  13.751  0.0221  0.1190  0.3321
12445W        W28519  13.683   0.293   1.636 -0.0671 -0.1735 -0.3293
12446W        W28520   7.343   6.453   2.280 -0.0491  0.1130  0.0925
12447W        W28521  11.768   8.681  13.514 -0.0458 -0.0810  0.0699
12448W        W28522  10.345   2.640   0.981 -0.1786 -0.0415  0.3574
12449W        W28523   1.127  10.788  12.178 -0.0462  0.1167  0.0129
12450W        W28524  13.826   6.814   5.589 -0.4336 -0.0096  0.2437
12451W        W28525   3.117   4.377   1.468 -0.0559  0.0223  0.1321
12452W        W28526   6.218  13.663  11.769  0.1680  0.2050  0.0105
12453W        W28527   8.384   4.772   4.468  0.2748 -0.2453  0.3818
12454W        W28528  13.011   2.529   0.352  0.3287  0.0574 -0.1357
12455W        W28529   5.179   9.699  15.092 -0.1937  0.1310  0.3188
12456W        W28530  15.807   8.522  15.094  0.1260 -0.2524  0.2303
12457W        W28531   3.674  11.435   0.154 -0.0011 -0.0244 -0.3525
12458W        W28532  15.800  14.403   4.542  0.1304  0.1331  0.0701
12459W        W28533   4.851   2.310  15.959  0.2326  0.0513 -0.1966
12460W        W28534  11.151  14.599   0.921 -0.0637  0.2059 -0.0981
12461W        W28535   6.098   6.907  14.947 -0.0812 -0.1554  0.2726
12462W        W28536   0.158   3.678  16.176 -0.3420  0.1650 -0.2207
12463W        W28537  15.127   7.409   4.210  0.0934 -0.1197  0.1131
12464W        W28538   7.629   7.376  12.139 -0.0254 -0.0092  0.0949
12465W        W28539  13.924   4.528  13.729 -0.0933 -0.1963  0.1378
12466W        W28540   0.313   6.410  11.515 -0.1598  0.1179 -0.0264
12467W        W28541  16.748   6.731   4.307 -0.0046  0.2706  0.1522
12468W        W28542   5.915   6.576  12.322  0.1555 -0.2762 -0.0637
12469W        W28543   8.685  17.786   0.115  0.1647  0.1168  0.0125
12470W        W28544   1.261  18.196   5.732 -0.0530 -0.1915  0.1232
12471W        W28545   0.892  11.866   5.023 -0.2037 -0.0059 -0.0742
12472W        W28546  14.953  17.480   0.046  0.2023  0.0136  0.4642
12473W        W28547  11.367  16.725   1.755 -0.0590 -0.1245  0.1055
12474W        W28548   5.507   7.291  14.465  0.2550  0.2819 -0.0276
12475W        W28549   3.201   5.812  15.552  0.1828 -0.0883 -0.0196
12476W        W28550   1.207  16.977  11.178 -0.3509  0.1896  0.0443
12477W        W28551   5.799  11.049  13.111  0.0961  0.1961  0.0124
12478W        W28552   1.412   8.982   1.693  0.3174  0.0054 -0.0089
12479W        W28553  11.647  16.934   2.163  0.0366  0.1019 -0.1486
12480W        W28554   2.020   4.744   1.996 -0.1890 -0.1228 -0.0428
12481W        W28555  15.603  16.726   4.833  0.1974  0.1366 -0.0352
12482W        W28556   6.549  15.911  14.622 -0.3933  0.2138  0.0387
12483W        W28557  10.300  14.242  15.750  0.0587  0.5409  0.0310
12484W        W28558  15.047  14.125   5.107  0.1202  0.1402 -0.0554
12485W        W28559   5.038   6.204   4.985 -0.1727  0.3358  0.0250
12486W        W28560  14.262   1.249  15.690  0.0640 -0.0914 -0.2045
12487W        W28561  14.309   3.654  15.745 -0.1073 -0.1250 -0.0817
12488W        W28562   8.602   5.905  13.653 -0.0609  0.0468 -0.1398
12489W        W28563  14.820  12.406  14.969 -0.1411 -0.1252 -0.1270
12490W        W28564  16.644  15.122   0.875 -0.1622 -0.2863  0.0392
12491W        W28565   3.695   9.687  12.102  0.1863  0.0202  0.2559
12492W        W28566  12.208  11.573  12.746 -0.1618 -0.0468  0.2498
12493W        W28567   1.026   4.796   4.555 -0.3997  0.1053  0.0641
12494W        W28568   7.325   5.844   3.829  0.0674 -0.0783  0.3826
12495W        W28569   9.835   3.574  14.116  0.4451 -0.1634  0.0266
12496W        W28570  16.142  17.762  16.478 -0.0758  0.1102 -0.0168
12497W        W28571   1.332  14.230  12.718 -0.1598  0.1272 -0.0294
12498W        W28572   4.971  16.252   4.786  0.0024  0.2561  0.1168
12499W        W28573   6.741  12.403  14.151  0.1770  0.2248  0.0469
12500W        W28574   8.440  12.505  12.588  0.0185 -0.1318  0.1619
12501W        W28575   8.149   7.768   4.472 -0.3348  0.1336  0.1471
12502W        W28576  16.687  13.131  12.437  0.1667 -0.2089  0.0188
12503W        W28577   5.117  15.862  14.681 -0.1752 -0.0813  0.1092
12504W        W28578   6.848   1.532   0.316  0.1704 -0.0885  0.2605
12505W        W28579  10.007   4.829  12.471 -0.2174 -0.0810 -0.0553
12506W        W28580   2.252   3.521  14.736  0.2409  0.1642  0.0793
12507W        W28581  13.396  10.490   3.814  0.0456 -0.0689 -0.3875
12508W        W28582   6.267  10.253   3.835 -0.1973  0.2399 -0.2302
12509W        W28583  17.393   3.864   3.248  0.3219  0.0656 -0.2903
12510W        W28584   3.610   4.534   3.025  0.1077 -0.1924  0.2423
12511W        W28585   4.202   2.027  11.261 -0.0128  0.3374 -0.0169
12512W        W28586   2.634  12.867   6.086  0.2910 -0.0723 -0.0747
12513W        W28587   0.221   5.315  12.714  0.2521 -0.0057 -0.3067
12514W        W28588   5.482  15.332   4.557 -0.1935 -0.4580 -0.0812
12515W        W28589   0.687   3.950   6.064  0.0001 -0.3956 -0.2236
12516W        W28590  12.918   2.421   0.887 -0.0256  0.0003 -0.2288
12517W        W28591  15.735   5.281   2.078  0.1516  0.0472  0.3892
12518W        W28592   4.396   5.722   2.638  0.0977 -0.1998  0.1205
12519W        W28593  14.201   9.467  11.699 -0.1246  0.3181  0.2274
12520W        W28594   2.551  15.753  12.310  0.0554 -0.0798 -0.1978
12521W        W28595   3.204   1.486   5.228 -0.1428  0.0009 -0.1434
12522W        W28596  11.176   6.295  16.015  0.1321 -0.1591  0.1458
12523W        W28597   3.125  12.075  12.667 -0.0599 -0.4061  0.1642
12524W        W28598   1.220   6.903  12.960 -0.1042 -0.2024  0.0985
12525W        W28599  15.368   6.378  15.200 -0.1092 -0.0651 -0.2944
12526W        W28600   5.212  14.149  14.638 -0.1905  0.0775 -0.2166
12527W        W28601  18.196   2.564   0.848 -0.0695  0.0228  0.1474
12528W        W28602  15.728   5.347  14.507  0.1365  0.3843  0.2662
12529W        W28603   5.928   2.306   0.013 -0.2907  0.0350  0.1298
12530W        W28604   3.003  15.329   5.697 -0.1349 -0.0361  0.1776
12531W        W28605  14.357  12.729  14.186  0.0520  0.1969 -0.2367
12532W        W28606   9.410  12.161   1.310 -0.0998  0.1136 -0.1167
12533W        W28607  10.802  11.243  14.778 -0.2540 -0.1843  0.0242
12534W        W28608   4.807  16.924  15.747  0.1949 -0.1185 -0.0868
12535W        W28609   7.052   1.864  13.286  0.2007  0.4367 -0.1728
12536W        W28610   0.021  13.259   3.460  0.0516  0.1095 -0.0920
12537W        W28611  17.955   3.040   1.647 -0.1433  0.1159 -0.2477
12538W        W28612  14.352   7.012  16.480 -0.0845 -0.1425 -0.0521
12539W        W28613  11.152   4.245   1.441 -0.2902 -0.2933 -0.1192
12540W        W28614  10.969  15.823  12.671  0.0453  0.5134 -0.1674
12541W        W28615  14.309   5.725  11.985 -0.1626 -0.0007  0.0687
12542W        W28616   5.258   5.549   4.335 -0.1214  0.2645 -0.3458
12543W        W28617   9.882  17.730   5.658  0.0800 -0.0925 -0.2063
12544W        W28618   3.276   6.778  13.345 -0.1405 -0.3116  0.0673
12545W        W28619  16.538  11.177  13.554  0.1713  0.0910 -0.0057
12546W        W28620   3.611  15.802  13.709 -0.0589  0.1570 -0.2584
12547W        W28621  10.639  11.468   4.568 -0.2246 -0.2987 -0.1949
12548W        W28622   9.911   7.289  13.110  0.2374  0.0464 -0.3090
12549W        W28623   3.763   9.119  12.384 -0.4231 -0.2389 -0.2127
12550W        W28624  14.074   6.370   1.861  0.0049 -0.0935 -0.3646
12551W        W28625   2.133   9.978  14.497 -0.2676 -0.0484 -0.1449
12552W        W28626  18.220  12.883  10.270  0.4499 -0.2893  0.0096
12553W        W28627  18.150  11.263  14.774  0.0434  0.1032  0.0331
12554W        W28628   8.189   3.394   1.067  0.1368 -0.1395  0.0625
12555W        W28629   2.655   1.300   5.983  0.2290  0.0209  0.4465
12556W        W28630  13.186  10.856   1.187 -0.0386  0.1286  0.0734
12557W        W28631   9.205   0.684   3.076 -0.0190  0.1379 -0.2273
12558W        W28632  13.852  18.098   3.350 -0.1445 -0.0698  0.0750
12559W        W28633   1.528  16.994  15.780  0.1040 -0.0060  0.4227
12560W        W28634   5.225  12.938   3.395  0.0992  0.3144  0.2636
12561W        W28635   7.810   7.849  13.249  0.0920  0.4280  0.0427
12562W        W28636   4.366   6.073   1.248  0.1445 -0.3368 -0.1588
12563W        W28637  15.887   5.697  11.276  0.0403 -0.0921  0.2306
12564W        W28638   3.223  13.815   5.387  0.3111  0.0583 -0.0850
12565W        W28639   3.451  12.889   2.924 -0.0188 -0.1248 -0.0627
12566W        W28640  12.228   8.029  14.451  0.0240  0.0080 -0.0406
12567W        W28641   1.814  11.107   0.675  0.0583 -0.1780 -0.0063
12568W        W28642   7.897   0.829  13.653  0.4793  0.0044 -0.0728
12569W        W28643   2.130   6.650   1.665  0.1809 -0.0973  0.1592
12570W        W28644   2.445   8.203  14.796 -0.0875  0.0403  0.0732
12571W        W28645   5.501  14.431   4.864  0.1157  0.1866  0.0097
12572W        W28646   6.458   3.389   0.179  0.0922 -0.2312 -0.3973
12573W        W28647   7.419  16.646   4.676 -0.1811 -0.0296 -0.0420
12574W        W28648  15.755  11.146  12.080  0.2281  0.0467  0.0397
12575W        W28649  12.606  13.473   0.685  0.1645 -0.1611  0.0429
12576W        W28650  15.010  15.318  15.162 -0.2138 -0.3718  0.0117
12577W        W28651   5.144  17.946   1.100  0.1358  0.1312  0.2516
12578W        W28652   6.767   5.155   3.894 -0.0126  0.0350 -0.2762
12579W        W28653  10.637  16.721   0.278  0.0399  0.0843 -0.1669
12580W        W28654  11.671  14.404   3.209  0.0007  0.1325  0.1611
12581W        W28655   9.505   0.345   0.234 -0.2881  0.0932 -0.0469
12582W        W28656  17.019   7.617   0.762 -0.1427  0.3151  0.0662
12583W        W28657   1.502  15.777  11.551  0.3229  0.2051  0.1774
12584W        W28658  17.184   2.880  12.391 -0.0563  0.1916 -0.2207
12585W        W28659   4.743   5.509   1.946  0.2912  0.0246 -0.1773
12586W        W28660   6.189  13.498  15.426  0.0753 -0.0976  0.0278
12587W        W28661   4.083  13.179   1.956  0.1974 -0.1635 -0.2366
12588W        W28662   6.591  10.436   4.304 -0.0881 -0.2292  0.2055
12589W        W28663  17.003  10.662   2.053  0.2444 -0.1194  0.1829
12590W        W28664  14.770   2.082  16.521  0.1670  0.1229 -0.0072
12591W        W28665  10.712   4.513  15.785 -0.3470  0.0886 -0.3273
12592W        W28666   4.751   4.387  13.094 -0.4096  0.1351 -0.0530
12593W        W28667   4.024  17.000  13.530 -0.2090 -0.0884 -0.0288
12594W        W28668   9.078   9.130  13.294  0.0242 -0.1773  0.0277
12595W        W28669  15.698  10.791   6.031  0.0634  0.3789 -0.1145
12596W        W28670   8.286   3.077   4.941 -0.1882  0.1419 -0.2358
12597W        W28671   1.369   9.007  13.283  0.1372  0.0248 -0.1045
12598W        W28672  11.585  11.866  15.559  0.5485 -0.0217 -0.3174
12599W        W28673  11.467   3.420   5.174  0.0725  0.1775  0.0521
12600W        W28674   2.622  11.487   3.566 -0.0675  0.0808  0.1491
12601W        W28675  15.466   1.800   1.590 -0.0634 -0.0475  0.2627
12602W        W28676   4.395  16.667   3.400  0.0673 -0.2269  0.1615
12603W        W28677  13.299  17.131   3.678 -0.1515  0.1056  0.1171
12604W        W28678  10.445  17.145   0.579  0.3136 -0.0807  0.0525
12605W        W28679  13.189   6.401  16.532 -0.2124  0.0211  0.1284
12606W        W28680   3.869   3.157  13.116 -0.0932 -0.0484  0.1425
12607W        W28681  13.072  12.335  11.761 -0.1392  0.2397  0.0385
12608W        W28682   4.562   9.629  13.988 -0.0884  0.0487  0.0995
12609W        W28683   0.078  10.848  15.046 -0.0416 -0.0368  0.2073
12610W        W28684  16.647  14.190  12.753 -0.0867  0.0909 -0.1022
12611W        W28685   0.199   8.912  13.787 -0.0582 -0.1997  0.0855
12612W        W28686   5.448  17.239   4.450  0.2907 -0.1671 -0.1240
12613W        W28687   4.628   4.129   4.780 -0.1181 -0.0405 -0.4933
12614W        W28688   9.564  11.424   4.756  0.1267 -0.0953  0.2325
12615W        W28689  13.829   7.436   3.499  0.2445 -0.0173 -0.2758
12616W        W28690  13.178  14.222   3.081  0.2697  0.0306 -0.5454
12617W        W28691   5.053   2.957   6.270 -0.0364 -0.1377  0.1771
12618W        W28692  15.401   0.594   2.346 -0.1815 -0.1391 -0.3136
12619W        W28693   1.661  18.133  15.761 -0.0722  0.0694  0.1882
12620W        W28694   0.299   5.135  14.045 -0.1410  0.1433 -0.1221
12621W        W28695   0.362   6.564  12.517  0.0758  0.3977 -0.0404
12622W        W28696  15.532  10.093  13.030 -0.1845  0.4373 -0.0115
12623W        W28697  17.088  17.508  11.396  0.0207 -0.2622 -0.2476
12624W        W28698   2.046  13.876   0.429  0.0312  0.0568  0.0359
12625W        W28699   5.804   9.395   5.563 -0.1688 -0.0035  0.3979
12626W        W28700   3.626  15.736  10.310 -0.1053  0.0366  0.1204
12627W        W28701  16.904   2.368  11.934  0.0759  0.1707 -0.0092
12628W        W28702   9.031  13.832   1.668  0.0676  0.2332 -0.0918
12629W        W28703   8.659  12.329   4.218  0.2287  0.0337 -0.1878
12630W        W28704  14.345  13.438   4.578 -0.1902 -0.1249  0.1041
12631W        W28705  11.546  17.272  12.345  0.1204 -0.3209  0.1982
12632W        W28706   4.371  12.074   5.715  0.0532  0.2121  0.4969
12633W        W28707  13.206  10.240  15.978  0.3026 -0.0072 -0.1879
12634W        W28708   2.614   8.263  11.088  0.3365 -0.2270  0.2679
12635W        W28709   1.434  17.999   1.189 -0.2219 -0.3232 -0.3034
12636W        W28710   5.798   8.104   5.158 -0.3890  0.1536 -0.1951
12637W        W28711  16.345   9.469   5.457 -0.1606  0.3777 -0.3151
12638W        W28712  11.149  10.352   4.153 -0.0985  0.0214  0.1417
12639W        W28713  17.895  13.248  13.170  0.3896 -0.0533 -0.3297
12640W        W28714   0.695   5.005  13.447  0.0893 -0.2775 -0.1894
12641W        W28715  11.412   1.070   2.056 -0.1630 -0.0129 -0.3154
12642W        W28716   6.464   5.470  15.516  0.0501 -0.0264 -0.3619
12643W        W28717   9.585   0.040   1.441 -0.0814  0.0307 -0.1617
12644W        W28718   7.356   8.545   1.795 -0.2263 -0.0216 -0.0780
12645W        W28719   0.957   2.125  11.063 -0.1106  0.1261 -0.1091
12646W        W28720   5.735  14.375  16.244  0.2515  0.0007 -0.1144
12647W        W28721   3.536  17.065   0.244  0.0262  0.0666 -0.3473
12648W        W28722   9.233  12.903   3.997 -0.0567 -0.0225  0.2433
12649W        W28723   5.208  14.300  16.308  0.0534  0.0298  0.2115
12650W        W28724   7.775   7.629  11.745  0.1216 -0.3171 -0.0094
12651W        W28725  10.086  15.814   3.735  0.0328 -0.3929 -0.0140
12652W        W28726   2.528   4.418  12.754 -0.0977 -0.3944  0.4668
12653W        W28727  14.731   0.445  11.462  0.0871 -0.0275 -0.2327
12654W        W28728  15.152   1.499   3.638 -0.0491  0.0698  0.1213
12655W        W28729   2.669   0.561  12.045 -0.1171  0.1004 -0.2929
12656W        W28730  16.588  16.176  11.983 -0.1046 -0.0447  0.0927
12657W        W28731   7.709  16.785   3.213 -0.0004  0.0586 -0.0566
12658W        W28732  12.794  11.870  12.509  0.1332  0.0302  0.3510
12659W        W28733  17.163   7.133  14.943  0.1252 -0.1084  0.0735
12660W        W28734  16.670   5.776   5.995  0.0302 -0.2087 -0.3480
12661W        W28735  17.080  15.584  15.527  0.1143  0.4462 -0.1520
12662W        W28736   3.300   1.241   4.815 -0.2413  0.2411 -0.1978
12663W        W28737   8.127   2.454   3.917 -0.0741 -0.1389  0.1416
12664W        W28738  14.182  10.585  15.549  0.0072 -0.0723  0.2105
12665W        W28739  10.698   3.229  16.296  0.3132 -0.0889 -0.0315
12666W        W28740   8.450  10.583  16.224  0.1775  0.2753 -0.2944
12667W        W28741   6.078   7.669  12.996 -0.3366  0.0037  0.2831
12668W        W28742  10.645   2.998  14.486  0.1456  0.1586  0.3232
12669W        W28743  17.414   1.798   0.155  0.1133  0.2726 -0.0865
12670W        W28744   6.800   3.028   0.383  0.0261 -0.0999 -0.0637
12671W        W28745   3.740   6.352   3.663  0.2705 -0.2643 -0.1075
12672W        W28746   5.194  12.335   4.184  0.1698 -0.2043 -0.0331
12673W        W28747   5.655  17.595  13.479  0.2786 -0.1184  0.0637
12674W        W28748   0.682   2.904   2.960 -0.0143  0.0203 -0.0160
12675W        W28749  10.381   2.797  16.482 -0.0082 -0.2917  0.2200
12676W        W28750  13.750   3.179  13.361  0.4007 -0.0129  0.1596
12677W        W28751   1.904   1.314   4.213 -0.1022 -0.0324  0.2101
12678W        W28752   8.770   0.822  12.202  0.1415 -0.1225  0.0885
12679W        W28753  14.641  17.499  14.038  0.1386 -0.2343  0.1040
12680W        W28754   4.978   8.440   1.211  0.2758  0.1509 -0.2933
12681W        W28755   8.288  10.949   5.311  0.2371  0.1925 -0.1893
12682W        W28756  13.491  11.120  16.068  0.0893  0.0330  0.3351
12683W        W28757   9.261  17.996   0.727  0.2202 -0.3736 -0.2855
12684W        W28758   9.750  16.046  15.823 -0.0206  0.3124  0.0466
12685W        W28759   4.739   4.311   2.882  0.2236 -0.1331  0.1599
12686W        W28760   7.722  17.987   4.994 -0.1305  0.1716  0.0478
12687W        W28761   5.697  14.883  13.022 -0.1752 -0.1932 -0.0090
12688W        W28762   8.833  10.757  15.382 -0.3294 -0.0839 -0.1014
12689W        W28763   5.423   6.246  13.276  0.0052 -0.1984 -0.1635
12690W        W28764   4.371  18.022  13.652  0.1271  0.1858  0.0303
12691W        W28765   6.731   7.884   2.879 -0.0920 -0.1296  0.2706
12692W        W28766  12.242  12.665   2.138  0.0739  0.2532  0.1354
12693W        W28767  11.936  15.866   4.605  0.0524 -0.1684 -0.3496
12694W        W28768  13.242  13.129   4.286 -0.1300 -0.0894 -0.1986
12695W        W28769  14.991  10.990  15.343  0.1964  0.2573 -0.3365
12696W        W28770  15.287  13.556   4.449  0.0812 -0.1190  0.2398
12697W        W28771  14.335  13.961   4.329 -0.1018 -0.2096  0.0285
12698W        W28772   8.670   5.537   4.581  0.3049 -0.1028 -0.0979
12699W        W28773   5.932   1.976  15.141  0.0342 -0.2260  0.1006
12700W        W28774  17.615   0.216   4.205  0.1228  0.0501 -0.2471
12701W        W28775  11.932   4.553  14.371  0.2332  0.1638  0.3166
12702W        W28776   3.134  15.005  11.931 -0.1771  0.1603  0.2897
12703W        W28777   9.374   4.122   3.881  0.3192  0.2632  0.1510
12704W        W28778   6.386   2.252   3.098 -0.1890 -0.1488 -0.1735
12705W        W28779   7.166   7.102   3.744 -0.1835  0.1331  0.1013
12706W        W28780  15.173   2.935   4.114  0.0697  0.1167 -0.3117
12707W        W28781   0.856  11.287  15.599  0.4149  0.0396  0.3886
12708W        W28782   6.845   7.232   2.386 -0.0321 -0.0078 -0.1109
12709W        W28783   5.912   1.972   4.438  0.0434  0.1827  0.3909
12710W        W28784  11.510   0.162  15.849  0.1587  0.0879  0.1638
12711W        W28785  17.879   6.629  10.913  0.0116 -0.1977 -0.3644
12712W        W28786   0.511   9.363  12.670 -0.1708  0.1537  0.0638
12713W        W28787   4.502  10.577   4.523  0.1668 -0.1958 -0.0992
12714W        W28788   9.245   5.322  12.351  0.1003  0.6276 -0.0818
12715W        W28789  12.547  13.002  15.624  0.2203 -0.1745  0.1199
12716W        W28790  15.345  10.399   6.127  0.0143  0.3647  0.1078
12717W        W28791   0.232  17.068   0.685  0.1770 -0.3193  0.1360
12718W        W28792  17.631   8.631   1.567 -0.1011  0.0779 -0.1538
12719W        W28793   4.210   6.328  16.299 -0.0632 -0.0414  0.1032
12720W        W28794   3.050   1.539   0.704  0.1614 -0.2385 -0.2032
12721W        W28795   8.555   4.950   1.417 -0.0090 -0.0322  0.0723
12722W        W28796  15.085   4.279  15.262  0.3704  0.0751 -0.0283
12723W        W28797   2.154  15.891  14.071  0.4393 -0.0363  0.4528
12724W        W28798   1.042  12.152   5.399  0.4274 -0.0237 -0.1909
12725W        W28799   7.471   1.372   4.445 -0.2092  0.0015  0.1421
12726W        W28800  15.493  14.925  13.142  0.0116  0.3039 -0.0018
12727W        W28801   4.423  10.577  16.233 -0.0765  0.3991 -0.1197
12728W        W28802   2.088  15.223   0.075  0.1581  0.0931 -0.1604
12729W        W28803   7.965  12.710  11.750 -0.0585 -0.0107 -0.1363
12730W        W28804  13.075   3.642  16.312  0.0531  0.1104 -0.1026
12731W        W28805   0.858   0.781  16.312  0.0464  0.3019  0.0204
12732W        W28806   6.576   5.154  14.814 -0.3372 -0.0859 -0.0377
12733W        W28807   1.208   0.521  12.197  0.3043 -0.1984  0.1749
12734W        W28808  16.307   4.365   0.693 -0.0204 -0.0220  0.0984
12735W        W28809  17.660  12.160  11.661 -0.2517 -0.1228  0.0522
12736W        W28810   2.315  16.519  16.389  0.1811 -0.1253 -0.1680
12737W        W28811  14.548  11.434   2.715 -0.0243 -0.1948 -0.2583
12738W        W28812   5.017   7.067   4.854 -0.2601 -0.1169  0.0583
12739W        W28813  11.103  12.168   1.955 -0.1009 -0.2091  0.1817
12740W        W28814   3.215  13.396   3.952 -0.3055 -0.1031 -0.4299
12741W        W28815  14.800   0.187   2.519 -0.0288  0.3495 -0.0369
12742W        W28816  17.874   9.582   0.823 -0.1037 -0.1816 -0.1199
12743W        W28817  11.327  14.537   1.409 -0.1025 -0.2282 -0.1388
12744W        W28818   9.482  17.678  14.474  0.1137 -0.0437 -0.0716
12745W        W28819   2.421  16.977  16.246  0.0649 -0.4273 -0.0399
12746W        W28820   3.259   4.261   0.914  0.0560 -0.2214 -0.2315
12747W        W28821   8.802   5.680   5.587 -0.1207 -0.1026  0.1111
12748W        W28822   0.262   6.637  15.140  0.0780  0.2194 -0.1440
12749W        W28823   7.341   4.639  16.312  0.2184  0.4200  0.2175
12750W        W28824  12.611  11.235  16.259  0.3683 -0.0260 -0.2106
12751W        W28825   1.467  18.158   1.658  0.0015 -0.2743  0.0723
12752W        W28826   1.343   9.327  15.643  0.0689  0.3995 -0.2277
12753W        W28827   9.180   2.534  13.230 -0.1033  0.1704 -0.0349
12754W        W28828  11.408  15.531  12.471 -0.0044 -0.0640  0.2039
12755W        W28829   1.427   0.885  13.199 -0.0065  0.1225  0.0961
12756W        W28830   3.878   6.745   4.027  0.0803  0.0951 -0.1711
12757W        W28831   0.560  15.162  16.126  0.0504 -0.0832  0.1289
12758W        W28832   5.239  16.356   4.062 -0.2001 -0.0772 -0.0889
12759W        W28833  13.496  12.323  11.988 -0.1448 -0.0716 -0.2112
12760W        W28834   0.834  17.389  14.707  0.0041 -0.2824 -0.0388
12761W        W28835   8.391  10.172  12.650  0.0498  0.0588 -0.1220
12762W        W28836   2.194   3.998  14.517  0.0208 -0.3361  0.1285
12763W        W28837   8.705  15.370   1.525 -0.0857 -0.1225 -0.0166
12764W        W28838  13.970   8.885  15.175  0.1392 -0.0297 -0.2207
12765W        W28839  17.872  11.424  14.397  0.3179 -0.1020 -0.2097
12766W        W28840  13.718  11.785  16.164  0.1431  0.2086  0.0943
12767W        W28841   6.233   5.699   0.204  0.0263 -0.0869  0.0982
12768W        W28842   0.139   3.579  12.661 -0.0051 -0.0645  0.1150
12769W        W28843  13.015  13.066  13.570 -0.0689 -0.1661  0.1360
12770W        W28844  10.835  11.104   5.763  0.2964 -0.3062  0.4178
12771W        W28845   3.651   9.408  11.434 -0.1328 -0.0395 -0.1976
12772W        W28846  15.382  12.442   4.290 -0.1402  0.0673 -0.0633
12773W        W28847   3.579  17.065   3.337 -0.1399  0.1920 -0.0751
12774W        W28848   4.787   3.484   2.364  0.1937  0.1309  0.3069
12775W        W28849   4.935   3.127  12.547  0.1853  0.1523 -0.2013
12776W        W28850   1.102  15.295  16.149  0.0947 -0.1974  0.0263
12777W        W28851   6.646   7.213  15.750 -0.2251  0.0045 -0.0075
12778W        W28852   2.856  11.689  15.886  0.3128  0.2775  0.0237
12779W        W28853   4.551  11.333   1.427  0.1631  0.0151 -0.0855
12780W        W28854   7.034  10.988  14.803 -0.1808 -0.0462 -0.1131
12781W        W28855   8.868   6.702   1.526  0.0696 -0.1598 -0.0800
12782W        W28856  12.023   4.162   5.846 -0.1660  0.2653  0.1995
12783W        W28857   5.050   9.973  16.012 -0.1116 -0.0408  0.1868
12784W        W28858   2.038  12.692   4.657  0.0184 -0.2815 -0.3334
12785W        W28859   0.995   9.437   0.889  0.0277 -0.0554 -0.0030
12786W        W28860   6.511   1.936  11.564  0.1073  0.1036 -0.0805
12787W        W28861  14.213   8.534  16.071 -0.3622  0.0211 -0.1097
12788W        W28862   0.529   4.895   3.975  0.0166 -0.0052  0.1534
12789W        W28863   7.384   5.622  11.709  0.0627 -0.1076 -0.1886
12790W        W28864   7.881  14.871  13.789 -0.2074 -0.0099 -0.0338
12791W        W28865  12.254   3.235   5.698  0.0252 -0.0551 -0.0356
12792W        W28866   0.456   6.470   4.488  0.0155 -0.2933  0.0012
12793W        W28867   6.305  10.964  12.062 -0.1290  0.1309  0.0195
12794W        W28868   2.385   6.712   2.792  0.0288 -0.0142 -0.0512
12795W        W28869  13.486   5.415   0.069 -0.0026  0.1986  0.3527
12796W        W28870   4.933   2.625  12.555 -0.1781  0.3186 -0.1209
12797W        W28871   6.465   0.793  13.175  0.1757  0.2284  0.0355
12798W        W28872   2.992   1.761   2.694 -0.1341 -0.3621  0.0297
12799W        W28873   5.238   4.820  11.624  0.2655  0.3386 -0.3031
12800W        W28874   4.713  18.212   1.350 -0.2755 -0.1948  0.2737
12801W        W28875  13.375  12.063   2.828  0.0023 -0.0779 -0.2509
12802W        W28876  14.666  16.421   4.477 -0.0168  0.1627 -0.1833
12803W        W28877  17.965  15.079   5.991 -0.0595 -0.2112  0.0165
12804W        W28878  17.846  17.182  15.169  0.2734  0.2803  0.2276
12805W        W28879   7.573   6.920   0.396 -0.0185 -0.0328  0.3282
12806W        W28880  13.665  14.790  14.388 -0.2991 -0.0451  0.0644
12807W        W28881  14.529   3.816  11.902 -0.2588  0.1452 -0.3237
12808W        W28882  12.102   0.984  14.286 -0.1888 -0.0367 -0.3629
12809W        W28883   5.415  11.896  16.419  0.1013 -0.1420 -0.0388
12810W        W28884   3.440  13.631   0.750 -0.2754  0.0756 -0.1332
12811W        W28885  12.806  13.377   3.394 -0.0100 -0.3945  0.3614
12812W        W28886  15.505  14.393  15.109  0.2805  0.0119 -0.1692
12813W        W28887   3.276   8.281  12.887 -0.1445 -0.2453 -0.2936
12814W        W28888  15.772  10.969  13.387 -0.1959  0.0149  0.0984
12815W        W28889  16.202  13.738   5.641 -0.0142 -0.0290 -0.0478
12816W        W28890  11.702   7.469  13.932 -0.0657 -0.0620 -0.1975
12817W        W28891  15.225   6.568   4.521  0.0994  0.2560 -0.1950
12818W        W28892   1.933   9.718  11.875  0.2099  0.1775  0.2678
12819W        W28893   7.051   6.228  12.105 -0.1838  0.1486 -0.0111
12820W        W28894   2.623  17.475  16.394 -0.3922  0.2733  0.1744
12821W        W28895  12.589   2.833   5.209  0.1774 -0.0857 -0.0627
12822W        W28896  10.695  15.007   3.750 -0.0618  0.1414  0.0251
12823W        W28897   1.353   3.908   2.918 -0.1558  0.0404  0.1602
12824W        W28898   1.492  12.143   1.750  0.2188  0.2223 -0.0606
12825W        W28899  15.615   4.212   3.767 -0.0644 -0.0351  0.3107
12826W        W28900   6.246  11.682  14.142 -0.2690  0.0995 -0.2466
12827W        W28901   0.201   0.280  13.965 -0.3751 -0.1889  0.0217
12828W        W28902   7.207   2.989  15.686 -0.0076 -0.2988 -0.0128
12829W        W28903   7.836   3.902  15.113  0.2184  0.1528 -0.0507
12830W        W28904   2.065  17.073   4.172  0.2709 -0.2797 -0.0188
12831W        W28905   6.747  10.988   1.441 -0.0393  0.1021  0.1824
12832W        W28906  15.666   4.453   3.199 -0.0345  0.1385  0.0564
12833W        W28907  16.816   2.237  12.947  0.3233  0.1565  0.0674
12834W        W28908   4.870   7.787   0.588  0.2883  0.4010  0.2719
12835W        W28909  16.443   4.600  15.383  0.0089 -0.0262 -0.2047
12836W        W28910  10.815  16.298  12.933  0.0690 -0.0059  0.0646
12837W        W28911   0.545  17.171  10.547 -0.1087  0.1958  0.0560
12838W        W28912   1.433   8.995  16.020  0.1899 -0.0027  0.0061
12839W        W28913  13.728   4.053  15.457 -0.1758  0.1562  0.4437
12840W        W28914   0.201  13.760  12.296  0.3695 -0.0800 -0.0806
12841W        W28915   6.597   4.560  15.513  0.0905 -0.3514  0.1924
12842W        W28916   8.709   2.640  15.532  0.0022 -0.0211 -0.5115
12843W        W28917   1.085   0.501  14.169  0.1320 -0.0219  0.1376
12844W        W28918   3.019  12.166   4.182  0.0358 -0.0654 -0.1088
12845W        W28919   1.356  13.213   1.174 -0.0549 -0.0347  0.0315
12846W        W28920  14.281   4.538  13.315 -0.1011  0.2703 -0.4614
12847W        W28921  13.929   4.255  14.684  0.0689  0.1273  0.0966
12848W        W28922  14.214   9.261   0.594  0.0332  0.1060  0.0546
12849W        W28923   9.309  10.894  15.706  0.1390 -0.0086  0.1917
12850W        W28924  12.802  17.152  15.155 -0.0770 -0.4115 -0.0558
12851W        W28925   6.876  14.081  13.855 -0.1638  0.1974  0.0273
12852W        W28926  15.465  13.654   3.803 -0.1503  0.1703 -0.0165
12853W        W28927  17.520   2.288  10.882  0.2461 -0.1061  0.4340
12854W        W28928   1.263  13.036  13.450 -0.1043  0.0140  0.1174
12855W        W28929   7.383   1.795  11.703  0.1263  0.0183  0.0435
12856W        W28930   9.187  15.217  13.458 -0.0411  0.1292 -0.1671
12857W        W28931  15.550   9.596  12.132  0.2774  0.0503  0.0258
12858W        W28932   5.081   3.198   5.173  0.0178  0.0009  0.2865
12859W        W28933  17.540  10.292   4.554 -0.2898  0.0188  0.1092
12860W        W28934   0.390  17.181  14.714 -0.1317 -0.1188  0.1189
12861W        W28935  16.646  10.602   4.663  0.4745 -0.0853  0.2381
12862W        W28936   2.951  12.665   1.823 -0.3175 -0.1517 -0.1113
12863W        W28937   3.122  17.674  14.376  0.0967 -0.0647 -0.0480
12864W        W28938  14.954  15.741  13.711  0.1862  0.2750 -0.0653
12865W        W28939  15.302   9.596   0.414  0.1557  0.3740  0.2213
12866W        W28940  11.120  10.424   2.523  0.2086 -0.2020  0.1447
12867W        W28941   6.055  16.412  10.183 -0.1141 -0.0812  0.0962
12868W        W28942  17.947  12.811   3.742  0.2156  0.0302  0.0232
12869W        W28943   7.395  10.388  11.780  0.0352 -0.1553  0.1312
12870W        W28944  15.417  16.484   3.365  0.2173  0.1152 -0.0791
12871W        W28945   4.605   1.879   4.241 -0.0737 -0.1686  0.0647
12872W        W28946  16.704   2.233   1.398  0.0385 -0.3294  0.2557
12873W        W28947  17.203  13.553   5.428 -0.1294  0.1348  0.0125
12874W        W28948  12.458   8.629   0.728 -0.1450  0.2879  0.1027
12875W        W28949  10.500   1.191   3.691 -0.0076 -0.0072 -0.0163
12876W        W28950   3.072   3.630  15.426  0.0949  0.2318  0.2660
12877W        W28951  14.359   7.578   5.714 -0.1100  0.1464  0.2994
12878W        W28952  11.573   0.868  15.238  0.0582  0.2509 -0.1040
12879W        W28953   8.508   0.999   0.410  0.1001 -0.0652  0.1747
12880W        W28954  11.667  14.210  11.801  0.0396  0.2469  0.1815
12881W        W28955   1.253  10.123   5.591 -0.0439 -0.2230 -0.0848
12882W        W28956  13.016  11.536  15.587  0.1416 -0.0048  0.2733
12883W        W28957   8.535   8.556  11.610  0.2979  0.2861  0.0228
12884W        W28958  14.667   2.899   1.123 -0.2238  0.0381  0.0391
12885W        W28959   4.436  11.619  11.646  0.4377  0.0992  0.0940
12886W        W28960   2.550   0.303   0.104  0.0700  0.0509  0.2709
12887W        W28961   5.527   1.929   2.375 -0.0081 -0.1573 -0.0808
12888W        W28962   1.192  16.416   4.047 -0.0270  0.1642 -0.0483
12889W        W28963   4.282   7.424   4.256  0.2184 -0.0467 -0.2377
12890W        W28964   1.904   6.699   5.752  0.1748 -0.1184 -0.2109
12891W        W28965   9.911  14.316   5.543 -0.1942  0.2690  0.0882
12892W        W28966  14.095   7.607  13.090 -0.0851  0.1929  0.3445
12893W        W28967   6.109  15.191  13.937  0.2807  0.1466 -0.2468
12894W        W28968  14.180  14.929   2.697 -0.2052 -0.2456 -0.3281
12895W        W28969  10.351  15.888   1.606 -0.0898  0.2081 -0.0928
12896W        W28970   9.910  10.022   1.538 -0.0020  0.1908 -0.0953
12897W        W28971  14.691   3.616  16.077  0.3002 -0.2560  0.1232
12898W        W28972   7.993   7.973  11.504  0.0755  0.0915 -0.3410
12899W        W28973   6.962   0.921  11.560  0.2085  0.1324  0.1217
12900W        W28974   8.074  11.660  12.325  0.1213 -0.0163  0.1157
12901W        W28975  13.524  11.670  13.382 -0.5110 -0.1301 -0.1143
12902W        W28976   9.155   2.882   6.636 -0.2460 -0.0108  0.3092
12903W        W28977  15.532   5.041  14.072  0.0040  0.1478 -0.2582
12904W        W28978  16.256   0.797   4.614  0.1407 -0.3154 -0.0320
12905W        W28979   1.643   8.872   0.935 -0.1944  0.0043 -0.1128
12906W        W28980   9.355  13.334   5.461 -0.2415  0.5417 -0.0838
12907W        W28981  11.561  15.172  13.448 -0.0117  0.1275 -0.2149
12908W        W28982   7.078  10.641   4.518  0.4408  0.0227  0.3630
12909W        W28983   1.098  11.342   6.205  0.0441  0.4567  0.2133
12910W        W28984   5.726  16.724   4.732 -0.0515 -0.0177 -0.1406
12911W        W28985  10.780   2.107   2.510  0.1204  0.2611 -0.1513
12912W        W28986  16.746  11.247  13.080 -0.3163  0.1162  0.0148
12913W        W28987   8.585   0.348  12.299  0.1081  0.3314 -0.2675
12914W        W28988   8.037  13.638   0.262 -0.1255  0.0523 -0.1694
12915W        W28989  15.096   4.076   5.630  0.1024 -0.1589 -0.3019
12916W        W28990  15.962   8.975   0.202 -0.0640 -0.1315 -0.0844
12917W        W28991   9.496   6.401   5.231  0.0524  0.2267  0.1291
12918W        W28992   4.478  17.007  15.196 -0.0672  0.0594 -0.1705
12919W        W28993   9.300   6.602   0.538 -0.2466 -0.2082  0.1943
12920W        W28994   3.510   8.353  14.786  0.4922  0.1991  0.1821
12921W        W28995   4.305  16.811   2.239 -0.0704 -0.2318 -0.2036
12922W        W28996   4.181   6.775  13.214 -0.0237  0.0021 -0.2264
12923W        W28997  16.778  11.034  15.529  0.0752 -0.0294  0.1355
12924W        W28998  13.052   5.448  16.209  0.2794 -0.0509  0.0684
12925W        W28999  14.746  16.564  14.705 -0.1611 -0.2022 -0.2410
12926W        W29000  13.317   2.793  11.851  0.0333 -0.3228 -0.0098
12927W        W29001   2.640   2.551  14.616  0.0163 -0.3032  0.0763
12928W        W29002   5.684  13.078   4.296  0.2330  0.1020  0.4253
12929W        W29003   4.795   4.193   4.234  0.0568 -0.2365 -0.3954
12930W        W29004   6.520   0.592  14.452 -0.2095  0.3267 -0.0094
12931W        W29005   6.230  14.313  13.146  0.3759 -0.0503  0.1352
12932W        W29006  10.775  11.392  15.271 -0.0174 -0.5314  0.1659
12933W        W29007  11.279   5.538  14.903  0.0604  0.1499 -0.0178
12934W        W29008   6.339  11.973  11.804 -0.1473 -0.1003 -0.1841
12935W        W29009  12.696  15.360  13.370 -0.1169  0.0602  0.0078
12936W        W29010   8.790   3.496   1.810 -0.1657  0.3976 -0.0359
12937W        W29011   0.022   3.482  11.660  0.3074 -0.1460  0.2570
12938W        W29012   7.209   1.067   4.766 -0.0045 -0.1365  0.1156
12939W        W29013   3.100  10.918   2.468 -0.0957 -0.1910 -0.1843
12940W        W29014  17.659  14.389   1.397 -0.0154  0.5355 -0.2162
12941W        W29015  14.646   5.992  15.853 -0.3184 -0.1550  0.1571
12942W        W29016  13.705  10.787  14.086  0.0248  0.1472  0.2179
12943W        W29017   2.822   4.017   1.647 -0.1042  0.3626 -0.0309
12944W        W29018   6.405   9.530  14.435  0.1641 -0.3821 -0.0884
12945W        W29019  13.528  13.243  11.829 -0.1083 -0.2923  0.1870
12946W        W29020   6.575  14.570  11.826  0.0516 -0.2453  0.1214
12947W        W29021   4.654  16.958   0.832 -0.3077  0.1271 -0.2229
12948W        W29022   1.771  12.799  15.594 -0.3127 -0.1831  0.0424
12949W        W29023  11.340   4.287   4.058 -0.0080 -0.0691  0.1941
12950W        W29024  11.196   9.972   2.347  0.1576 -0.1146 -0.0419
12951W        W29025   3.563  17.817  10.896  0.4609 -0.0569  0.0787
12952W        W29026  12.398   3.569   0.912 -0.0136 -0.1987  0.2157
12953W        W29027   7.431  14.682   3.432 -0.0775  0.0334 -0.1913
12954W        W29028  15.694  11.862   3.288  0.0847 -0.3635  0.0491
12955W        W29029   2.046   3.713   1.285  0.0544  0.1705 -0.0360
12956W        W29030  13.529   3.796  14.219  0.0529  0.1443 -0.1936
12957W        W29031  12.982  11.719  13.586  0.0028 -0.0634  0.3285
12958W        W29032   7.575   5.773  15.743 -0.3560 -0.1721  0.0738
12959W        W29033   6.297   9.959   1.424 -0.4449  0.1703  0.1704
12960W        W29034  13.571   1.111  11.713 -0.1226  0.1086  0.1374
12961W        W29035  10.259  17.930  12.937  0.1673  0.0589 -0.0000
12962W        W29036  13.131  13.688   4.485  0.0877  0.1668 -0.1530
12963W        W29037  14.699   9.447  14.060 -0.0252 -0.0049  0.1256
12964W        W29038   7.477   4.559  13.823 -0.1834  0.0890  0.1069
12965W        W29039  13.490   0.060   3.749 -0.4320 -0.1871 -0.1777
12966W        W29040  12.775   1.065   4.555 -0.0665  0.0953  0.3105
12967W        W29041   9.562  10.485   5.887  0.2596  0.2054 -0.0763
12968W        W29042  16.547   0.762   1.015 -0.1449  0.1132 -0.1445
12969W        W29043   8.132  16.312   2.293  0.0103 -0.0272 -0.0853
12970W        W29044  10.211  10.360  11.855 -0.2950 -0.0483  0.0681
12971W        W29045  12.251   1.745   1.453 -0.2703 -0.1192 -0.0041
12972W        W29046   7.979  12.688  12.662  0.1791 -0.1876  0.1983
12973W        W29047   9.163  11.907  12.479 -0.3292  0.1123  0.0812
12974W        W29048  17.431  11.978  16.097  0.0730  0.1501  0.0047
12975W        W29049  18.129  11.199   5.002 -0.2285  0.5991 -0.2627
12976W        W29050   4.416  12.840   0.172 -0.0655 -0.3184  0.5509
12977W        W29051   6.538  12.340   4.363 -0.0134  0.1223 -0.2870
12978W        W29052   6.077  13.711   4.458  0.0027  0.1011 -0.0417
12979W        W29053   3.726   1.428   4.908  0.0211 -0.0707  0.1044
12980W        W29054  15.224  14.619  16.170  0.1106 -0.2463  0.0233
12981W        W29055  13.336  11.951  11.642 -0.2677 -0.0269 -0.0178
12982W        W29056  14.962   6.495  15.826 -0.0487  0.0140 -0.1962
12983W        W29057  11.112  17.647   6.290  0.0869 -0.0210  0.1045
12984W        W29058  16.867   8.296   3.453  0.2022 -0.2074  0.3526
12985W        W29059   3.801  15.488   3.659  0.0441  0.1684 -0.2135
12986W        W29060  10.074   7.147  16.187 -0.0854  0.1417 -0.2342
12987W        W29061  10.445  13.058   3.368 -0.1233  0.3592 -0.1553
12988W        W29062  12.723   1.347   1.035 -0.0976 -0.0731 -0.2430
12989W        W29063   0.952  13.246   4.467 -0.4097  0.0752 -0.0661
12990W        W29064   3.219   9.579  14.320  0.1487  0.2629  0.1117
12991W        W29065  17.435  12.773   2.320 -0.1779 -0.3152  0.1001
12992W        W29066   4.414   4.577   3.862  0.2773 -0.5036  0.1396
12993W        W29067  10.906   3.521   5.023 -0.2287 -0.0604  0.1744
12994W        W29068   6.616  14.611  13.279  0.0244 -0.0170  0.1008
12995W        W29069   7.641   0.340  15.668  0.1741  0.2918  0.0488
12996W        W29070  14.324   1.043   1.693  0.1329 -0.1257 -0.1802
12997W        W29071   4.345  11.269  11.944 -0.0009  0.4817  0.4505
12998W        W29072  10.594   8.146   3.552 -0.0992 -0.1042 -0.0031
12999W        W29073  13.117   4.503  16.382  0.1426  0.0834 -0.0009
13000W        W29074   3.198  13.762   1.846 -0.0737 -0.2998  0.0428
13001W        W29075   8.921   9.242  14.157 -0.1160 -0.1523  0.0439
13002W        W29076   9.309  16.226   0.386 -0.0635  0.2368 -0.5139
13003W        W29077   8.966  17.009  15.384  0.1467 -0.0408  0.1637
13004W        W29078   8.049   5.196  15.671  0.1025 -0.0024  0.1563
13005W        W29079   4.982  16.218  11.202 -0.1828  0.1568  0.3012
13006W        W29080   6.641   8.411   2.768  0.1142  0.2976 -0.1297
13007W        W29081   7.679   3.264  15.949 -0.4377  0.1926  0.1785
13008W        W29082   6.245   1.560  15.878 -0.1247  0.2947  0.1296
13009W        W29083   6.695  14.380   0.294 -0.2609 -0.0606  0.1977
13010W        W29084  12.697  14.306   5.286 -0.0942  0.0502  0.0467
13011W        W29085   9.592  12.504   5.842  0.0782 -0.0430  0.0078
13012W        W29086  13.005  13.199  12.007 -0.3445  0.1187 -0.0454
13013W        W29087   1.179  11.915  16.417 -0.0144 -0.0116 -0.2190
13014W        W29088   3.844   4.738  16.433  0.1515 -0.0956  0.3374
13015W        W29089  10.904   7.832  13.879 -0.1226  0.4607 -0.0566
13016W        W29090   0.705   6.634  11.653 -0.1674 -0.3859  0.2981
13017W        W29091   3.342  14.666   0.954 -0.0466 -0.3126  0.3090
13018W        W29092   5.386   0.771  13.417  0.1356 -0.0175  0.1540
13019W        W29093   0.589   9.874  11.855  0.1543 -0.0559  0.2675
13020W        W29094  11.288   0.236  10.594 -0.0599 -0.0791 -0.0566
13021W        W29095   2.179   2.515  14.232 -0.0597 -0.0503  0.0340
13022W        W29096   2.055   0.176   0.073  0.0856  0.3024 -0.2246
13023W        W29097  13.074   5.367   4.046 -0.4485  0.0562  0.1982
13024W        W29098   5.695   1.009   1.435 -0.0802 -0.2067  0.0071
13025W        W29099   4.332  11.132   4.323 -0.2936 -0.0587  0.0943
13026W        W29100   1.540   3.846   4.476 -0.1386  0.0412 -0.1319
13027W        W29101  16.778   5.780   3.177  0.0701  0.0753  0.1035
13028W        W29102   0.875   4.463  12.311 -0.0765 -0.0426  0.0555
13029W        W29103  16.361   2.251   1.773 -0.5110  0.2143  0.0090
13030W        W29104   9.250  10.817   5.494  0.1029  0.0131  0.0872
13031W        W29105   2.236  13.944   3.800  0.1969 -0.0397 -0.1041
13032W        W29106  14.866   2.740  14.464 -0.0171  0.0149 -0.1255
13033W        W29107  17.735  17.370  10.608 -0.2952  0.0616 -0.0025
13034W        W29108  15.966   7.760  15.940  0.2270  0.1200  0.1139
13035W        W29109   0.743   9.528   0.338 -0.1016  0.0009 -0.2832
13036W        W29110   3.338   6.034   3.863  0.0542 -0.0053 -0.3262
13037W        W29111  10.374   0.067   4.323 -0.1545  0.0367  0.0534
13038W        W29112  10.826   1.244  14.754 -0.0894 -0.2383  0.2921
13039W        W29113  12.548  13.150   0.280 -0.0814  0.0237  0.0483
13040W        W29114   0.356   3.378  10.674 -0.0187 -0.1997  0.0846
13041W        W29115  13.853   8.268  12.313  0.0376  0.2560 -0.0779
13042W        W29116  15.346   5.949  12.364  0.0804 -0.0674  0.0405
13043W        W29117  14.091   3.859  11.531  0.0268 -0.3837  0.2263
13044W        W29118   5.125   5.232   2.403 -0.0442  0.0598 -0.3642
13045W        W29119  18.223  17.515   4.848 -0.3716  0.0545  0.1665
13046W        W29120   6.894  12.461   0.739 -0.1287  0.0107 -0.2201
13047W        W29121  11.152   7.362   1.387  0.0191 -0.1144 -0.0285
13048W        W29122  13.544   7.800   0.123  0.0430  0.0202  0.3831
13049W        W29123   9.654   9.128  11.650  0.0701  0.0726 -0.3427
13050W        W29124   4.284   9.175  14.885  0.0772  0.0278 -0.0244
13051W        W29125  18.075  12.913  15.932  0.4047  0.1377 -0.0033
13052W        W29126   8.305   8.357  13.925  0.1864  0.0648 -0.2482
13053W        W29127   3.047   4.352  12.982  0.2496  0.2039 -0.2983
13054W        W29128   4.746  11.347   5.105 -0.2740  0.5223  0.2773
13055W        W29129   6.695  13.259  12.922 -0.2828  0.0012 -0.2099
13056W        W29130   4.710   4.602  14.562 -0.2341  0.0789  0.0086
13057W        W29131   7.753   0.923   0.662  0.0684  0.5106 -0.0103
13058W        W29132   7.955   7.236  12.489  0.1914 -0.1426  0.2186
13059W        W29133   6.499  13.030  15.495  0.1129  0.0140  0.1857
13060W        W29134   2.593  12.129  11.329  0.2774  0.1485  0.0983
13061W        W29135   0.516  14.511  15.640 -0.0660  0.0977 -0.0555
13062W        W29136  16.857  11.390   2.757  0.3319 -0.0902  0.1125
13063W        W29137   9.352  15.417  14.451  0.2714 -0.1205 -0.1243
13064W        W29138   4.409   6.710  12.658  0.2612 -0.3894  0.3265
13065W        W29139   5.595   1.114  14.080 -0.0569 -0.2039  0.0681
13066W        W29140  11.626  11.973   0.266  0.0292 -0.0823  0.1215
13067W        W29141  14.676   4.155  13.996 -0.2544 -0.0793  0.0064
13068W        W29142  14.247  15.922   0.899  0.2516  0.0899 -0.0153
13069W        W29143  16.117  10.085  11.729 -0.0063 -0.0808 -0.1129
13070W        W29144   9.094  11.158   0.328 -0.2499  0.1883 -0.0676
13071W        W29145  12.837   4.077  16.300 -0.2580 -0.3151 -0.1452
13072W        W29146  10.394  13.223  14.145  0.0853  0.2078  0.1206
13073W        W29147  14.703   6.263  14.565  0.0554  0.1426  0.1429
13074W        W29148  10.678   5.093   1.262 -0.0281 -0.0246 -0.1244
13075W        W29149  10.539  15.831  16.377 -0.0141  0.1779 -0.1168
13076W        W29150   4.801   9.236   2.197 -0.0995  0.1055 -0.1540
13077W        W29151   6.151   1.045  13.511 -0.2154 -0.0751 -0.1485
13078W        W29152   8.525   2.629   1.118 -0.1277  0.1618  0.0637
13079W        W29153  13.108   0.303  15.846 -0.2589  0.1083  0.0522
13080W        W29154   7.522  10.389   0.889  0.0510 -0.1575 -0.0997
13081W        W29155   3.582   3.148   2.682  0.2976  0.0156 -0.1615
13082W        W29156   5.371  11.981  11.831  0.0056  0.1232 -0.2106
13083W        W29157   2.472  13.586   5.542  0.0683  0.0746  0.0233
13084W        W29158   4.058   9.612  12.483  0.0590  0.2831 -0.2083
13085W        W29159   5.082  14.339  15.043  0.5105 -0.1603 -0.0386
13086W        W29160   0.151   1.852   2.522 -0.1505 -0.2448  0.2266
13087W        W29161  13.130   1.946   4.532 -0.0801  0.1005  0.3589
13088W        W29162   1.911   8.664   0.523  0.5444  0.0123 -0.0971
13089W        W29163   5.354  12.004  14.910  0.3596 -0.1412 -0.0574
13090W        W29164   9.266  16.997  12.870 -0.0480 -0.0666  0.1458
13091W        W29165   4.204   8.417   2.702  0.1188  0.4890 -0.1507
13092W        W29166   5.104  15.665  12.803  0.1990 -0.1541 -0.2975
13093W        W29167   7.854  15.139  13.137  0.2433 -0.1442 -0.0669
13094W        W29168   4.036  16.089  12.606  0.0150 -0.1535  0.1254
13095W        W29169   5.138   0.073   2.997 -0.0566  0.0876 -0.3550
13096W        W29170   8.243  16.542   0.329 -0.3229  0.0573 -0.5087
13097W        W29171   8.488   3.838  13.429  0.0750  0.0623 -0.1766
13098W        W29172  17.313   3.027  11.501 -0.0839 -0.1616 -0.0776
13099W        W29173   4.323   3.883  16.353 -0.4748  0.2913 -0.2281
13100W        W29174  10.298   2.676  14.561  0.0409  0.1293  0.2795
13101W        W29175   3.392   9.618  13.855  0.1712 -0.0691  0.0986
13102W        W29176   1.886   6.475  10.915 -0.1905 -0.0778 -0.1305
13103W        W29177   8.797  17.531  11.974  0.1754 -0.1910  0.3328
13104W        W29178   6.961  14.845  14.904  0.0155  0.0479  0.0821
13105W        W29179  17.491  11.782  14.453  0.0650 -0.2286  0.2287
13106W        W29180   9.307  14.707   1.286  0.1707 -0.1579  0.1023
13107W        W29181  13.197   8.223  12.085  0.1446 -0.2000  0.0507
13108W        W29182   0.594   9.336   4.169 -0.0640 -0.2371  0.1493
13109W        W29183  16.058   4.733  16.308  0.0293 -0.2619 -0.1154
13110W        W29184   9.910  11.879   3.403  0.3943  0.2433  0.1757
13111W        W29185  17.052  18.066   3.665  0.0960  0.0268 -0.1839
13112W        W29186  14.993   0.686   4.618  0.1014 -0.0376 -0.1557
13113W        W29187   0.013   3.071  11.410 -0.0359  0.1330  0.1351
13114W        W29188  15.427   3.825  11.364  0.0973  0.1729 -0.0972
13115W        W29189   5.119  10.185  12.407 -0.1412 -0.0148 -0.2255
13116W        W29190  12.628   3.728  11.604  0.1076 -0.1950 -0.3465
13117W        W29191  11.888   6.594  15.451  0.0469 -0.0403  0.0517
13118W        W29192   7.468  17.192   2.297 -0.0846 -0.0226  0.2728
13119W        W29193  13.278   0.493  12.122 -0.1158 -0.4418 -0.2102
13120W        W29194  11.913  10.010   5.536 -0.1368 -0.0171 -0.0352
13121W        W29195  16.602  10.310  12.331 -0.1056  0.3678  0.2077
13122W        W29196   6.024  13.455   3.994  0.0407 -0.3150 -0.2196
13123W        W29197   5.314  16.076   1.543  0.0566 -0.3299 -0.1832
13124W        W29198   1.492   4.533  12.530 -0.4344 -0.0924 -0.3041
13125W        W29199  12.058  15.422   0.972  0.0619  0.0250  0.1764
13126W        W29200   9.026   7.473  15.234  0.1248  0.2309 -0.0837
13127W        W29201   1.620   9.451   4.836 -0.2473  0.2201 -0.1438
13128W        W29202   9.146  11.102  16.331 -0.1031 -0.1190  0.2310
13129W        W29203  13.556  12.466   2.617 -0.0236  0.1490 -0.1679
13130W        W29204   1.253  12.779   4.701  0.1941 -0.2953  0.0022
13131W        W29205  13.805  11.195  11.766 -0.0620  0.0528  0.1454
13132W        W29206  15.418   4.889   0.452  0.1683  0.1164  0.0709
13133W        W29207   7.512  18.035  14.955 -0.1567 -0.0933 -0.3685
13134W        W29208  16.855  14.415   2.035  0.1233  0.2508  0.0572
13135W        W29209   2.586  12.836   3.524  0.1603 -0.1775  0.0737
13136W        W29210  15.748   5.459   4.607  0.1153  0.1974  0.0433
13137W        W29211  15.178   1.231  11.619  0.1821 -0.0898 -0.0803
13138W        W29212   0.690  15.705   0.458  0.0182 -0.0780 -0.3456
13139W        W29213   9.779   9.350   0.554  0.0028  0.1196 -0.0911
13140W        W29214   5.201  13.513   1.481  0.1713 -0.1668 -0.0341
13141W        W29215  14.468  11.429  12.463 -0.0439 -0.0808 -0.0519
13142W        W29216  12.189  13.025   4.353 -0.0219  0.1305  0.0380
13143W        W29217   5.804  12.883   2.469  0.2971  0.0463  0.2146
13144W        W29218   0.445  10.096   1.203 -0.1332 -0.2384  0.0206
13145W        W29219   1.937  17.605  15.927  0.0026  0.1760 -0.0224
13146W        W29220   1.541   8.721  13.772 -0.2376  0.0724 -0.2369
13147W        W29221  14.261   5.412   0.343 -0.2411 -0.0334 -0.1273
13148W        W29222  11.430  12.889  13.040 -0.1236  0.1965  0.2760
13149W        W29223   6.257  12.140   0.233 -0.0569  0.0041 -0.0391
13150W        W29224   4.241   9.702  13.149 -0.2576  0.2850  0.1128
13151W        W29225   1.355   8.803   5.439  0.4817  0.1161 -0.1108
13152W        W29226  15.162   9.932  12.063  0.1550 -0.0245  0.1486
13153W        W29227  14.292  12.247  14.989  0.0531  0.1349  0.0779
13154W        W29228   2.217   0.061  12.630 -0.2956  0.2502  0.0447
13155W        W29229   8.469  10.408  11.780 -0.1596 -0.0041 -0.0839
13156W        W29230  16.655   9.908   4.110  0.0566  0.1230  0.2603
13157W        W29231  13.620  15.502  15.584  0.0679 -0.0053  0.1545
13158W        W29232  14.629   1.492  16.010 -0.0415 -0.0575 -0.2108
13159W        W29233  16.573  16.676   2.191 -0.2676  0.3892 -0.1503
13160W        W29234   6.868   8.509  14.520 -0.1947 -0.2808  0.1703
13161W        W29235  10.731   4.008  15.510 -0.3444 -0.2258 -0.2806
13162W        W29236   9.546  12.464  13.320 -0.2324  0.0289 -0.0764
13163W        W29237   3.048   5.103   0.519  0.3176 -0.1247 -0.0934
13164W        W29238  15.559   4.653   2.734 -0.1231  0.5098 -0.0667
13165W        W29239   2.533   5.663   0.756 -0.1854  0.1215  0.3181
13166W        W29240  14.469   3.804   5.723  0.3101 -0.2775 -0.1104
13167W        W29241  10.900   4.894  11.318  0.0385 -0.1620 -0.0023
13168W        W29242   6.639  15.376   3.780 -0.0511 -0.2652  0.1231
13169W        W29243  14.974  11.667   0.603  0.2652 -0.1104 -0.3497
13170W        W29244   4.359   5.081   3.185  0.0064  0.0610 -0.3448
13171W        W29245   8.636  15.527  14.223  0.1973  0.0774 -0.0844
13172W        W29246  13.595   8.443   5.020 -0.1248 -0.0339 -0.1153
13173W        W29247   3.010  16.407   5.601 -0.2462 -0.2239 -0.2422
13174W        W29248  16.608   2.909   5.628 -0.3343  0.0032 -0.1804
13175W        W29249   1.455   0.993  12.349 -0.0018  0.2619 -0.1727
13176W        W29250   8.063   2.431   3.027  0.0419 -0.0030  0.5634
13177W        W29251   7.407  16.614  16.020 -0.2327  0.3884  0.3982
13178W        W29252   4.699  12.405   0.404 -0.0626  0.2097 -0.1712
13179W        W29253  12.575  12.359   3.051 -0.1889 -0.0647  0.4945
13180W        W29254   7.946   3.264   1.990 -0.1350  0.1507  0.2965
13181W        W29255  11.975   0.066  16.181 -0.0036  0.1729 -0.3593
13182W        W29256   9.937   5.775   5.426 -0.0701  0.0779 -0.1265
13183W        W29257   2.420   9.522   3.894 -0.0586 -0.2981 -0.0881
13184W        W29258   6.100  13.700   2.927  0.0090 -0.0554  0.0809
13185W        W29259  14.709   6.860   0.258  0.0859  0.0440  0.3159
13186W        W29260   7.341  15.466   1.098 -0.1036 -0.3509 -0.0444
13187W        W29261   2.732   0.560  16.278  0.1082  0.1290 -0.2407
13188W        W29262  18.001   2.660  13.567 -0.0962 -0.2547  0.0569
13189W        W29263   6.328   2.713   3.365  0.2008 -0.1720 -0.0481
13190W        W29264   3.423  11.634  13.482 -0.0271  0.1217  0.1149
13191W        W29265   7.953   2.705   4.911  0.0398 -0.1066  0.3741
13192W        W29266  16.265  11.832   1.750  0.4117  0.1059  0.0196
13193W        W29267   8.691   7.862   4.554  0.1262 -0.2393  0.0404
13194W        W29268   0.869  13.946  13.898 -0.0495 -0.2006  0.2698
13195W        W29269   6.400  13.383  15.918  0.2701  0.1728 -0.0588
13196W        W29270  12.102  14.506   4.806 -0.2369 -0.1584  0.2094
13197W        W29271  14.242   2.555  13.874  0.0610 -0.1184 -0.0357
13198W        W29272  17.033  17.266   1.519 -0.1540  0.1055  0.0007
13199W        W29273   5.391  16.619  15.785  0.1830 -0.0491  0.1304
13200W        W29274   6.205   8.718   2.535  0.2031  0.0173 -0.1160
13201W        W29275   7.897  15.091  14.665 -0.1454 -0.1542 -0.0261
13202W        W29276  10.221   1.943   4.983  0.2461  0.1178  0.1392
13203W        W29277   8.142   7.199   0.829 -0.1143 -0.0564  0.3417
13204W        W29278  13.893  15.486   5.265  0.0378 -0.0309 -0.0121
13205W        W29279  17.422   3.533  11.212 -0.0379 -0.0267 -0.0255
13206W        W29280  15.129   0.707   3.416  0.2448 -0.0462 -0.1114
13207W        W29281  18.055  11.162   3.143 -0.0145 -0.0232 -0.1878
13208W        W29282   6.030   9.484  13.496 -0.1346  0.0533  0.1765
13209W        W29283   7.452   2.409  13.478 -0.1058 -0.0599 -0.4525
13210W        W29284   8.511   5.577   5.133  0.0084 -0.0407  0.1819
13211W        W29285  13.535   8.699  15.496 -0.1958 -0.1900 -0.3036
13212W        W29286  12.929   9.227  11.949 -0.1004  0.1400 -0.1542
13213W        W29287  11.800   1.338  14.012  0.0289  0.1228 -0.3709
13214W        W29288  17.176  12.272   0.095  0.1099  0.0859 -0.0394
13215W        W29289  16.842   8.444   0.028 -0.1317  0.1867 -0.2040
13216W        W29290   8.483  11.194   1.294  0.2484 -0.2037 -0.0600
13217W        W29291  16.284   6.054  11.337  0.3528 -0.0388  0.2018
13218W        W29292   0.005   2.562  15.912  0.1141 -0.1320  0.0469
13219W        W29293  11.189   7.891  12.669 -0.0114  0.0592 -0.0131
13220W        W29294  10.061  16.599   1.320 -0.0687  0.3904 -0.0737
13221W        W29295  10.696   9.837   1.092  0.0966  0.1100 -0.1077
13222W        W29296   9.058   9.218   2.088  0.1618 -0.0331  0.0845
13223W        W29297  13.814  11.484  15.766  0.2201  0.1720 -0.0095
13224W        W29298   8.951   1.555   5.985 -0.1310 -0.0601 -0.0504
13225W        W29299  17.214  11.126   3.002  0.0018  0.2623  0.0144
13226W        W29300  17.208   0.912  13.070 -0.0142 -0.2461 -0.1406
13227W        W29301  13.410  15.346   2.470 -0.0146  0.3896  0.2405
13228W        W29302   4.064   9.433   1.191 -0.1880  0.1071  0.1719
13229W        W29303   5.209   7.729  15.664 -0.0134 -0.0287 -0.1846
13230W        W29304  10.135   0.726   5.030 -0.2616  0.0901  0.0718
13231W        W29305  13.976  15.036  12.749  0.3521 -0.2688 -0.0422
13232W        W29306  10.246   0.547  14.898 -0.1319  0.0124 -0.0541
13233W        W29307   8.599  13.462  16.195  0.1190 -0.1066 -0.2360
13234W        W29308  10.916  17.386   4.175 -0.1009  0.1084  0.1989
13235W        W29309   2.050   1.476   0.633  0.2669 -0.1808  0.1466
13236W        W29310  12.221   5.282   0.261  0.1076 -0.2045 -0.5969
13237W        W29311  11.029   8.780  14.993  0.1595 -0.2814  0.1790
13238W        W29312   5.055  15.158  16.093  0.0384 -0.0785 -0.0508
13239W        W29313   3.500   5.106   5.053 -0.1165 -0.0399  0.1721
13240W        W29314   7.496   2.185  15.458  0.1337  0.1320 -0.1565
13241W        W29315  15.913  13.632  13.036  0.3468 -0.0075 -0.1284
13242W        W29316   0.425   3.039  11.119 -0.2153  0.1441  0.1198
13243W        W29317   6.844  15.824   3.674  0.1689  0.0132  0.1414
13244W        W29318   9.769   1.996   4.356  0.0293  0.2483  0.3387
13245W        W29319  12.320   2.286  13.581 -0.2889  0.1165 -0.1541
13246W        W29320   3.588  14.846  12.890 -0.1720  0.2371  0.0251
13247W        W29321  17.374  10.099   0.325  0.4588 -0.4629  0.2195
13248W        W29322  10.076   4.252   1.913 -0.3737 -0.2456 -0.1202
13249W        W29323  13.478   8.792   0.466 -0.3038 -0.1620 -0.3385
13250W        W29324  13.691   8.947   3.505  0.5022  0.3180 -0.1164
13251W        W29325   2.824  16.116   3.808 -0.2631  0.0350 -0.0370
13252W        W29326   9.000  12.657   4.412  0.5585 -0.2304 -0.4000
13253W        W29327   0.227   7.252  15.321 -0.3300 -0.0898 -0.3814
13254W        W29328  17.053  14.063  14.397  0.3207  0.1515 -0.0672
13255W        W29329   5.097  16.897   4.220  0.0741 -0.0349  0.1423
13256W        W29330  15.648   0.071   1.878  0.1303  0.0153 -0.0504
13257W        W29331   1.389   7.663  13.691  0.1501  0.1277  0.0199
13258W        W29332  18.013  16.486   1.178  0.0735 -0.1924 -0.1626
13259W        W29333  12.427  12.460   3.761 -0.1491 -0.3858  0.3200
13260W        W29334   2.558  14.148   4.117  0.0320 -0.2973 -0.0405
13261W        W29335   9.211   9.677  13.118  0.2667  0.1802  0.0638
13262W        W29336   8.153   0.400  16.145 -0.1879  0.1876 -0.1375
13263W        W29337  10.942  15.375   0.638  0.1992  0.3367 -0.1696
13264W        W29338  14.176  15.873   0.408  0.0053 -0.3591 -0.3067
13265W        W29339   8.315   4.899   6.188 -0.0582  0.0162  0.0048
13266W        W29340   4.032  10.469   4.136  0.1776  0.1212 -0.0493
13267W        W29341  14.787  16.933  15.710  0.0090 -0.1831  0.3078
13268W        W29342  16.416  17.043   4.576 -0.3835 -0.1965 -0.1797
13269W        W29343  12.850   7.833   4.586  0.0260  0.0312 -0.0938
13270W        W29344   6.820   8.486   0.368 -0.1983 -0.1874  0.3610
13271W        W29345  14.583  14.398  14.111  0.2238  0.0330  0.2793
13272W        W29346  13.462  12.945  13.266 -0.2168 -0.0989  0.2405
13273W        W29347   2.095   7.136  15.625 -0.0309 -0.0776 -0.0031
13274W        W29348   0.281   3.370   0.972  0.3575 -0.2179  0.1370
13275W        W29349  14.191   1.220  16.260 -0.2323  0.2805  0.1460
13276W        W29350  16.333  17.816   4.835  0.3534 -0.2337 -0.0458
13277W        W29351   3.312   7.670  13.336  0.2510  0.0741  0.3831
13278W        W29352   6.230   2.409   4.403 -0.1669  0.2904 -0.6365
13279W        W29353  17.700   0.649  13.906 -0.0880  0.2908 -0.1209
13280W        W29354   7.815   6.748  14.291 -0.3148 -0.0447 -0.2705
13281W        W29355  12.661   6.017  15.209 -0.3389  0.1254 -0.1659
13282W        W29356   3.546   9.514   3.215 -0.0256  0.0861 -0.0706
13283W        W29357   7.306  15.619   3.588 -0.1571  0.0624 -0.2346
13284W        W29358  13.287   2.775  13.993  0.0227  0.3450 -0.0426
13285W        W29359   8.245  17.923   4.983  0.0801 -0.2050  0.0579
13286W        W29360   9.172  12.144  14.643  0.4037  0.0259  0.0470
13287W        W29361  10.742  18.192  12.138 -0.1017  0.5248  0.2007
13288W        W29362   1.667  16.500   3.050  0.1109 -0.2524 -0.0124
13289W        W29363  17.351   9.780  15.029 -0.2017 -0.2266  0.0236
13290W        W29364   1.644   4.963  15.473  0.1435  0.1756 -0.4719
13291W        W29365   2.424   8.248   3.465 -0.1842  0.2462  0.0380
13292W        W29366  14.526   8.524  12.477 -0.0920 -0.2054  0.1127
13293W        W29367   1.995   5.273   3.790  0.2476 -0.0362  0.0758
13294W        W29368   3.918  12.938   1.528  0.1462 -0.1516  0.0547
13295W        W29369   5.348   9.628   5.262 -0.2378  0.1548 -0.1470
13296W        W29370  16.966  16.943  14.989  0.1956 -0.1046  0.0553
13297W        W29371   2.364  11.221   1.452 -0.0483 -0.2819  0.1037
13298W        W29372  10.306   6.871  12.999  0.0612  0.2429 -0.0651
13299W        W29373   5.279   8.686  13.971 -0.2687  0.2070  0.2622
13300W        W29374  17.350   2.362   0.361  0.3044 -0.0554  0.1446
13301W        W29375   8.632  10.922  11.814 -0.0552 -0.3000 -0.3463
13302W        W29376   4.829   0.504  13.065 -0.0876  0.1915 -0.2953
13303W        W29377   9.403   9.942   5.774  0.2048 -0.3492  0.0435
13304W        W29378  15.649  13.901  15.383 -0.2001 -0.0659 -0.0342
13305W        W29379  14.939  13.345   0.346  0.1345 -0.1774 -0.1121
13306W        W29380   9.075   8.604   0.267  0.2286  0.3368 -0.1143
13307W        W29381   1.320  15.987   4.276 -0.0040  0.0007 -0.3941
13308W        W29382  16.667   0.979  16.398  0.0090 -0.0461 -0.0732
13309W        W29383   2.742   6.773  13.273  0.3032  0.1680 -0.2286
13310W        W29384   8.982   1.037   0.635  0.0048  0.2511 -0.0535
13311W        W29385   5.455  17.747  11.312  0.0442  0.3168 -0.0857
13312W        W29386   9.069   1.011   4.459  0.1424 -0.4983  0.0080
13313W        W29387  11.517  17.665   3.221  0.3263  0.3254 -0.1782
13314W        W29388  18.212   6.295   5.325  0.1559  0.2859  0.1027
13315W        W29389   8.058  13.714  14.789 -0.2042 -0.3210  0.0253
13316W        W29390   0.777   2.594   0.711  0.0687 -0.1176 -0.2026
13317W        W29391   5.262  12.516   4.902 -0.0143  0.0701  0.0105
13318W        W29392  16.679  17.416   1.894 -0.4243 -0.1750 -0.0014
13319W        W29393  10.012  17.511   0.990  0.1346  0.0924  0.4455
13320W        W29394   5.823   0.822  13.231 -0.0475  0.0046  0.1612
13321W        W29395   4.449  10.551   0.180  0.1280 -0.0264 -0.3718
13322W        W29396  10.483   2.533  15.453 -0.0173 -0.1200 -0.0582
13323W        W29397   2.966  12.325  16.536  0.0958 -0.2957 -0.2246
13324W        W29398   2.209   2.073   4.245  0.0009  0.2996  0.5418
13325W        W29399  11.223  16.916   5.397  0.0290 -0.2033  0.0605
13326W        W29400   2.368  10.007   3.628  0.4630  0.2540  0.0267
13327W        W29401   0.977  17.457  11.167 -0.1689  0.2141  0.0443
13328W        W29402  14.265   8.080  16.237 -0.0785 -0.0647  0.0049
13329W        W29403   6.374  16.560   2.375 -0.0355  0.1793  0.1040
13330W        W29404   9.817  16.625   4.109  0.1933 -0.3316  0.2324
13331W        W29405   3.002   9.229   1.939 -0.1663 -0.1122 -0.0023
13332W        W29406   0.096  12.664   4.298 -0.1883  0.0592 -0.1106
13333W        W29407   1.037  16.228   3.601  0.2217 -0.3173 -0.0022
13334W        W29408   3.362  17.434   4.234 -0.0974 -0.0496  0.2242
13335W        W29409  10.879   9.589   5.801 -0.4527  0.1803 -0.1808
13336W        W29410   3.418   0.827  15.773 -0.1126  0.2979 -0.0357
13337W        W29411  13.462  14.999   6.208  0.1323 -0.1065 -0.1537
13338W        W29412   9.704   9.474   3.029 -0.0623  0.3893 -0.5048
13339W        W29413   9.468   0.803   4.625 -0.3768 -0.1700  0.1414
13340W        W29414  17.274   9.619   0.131  0.2792  0.0780 -0.1168
13341W        W29415  17.241  11.565   1.860  0.1931 -0.0315 -0.3741
13342W        W29416   7.866   6.574  13.128 -0.2118  0.1506  0.1120
13343W        W29417   3.355  13.485  15.686  0.1970  0.0778 -0.1286
13344W        W29418   1.716   2.854  14.070 -0.4265  0.0318 -0.0322
13345W        W29419   1.816  13.867   3.273  0.3280 -0.3555 -0.2004
13346W        W29420  14.298  17.772   6.081 -0.4206 -0.1385 -0.0964
13347W        W29421  12.520   7.955  11.294 -0.0656  0.2797 -0.1354
13348W        W29422  16.657   4.079  12.465  0.0967 -0.0324  0.2002
13349W        W29423   1.454   6.089  14.973  0.2019 -0.1119 -0.0532
13350W        W29424  17.104   5.708   0.871  0.1162 -0.0172 -0.2113
13351W        W29425   3.164  14.267   2.835  0.1807 -0.1000 -0.0375
13352W        W29426  11.838  17.811   4.938  0.0023  0.0225  0.1334
13353W        W29427  11.677   7.089  15.634 -0.1091 -0.1142  0.0990
13354W        W29428   1.987  10.011  14.061  0.0734 -0.1052  0.1744
13355W        W29429   0.642   6.783  16.044  0.1534  0.1346  0.0910
13356W        W29430   4.702   3.031   1.788  0.0645 -0.0923 -0.0925
13357W        W29431  17.544  15.747   1.448 -0.0212 -0.0414  0.6753
13358W        W29432   4.177  12.317  13.597 -0.0490  0.0414  0.2276
13359W        W29433  17.548  16.614   1.061  0.1106  0.0534 -0.0659
13360W        W29434  17.202   5.881   3.367 -0.1067 -0.0873 -0.1821
13361W        W29435   4.526  14.172   2.187 -0.1741  0.1941 -0.5172
13362W        W29436  14.746  10.720   3.522  0.0348  0.1251 -0.1241
13363W        W29437  12.760  13.666   0.178  0.1357  0.0610 -0.0725
13364W        W29438   3.885  18.217   3.490  0.3099 -0.2291 -0.0360
13365W        W29439  15.603   1.260   4.413  0.2191  0.3104 -0.5358
13366W        W29440   9.106   6.436  11.290 -0.0797  0.0231 -0.0198
13367W        W29441   1.302   5.294  12.322  0.0240 -0.0749 -0.1014
13368W        W29442  12.531  13.805   5.126 -0.1982 -0.0015  0.1414
13369W        W29443   2.187  14.929  16.071 -0.3451  0.1075 -0.1952
13370W        W29444  13.883   3.072  16.451 -0.1642  0.1059  0.0053
13371W        W29445  14.128   8.725  12.210 -0.1736 -0.1403  0.2274
13372W        W29446   2.361  11.336   5.022  0.0172 -0.1431  0.0693
13373W        W29447  14.483  12.536   4.861 -0.1045  0.1494  0.2810
13374W        W29448   3.771   2.458  14.007 -0.2788 -0.0751  0.1283
13375W        W29449  17.791  12.371  14.154 -0.1749  0.0100  0.2108
13376W        W29450   8.975   8.375  12.718 -0.4807  0.0780 -0.1581
13377W        W29451   5.323  14.047   1.739  0.1932 -0.0570 -0.3738
13378W        W29452   3.716   9.782   0.632  0.0244 -0.0029  0.1447
13379W        W29453  11.002   0.454  13.133  0.0210 -0.1825 -0.2344
13380W        W29454  16.108   2.735  13.403  0.2491  0.0318  0.0185
13381W        W29455   1.580  16.723  14.129  0.1207 -0.2947 -0.6564
13382W        W29456   7.485  11.534  14.597  0.1091 -0.0177 -0.2085
13383W        W29457  12.085  18.227  13.110 -0.1140 -0.0706  0.2809
13384W        W29458  16.580   7.865  11.807 -0.2244  0.1585  0.2956
13385W        W29459  12.020   5.607  16.397 -0.1359  0.0227 -0.3966
13386W        W29460  11.007  13.630   5.105 -0.2303 -0.2369 -0.3608
13387W        W29461   8.846   5.728  11.730 -0.1156 -0.0307 -0.2448
13388W        W29462  15.001   7.784   1.220  0.0867 -0.2597 -0.3312
13389W        W29463   0.750   5.318  13.040  0.1305  0.3445 -0.1149
13390W        W29464   3.786   6.730  14.660 -0.3816 -0.0903  0.2599
13391W        W29465   4.708  13.295   2.446 -0.3902  0.0275  0.1032
13392W        W29466   6.074   0.971   4.587  0.1531 -0.0444  0.0642
13393W        W29467  16.416  12.441   1.876 -0.1599 -0.1376  0.2162
13394W        W29468   5.084   8.963   4.544 -0.0134 -0.1155  0.2869
13395W        W29469  12.878   7.150  11.826  0.2008  0.1365  0.4070
13396W        W29470  16.361   6.007  14.230  0.0538  0.2407  0.0580
13397W        W29471  10.413  16.683   6.539 -0.2194 -0.3146  0.1291
13398W        W29472  15.214   8.525   0.681  0.3924  0.3527  0.1206
13399W        W29473   1.018   8.622  11.197  0.0346 -0.1645  0.0075
13400W        W29474  10.611   0.510   3.173  0.0673  0.1040  0.0095
13401W        W29475  13.176  15.967   5.022 -0.1874 -0.2721 -0.0483
13402W        W29476   5.060   6.266  12.085 -0.1059 -0.0127 -0.0394
13403W        W29477  14.272   6.930  11.454 -0.2286 -0.0051 -0.1678
13404W        W29478  11.613   1.874   5.319 -0.0672  0.1833  0.1999
13405W        W29479   4.545   6.087   2.948 -0.0737  0.0683  0.0640
13406W        W29480   7.576   0.070   0.806 -0.2789 -0.1233 -0.0292
13407W        W29481   5.372  13.055   4.717 -0.0159  0.0094 -0.0609
13408W        W29482  16.202  10.752   0.918 -0.2978 -0.2239 -0.0325
13409W        W29483  17.349   8.185   0.836  0.0546 -0.0032  0.0571
13410W        W29484  10.691   7.562   2.262 -0.2229 -0.0561  0.2590
13411W        W29485  17.490   7.336   2.570  0.3578  0.3145 -0.0343
13412W        W29486  16.012   3.361  14.163 -0.2249  0.1700 -0.0097
13413W        W29487  12.357   0.612  14.012  0.4227  0.1497 -0.1283
13414W        W29488   5.651  13.249   1.496 -0.0683  0.1289 -0.2399
13415W        W29489   8.947  10.559  14.444 -0.1892 -0.2141 -0.1874
13416W        W29490   5.186   3.033  14.942 -0.2548 -0.0186 -0.0408
13417W        W29491   4.622  10.569   4.017 -0.2923 -0.0158 -0.0996
13418W        W29492   2.872   8.564  13.671 -0.2930 -0.2644  0.1878
13419W        W29493  14.261  10.657  14.584 -0.1697 -0.2482  0.0089
13420W        W29494   9.574   9.647   1.605  0.0030 -0.1345  0.0882
13421W        W29495  12.324  13.427  14.519 -0.1619 -0.0446 -0.2329
13422W        W29496   0.324   2.892   0.972 -0.1280  0.0204 -0.0243
13423W        W29497   9.760  12.488  12.317  0.2366  0.0649 -0.2174
13424W        W29498   2.234  17.430  15.496  0.0818 -0.0602  0.2063
13425W        W29499  13.482  17.300   4.144 -0.0340 -0.0103 -0.1271
13426W        W29500   0.765  15.678   0.933  0.1601  0.0830  0.4733
13427W        W29501   2.314   1.223   3.212  0.0718 -0.1517  0.1956
13428W        W29502  16.136  16.657  15.172 -0.2068  0.0939 -0.2445
13429W        W29503  17.709  16.269  13.135 -0.1200 -0.2587  0.0130
13430W        W29504  17.631  14.892   4.852  0.2927 -0.2359 -0.0845
13431W        W29505  16.549  17.376   3.205  0.0662  0.1074 -0.1950
13432W        W29506   6.062  15.482   3.680  0.3327 -0.2215 -0.0824
13433W        W29507  17.330   8.185   3.744 -0.4533  0.0420  0.1550
13434W        W29508  18.020  17.831  14.256  0.1455 -0.4053  0.0526
13435W        W29509  13.784  12.216   6.382 -0.0334 -0.3259 -0.1450
13436W        W29510  16.222   5.717   2.582  0.2725 -0.2358 -0.1537
13437W        W29511  10.964  14.589   2.553 -0.3169 -0.1496  0.1263
13438W        W29512  12.187   7.668   0.724  0.0647  0.2355  0.2745
13439W        W29513  16.491  11.773   2.926  0.0055 -0.1557 -0.0422
13440W        W29514   4.294   1.166   1.191 -0.1494 -0.0139 -0.0101
13441W        W29515  10.772  14.827   2.919  0.2581 -0.0930 -0.6249
13442W        W29516  12.669   8.921  13.292  0.1532 -0.2859  0.2109
13443W        W29517  10.877  15.752  13.532  0.0211  0.1528  0.0885
13444W        W29518   8.745  11.112   2.396  0.2536  0.2016 -0.2088
13445W        W29519  16.418   8.908   2.892  0.0580 -0.0994 -0.0494
13446W        W29520  11.484   4.128  12.122  0.1318  0.1659 -0.2924
13447W        W29521  14.155  13.335   5.142  0.0894 -0.0741 -0.1610
13448W        W29522   3.390   1.828   0.451  0.1801 -0.0579  0.0069
13449W        W29523   8.237  14.653   5.027  0.0703 -0.0154  0.1122
13450W        W29524   2.462   9.700   4.362 -0.2788  0.0917 -0.2118
13451W        W29525  11.331  15.016   0.613 -0.0781 -0.0341 -0.0577
13452W        W29526   6.973  16.029   1.636  0.0830  0.1645  0.0119
13453W        W29527   3.914   5.935   1.754 -0.1605 -0.1973  0.2499
13454W        W29528  11.933   2.121   5.520 -0.3442 -0.0111 -0.1654
13455W        W29529   8.417  11.411   2.118  0.1142 -0.0427 -0.0559
13456W        W29530  10.234  15.267   1.431  0.1072  0.1215 -0.2044
13457W        W29531   2.897  10.198   5.552 -0.0050  0.1393 -0.1213
13458W        W29532  14.606   9.200   5.213  0.0165 -0.1629  0.0415
13459W        W29533  14.570   0.249  16.416 -0.2858  0.1398  0.2421
13460W        W29534  15.054   9.942   6.086  0.2762 -0.0296  0.2350
13461W        W29535   5.831  14.449   1.105 -0.1170 -0.0086 -0.0712
13462W        W29536   8.461   3.381   5.860 -0.2422 -0.0125  0.1449
13463W        W29537  15.828   3.324   0.431 -0.0837 -0.1542  0.1078
13464W        W29538  12.388  16.594   0.726  0.0792  0.1078 -0.0140
13465W        W29539  10.139  16.687   3.213  0.1491  0.1022 -0.2274
13466W        W29540  13.565   9.322   4.769 -0.0443  0.0384 -0.0111
13467W        W29541   8.179  17.940  14.535  0.0746 -0.3282 -0.2868
13468W        W29542  17.595   4.740  13.001  0.1204  0.0279 -0.0507
13469W        W29543   7.396   0.526   0.899  0.1254 -0.2196 -0.0315
13470W        W29544   0.790  14.156   4.241 -0.1339 -0.0836 -0.0096
13471W        W29545   4.904   9.334   4.244 -0.0412 -0.1158 -0.0585
13472W        W29546   4.210  10.590  14.675 -0.3068 -0.1038 -0.0708
13473W        W29547  13.632  17.832   2.285  0.3856  0.2104 -0.0033
13474W        W29548  14.244  15.015   4.832  0.0435 -0.2616 -0.0328
13475W        W29549  16.593  14.332  12.246  0.1738 -0.0153 -0.0447
13476W        W29550  18.033  13.246  11.159  0.0904  0.1431  0.3352
13477W        W29551   4.609  15.968  12.769 -0.2254  0.0582 -0.2945
13478W        W29552   5.584  14.816   0.773  0.0795 -0.1048  0.2029
13479W        W29553   0.035   9.517  15.125  0.0064 -0.0269 -0.2137
13480W        W29554   8.532   7.247   5.244  0.2254 -0.0624  0.0451
13481W        W29555   4.236   5.507  14.642  0.0332  0.2978 -0.0179
13482W        W29556   8.322   0.612   1.241 -0.0344 -0.0082  0.0368
13483W        W29557  11.188  15.677   5.083  0.2450  0.2944  0.2950
13484W        W29558   6.743   1.031   0.786 -0.0865 -0.0756 -0.2283
13485W        W29559   1.617   6.406  11.380  0.0119 -0.0694  0.0024
13486W        W29560   9.910  13.614   2.028  0.0138 -0.1175  0.1914
13487W        W29561   6.914   8.989  15.682  0.0069  0.0567 -0.1722
13488W        W29562   5.436  10.713   3.059  0.0848  0.0560  0.1168
13489W        W29563  12.004   9.256   0.119  0.2522 -0.2374  0.0055
13490W        W29564  13.339  15.992  14.268 -0.0860 -0.3717 -0.2354
13491W        W29565   5.668  11.301   4.916 -0.0138  0.3101 -0.0359
13492W        W29566   7.052  17.019  11.810 -0.2445  0.2354 -0.2966
13493W        W29567   0.312   0.279   1.955  0.2354  0.1927 -0.0021
13494W        W29568  13.223   0.136  12.583 -0.1850  0.0225 -0.1236
13495W        W29569  17.281  11.199  15.141  0.0489  0.0041  0.0890
13496W        W29570  13.852   9.710   4.794 -0.1419  0.0685 -0.1487
13497W        W29571  15.880   0.569   2.626  0.1229  0.1109  0.1758
13498W        W29572   2.904  15.308  14.259 -0.2234 -0.2313 -0.1445
13499W        W29573  18.227   0.331   0.795  0.0386 -0.2718  0.3291
13500W        W29574   1.161  15.296   2.675 -0.0610 -0.2501  0.1576
13501W        W29575   0.115   7.326   4.923 -0.2462  0.3207 -0.0689
13502W        W29576  16.579  12.197   0.618  0.1757  0.0684  0.1135
13503W        W29577   2.429  17.021  10.602 -0.1920  0.0504 -0.2977
13504W        W29578   3.979  10.928  14.006 -0.2171 -0.1470  0.1974
13505W        W29579  11.965   8.407   2.868 -0.0754  0.1775 -0.0064
13506W        W29580  13.789  11.972   3.855 -0.1437  0.0973 -0.0966
13507W        W29581   6.690   2.862   0.876  0.1753  0.2894  0.2050
13508W        W29582   5.544   0.621  14.137  0.0537  0.3630  0.1607
13509W        W29583   8.839  11.461   2.945  0.1705 -0.1059 -0.2850
13510W        W29584   3.582  16.109  16.241  0.0556 -0.0585  0.3173
13511W        W29585   4.021   0.184   0.077 -0.0934  0.0203  0.4846
13512W        W29586  15.658   9.626   3.091 -0.0571  0.0796 -0.2067
13513W        W29587  13.039   4.905   5.881  0.1899 -0.3150 -0.1594
13514W        W29588   9.024  10.061   4.972 -0.0660  0.0371 -0.0051
13515W        W29589   8.497   5.911   2.528  0.0867 -0.1710 -0.0509
13516W        W29590   5.506   1.462   5.204  0.0731 -0.0182 -0.5418
13517W        W29591   5.425   2.538   3.673  0.1204  0.4422  0.2560
13518W        W29592  14.722   1.626  13.884 -0.0760 -0.0627 -0.3594
13519W        W29593   3.532   2.652   2.619  0.0481 -0.1693  0.0465
13520W        W29594  14.513  12.458  14.531  0.0037 -0.1116 -0.3704
13521W        W29595   5.099  10.613   1.758  0.2561  0.4837  0.1057
13522W        W29596   8.220  12.179  16.159  0.3493  0.0367 -0.0670
13523W        W29597   7.487   0.958   1.621 -0.0148  0.0527 -0.0823
13524W        W29598   9.827   0.797  15.111 -0.0528 -0.4384 -0.0031
13525W        W29599  13.378   7.537   4.483 -0.1043  0.1174 -0.0212
13526W        W29600   0.207  16.161  14.865 -0.0044  0.0786  0.0368
13527W        W29601   1.543  11.081  12.271 -0.0457 -0.1619  0.1802
13528W        W29602   2.957  11.099   0.269 -0.1845  0.2450  0.0083
13529W        W29603  15.167   6.639  12.899  0.0184  0.1179 -0.0005
13530W        W29604  16.929   1.825   2.324  0.1300  0.1683  0.0615
13531W        W29605   9.966   5.098   1.897 -0.1241  0.2536  0.0045
13532W        W29606  13.053  16.463   4.811 -0.1048 -0.2041 -0.1626
13533W        W29607  14.783  16.604  16.532  0.0900  0.0614 -0.1441
13534W        W29608  13.163  17.554  15.081 -0.1181  0.0753  0.2988
13535W        W29609   4.530  14.966   3.410 -0.0293  0.2279 -0.3195
13536W        W29610   1.230   1.513  12.024 -0.0864  0.0356  0.0953
13537W        W29611  13.379   8.022  15.745 -0.1519 -0.1452 -0.2663
13538W        W29612  14.084  17.754  14.316  0.1996  0.1357  0.1297
13539W        W29613  13.156   7.234  15.465  0.3641 -0.0880  0.0176
13540W        W29614   6.511  10.099   3.407 -0.0751  0.0012 -0.1101
13541W        W29615   8.182   5.474   3.806  0.0187 -0.3010  0.2439
13542W        W29616   1.124  16.272   4.597  0.0033 -0.4879  0.2775
13543W        W29617   4.288  17.359  11.817  0.0571 -0.2378 -0.2091
13544W        W29618   9.143   4.019  14.828  0.0557  0.0952 -0.0257
13545W        W29619  13.531   0.876   2.053  0.1395 -0.2980  0.0890
13546W        W29620   7.530   9.169  11.564 -0.2146 -0.1472  0.3086
13547W        W29621   6.764   7.414  16.166 -0.1742  0.0711  0.0436
13548W        W29622   5.154   7.486   1.991  0.0653  0.3375 -0.2209
13549W        W29623  11.129  16.811   0.192 -0.2282  0.0742 -0.1228
13550W        W29624  15.464  16.586  12.908 -0.3930 -0.1058 -0.1577
13551W        W29625   1.988  14.245  15.766 -0.2122  0.0182  0.0528
13552W        W29626  16.372  14.154   5.081 -0.1649 -0.0945  0.0599
13553W        W29627   7.435   1.350  13.938  0.3671  0.3075  0.0466
13554W        W29628  13.484   9.924   0.553 -0.2540 -0.3256  0.1573
13555W        W29629   5.394  15.141  13.373  0.0979 -0.3350  0.1558
13556W        W29630  15.605  12.322   1.469 -0.3061  0.1064  0.0722
13557W        W29631   0.581   5.276   3.067 -0.2446 -0.0325 -0.1475
13558W        W29632  10.479  13.227  14.607 -0.1130 -0.2178 -0.0947
13559W        W29633  15.507  12.547  14.344  0.0951 -0.0407  0.0584
13560W        W29634   2.279  13.702  10.150 -0.4032 -0.2193  0.0428
13561W        W29635   0.768   9.540  12.204  0.1947  0.6787  0.1654
13562W        W29636  13.166   6.489   2.976 -0.3993  0.1250 -0.0379
13563W        W29637  15.303   7.136   4.617 -0.0539  0.3414  0.0813
13564W        W29638  16.960   4.404   2.754  0.3893 -0.5040 -0.0888
13565W        W29639  14.404   4.056  13.120  0.1366 -0.3133 -0.3048
13566W        W29640  11.100   2.005   1.294 -0.1106  0.1697  0.2541
13567W        W29641   5.117   3.388   0.361  0.0077 -0.1656 -0.3462
13568W        W29642   8.719  16.054   3.850  0.0441  0.0581 -0.0221
13569W        W29643  13.289   1.112   3.447  0.1761  0.0156  0.1271
13570W        W29644   1.388   9.038   4.991 -0.0728  0.0061 -0.2313
13571W        W29645  16.656   8.575   5.132 -0.1576  0.1360 -0.2593
13572W        W29646  14.632   7.196  14.274 -0.0922  0.2293 -0.0276
13573W        W29647   7.513  13.190   3.410  0.2757  0.4597 -0.2907
13574W        W29648   2.725   3.262   2.320 -0.0134  0.0139  0.2591
13575W        W29649   8.077  14.353  15.670 -0.0671 -0.1291 -0.1795
13576W        W29650   7.764   5.037   5.575 -0.1396 -0.1021 -0.0854
13577W        W29651  16.984   6.057  14.895  0.4803 -0.0395 -0.0288
13578W        W29652   3.972   2.144   1.519 -0.0628 -0.1368 -0.1949
13579W        W29653   2.983  15.667   0.924  0.1126 -0.1350  0.0307
13580W        W29654  14.415   9.609   3.053 -0.0005 -0.0417  0.2201
13581W        W29655  14.235   7.655   1.486  0.0585 -0.0337 -0.0484
13582W        W29656  12.995   5.760   3.609  0.1948 -0.1117  0.2676
13583W        W29657   3.441  10.981   2.792  0.0419 -0.2350  0.1519
13584W        W29658  12.966  16.591   5.255 -0.5206 -0.2386  0.1527
13585W        W29659  12.124  15.995  14.125 -0.0760 -0.1048  0.0907
13586W        W29660   1.953  13.287   2.438  0.3169 -0.2714 -0.0564
13587W        W29661  10.159  11.260   2.920  0.0680 -0.2130  0.1963
13588W        W29662   8.734   9.178  15.591 -0.1210 -0.0125 -0.4091
13589W        W29663  16.082   0.284  11.577 -0.1149 -0.1002  0.4239
13590W        W29664  17.521  11.214   2.577 -0.1524  0.0147  0.1628
13591W        W29665   2.477   9.311  10.989  0.2571  0.0811 -0.0359
13592W        W29666   2.389   9.335   0.704 -0.0093 -0.0866 -0.1258
13593W        W29667   6.559   2.946   2.350  0.0879  0.2200  0.0667
13594W        W29668   9.954   2.800  13.607  0.1162  0.1547 -0.0467
13595W        W29669  17.417   4.185   4.811 -0.0910  0.2511  0.1513
13596W        W29670   9.255   8.407   2.189  0.3459  0.1608 -0.0894
13597W        W29671  11.919  13.976   6.009  0.0208 -0.0413  0.0924
13598W        W29672   3.018  12.627   5.782  0.0008  0.1900 -0.0027
13599W        W29673  13.298  15.691   5.393  0.1826  0.0459  0.4054
13600W        W29674  15.809  16.247  13.129  0.0987  0.0850  0.1885
13601W        W29675   7.066  12.059   4.260 -0.0179  0.2081  0.2614
13602W        W29676  12.299  16.187   4.069 -0.1765  0.2707 -0.1739
13603W        W29677   0.708  15.211   5.304  0.0978 -0.1130  0.1578
13604W        W29678  18.162   6.438  14.832 -0.0576  0.1756  0.0133
13605W        W29679   5.498   1.133   1.878 -0.1238  0.1479  0.0223
13606W        W29680  17.088  17.882   5.386  0.1666 -0.1423  0.1000
13607W        W29681  12.412   2.532  16.173 -0.1530  0.2382 -0.0155
13608W        W29682   2.290  15.740   2.769 -0.0232 -0.0833  0.1005
13609W        W29683  11.914  17.436   2.104 -0.1159  0.1958 -0.1253
13610W        W29684   8.723   4.515   5.332 -0.1272 -0.0065 -0.1508
13611W        W29685   9.329   5.685   5.471 -0.2514  0.0148 -0.3168
13612W        W29686   5.955   5.035   4.691 -0.1517 -0.2521  0.1726
13613W        W29687  17.924   1.565  14.256  0.1311 -0.0151 -0.1118
13614W        W29688  17.803   2.305  15.982 -0.3428 -0.0252 -0.0101
13615W        W29689   0.311  15.119  13.089  0.1567 -0.0202  0.0872
13616W        W29690   1.391  17.916  12.510  0.0409 -0.0148 -0.1450
13617W        W29691   0.894   9.495   2.647  0.0294 -0.2495  0.0681
13618W        W29692  12.875  12.687  15.921 -0.3298 -0.0505 -0.1661
13619W        W29693   4.198  15.910  15.574  0.0520 -0.0356  0.2809
13620W        W29694  16.205   0.152   2.217 -0.0839 -0.1164  0.0148
13621W        W29695   7.782   1.074   2.912 -0.2224 -0.0727 -0.4323
13622W        W29696   3.766  14.712  13.797 -0.3026  0.0991 -0.0144
13623W        W29697  15.398   2.157  11.872 -0.5477  0.0027 -0.0778
13624W        W29698  15.143   5.802   4.233  0.1564 -0.2822  0.3248
13625W        W29699   6.286   4.463   2.500  0.0356 -0.0713  0.1512
13626W        W29700  16.759   4.759   1.303  0.1239  0.0584  0.1554
13627W        W29701  16.781  13.296   2.028  0.0503 -0.2658 -0.0969
13628W        W29702   6.624  11.056  15.797  0.3706 -0.0778 -0.1502
13629W        W29703  15.599  13.064  15.086  0.3009  0.0795  0.1891
13630W        W29704   7.365   3.043   4.021 -0.0897 -0.1272  0.0718
13631W        W29705  12.766  16.255   1.609 -0.5230  0.3013  0.3003
13632W        W29706   1.526   0.306   3.758 -0.4169  0.2663 -0.4295
13633W        W29707   5.479  17.620   5.748 -0.0780 -0.0744  0.0448
13634W        W29708   6.672  14.136   6.118  0.2142 -0.0044 -0.0305
13635W        W29709  10.411  15.481  15.154  0.2808 -0.0812 -0.1036
13636W        W29710  10.737   1.665   1.621  0.1355 -0.0643  0.2481
13637W        W29711   5.317  15.899   2.522 -0.3681 -0.1284  0.0833
13638W        W29712   4.021   1.674   1.230 -0.1526  0.1018 -0.1614
13639W        W29713   3.707   0.580   4.367  0.1158  0.2142 -0.2139
13640W        W29714  10.852  14.991  14.235  0.1425 -0.0286 -0.2894
13641W        W29715   6.171  11.262  12.753 -0.1607 -0.0991 -0.2184
13642W        W29716   3.582   7.379  15.886 -0.1430 -0.0119  0.0683
13643W        W29717   7.243   9.362  15.024  0.1929  0.0858 -0.1430
13644W        W29718   6.284  12.340  12.804 -0.0304  0.1864  0.2241
13645W        W29719  14.171   3.212  15.396  0.1792 -0.1072 -0.1559
13646W        W29720   2.226   9.337   4.550 -0.6021 -0.0741 -0.1551
13647W        W29721   5.740  16.208   4.218  0.2811 -0.0235 -0.0612
13648W        W29722  13.177   1.527  16.321  0.2319 -0.1000 -0.2597
13649W        W29723  10.096   1.809   3.956 -0.1233  0.1017  0.2975
13650W        W29724  11.608   0.038   2.403 -0.1390 -0.1951  0.3842
13651W        W29725   2.598   6.784   3.902  0.0190 -0.1163 -0.3354
13652W        W29726   6.877   0.968  15.352  0.1416  0.1800 -0.0146
13653W        W29727  15.770   5.044  14.974  0.5025  0.3616 -0.1089
13654W        W29728  11.992  17.297   4.954  0.2106 -0.0256  0.0165
13655W        W29729  16.955   6.756  14.255 -0.2061  0.1646 -0.1147
13656W        W29730   6.344  15.536  12.610  0.0384 -0.0182 -0.2178
13657W        W29731   1.287  15.159   0.409  0.0795  0.0017 -0.3334
13658W        W29732  14.298   9.144  15.884 -0.0839  0.2542 -0.3701
13659W        W29733   0.827  15.942  10.652  0.1285  0.1551  0.0275
13660W        W29734  12.945   6.214   0.396 -0.0751  0.0162  0.5580
13661W        W29735   9.645   7.620  12.588  0.0498 -0.1901  0.0297
13662W        W29736   0.063   4.100  13.516 -0.3136 -0.1191 -0.0770
13663W        W29737   3.045   1.463   3.127  0.1546 -0.2922 -0.0728
13664W        W29738   2.493  12.654   0.307  0.0994 -0.2261 -0.1098
13665W        W29739  15.734  14.542   3.071  0.0228 -0.2122  0.1194
13666W        W29740   1.649   8.177  11.831  0.1149  0.0173 -0.1238
13667W        W29741  16.870   2.932  10.706  0.3757  0.0761 -0.0182
13668W        W29742   0.660  11.662   1.757  0.3542 -0.1864  0.1347
13669W        W29743   8.047   9.770  12.709  0.2756  0.0991  0.0309
13670W        W29744  12.216  14.047   0.972  0.0297  0.0428  0.1712
13671W        W29745  11.191  14.114   4.585  0.0913  0.1298 -0.0544
13672W        W29746   8.095   6.350   5.777  0.1522  0.2636  0.2423
13673W        W29747  11.142   6.166   3.788  0.0216  0.0324  0.2803
13674W        W29748  12.139   1.575  13.331  0.3999 -0.3880  0.0683
13675W        W29749  11.389  15.171   2.099  0.1579 -0.1494 -0.4603
13676W        W29750  15.593   3.121   0.049 -0.0031  0.0121  0.0850
13677W        W29751   1.091  12.193   1.074  0.0568 -0.1127 -0.0945
13678W        W29752   6.684  12.425  12.401 -0.2625  0.1050 -0.0533
13679W        W29753  15.127   8.581  12.600  0.1050  0.2882 -0.2823
13680W        W29754  15.546   0.207   0.154  0.1603 -0.2425 -0.0168
13681W        W29755   9.272   6.769   0.006 -0.0608  0.1888  0.0871
13682W        W29756   4.528   0.324  11.746  0.1775  0.2315 -0.0020
13683W        W29757   4.080   5.811   5.091 -0.1473 -0.0176  0.1528
13684W        W29758   4.825  14.981  15.655  0.1595 -0.4162 -0.1101
13685W        W29759   5.859   6.129   4.862 -0.0090  0.0433  0.0003
13686W        W29760   6.009   2.710  12.945  0.0224 -0.0154  0.2776
13687W        W29761  13.127   5.387  13.908 -0.0460  0.1845 -0.0153
13688W        W29762  11.864   9.973  15.022 -0.1224 -0.1339 -0.0196
13689W        W29763  16.398  11.682   0.718  0.2054 -0.0299 -0.0994
13690W        W29764   2.331  16.702  15.853 -0.0543 -0.0769  0.2197
13691W        W29765   1.993   1.905   1.055  0.0473  0.1708  0.2301
13692W        W29766  13.749   3.804  14.991 -0.2824 -0.2077  0.1021
13693W        W29767   3.386   2.396   2.104  0.1631  0.0198  0.0001
13694W        W29768   3.293   6.234   3.377  0.0788  0.1155  0.0980
13695W        W29769  15.707   3.265  13.005 -0.1298  0.1275  0.1451
13696W        W29770   7.657  17.245  13.904  0.2552  0.1634 -0.1233
13697W        W29771   2.378  14.699   1.841 -0.0700 -0.1614 -0.1808
13698W        W29772   1.153  10.827   3.999 -0.0680  0.0792  0.1982
13699W        W29773  15.368   9.148   1.364 -0.0108  0.1698  0.0096
13700W        W29774   3.447   6.685  15.944 -0.3368 -0.1358 -0.1442
13701W        W29775   2.146  14.173   5.105  0.2915 -0.0644  0.0985
13702W        W29776   6.426  14.544   2.608  0.2091  0.1702  0.0732
13703W        W29777  13.838   8.843   4.855 -0.1603 -0.3507  0.2571
13704W        W29778  14.478   0.784   4.611  0.1576 -0.3043  0.1931
13705W        W29779   5.678  12.783  13.919 -0.1413  0.1305 -0.1841
13706W        W29780   9.872   3.344   4.014 -0.0118 -0.4472  0.1353
13707W        W29781   1.829   3.259  11.319 -0.0571 -0.1213 -0.2704
13708W        W29782   4.813  12.907  15.725  0.1509 -0.1018 -0.1520
13709W        W29783   5.929  16.102   1.751 -0.1918 -0.1528 -0.0320
13710W        W29784   9.539  14.940  14.517 -0.0090  0.2627 -0.2585
13711W        W29785  15.831  18.219   4.021 -0.0751 -0.1842  0.3045
13712W        W29786  15.634  11.944  13.322  0.0544 -0.1918 -0.0936
13713W        W29787   3.630   9.165   4.006 -0.1053 -0.0215  0.0220
13714W        W29788   7.679   6.883  12.000  0.2249 -0.1364  0.1015
13715W        W29789   7.968   6.521   0.430  0.2929 -0.0723  0.0299
13716W        W29790   0.598   7.010  12.630  0.0389 -0.2498 -0.2680
13717W        W29791   5.981  13.927   1.947  0.0011 -0.2046  0.0183
13718W        W29792   8.482  12.002   1.488 -0.0156  0.0175 -0.2027
13719W        W29793   6.015   4.840  13.302  0.0440  0.1143  0.0182
13720W        W29794   3.984   9.715   6.007  0.4431  0.2360  0.2403
13721W        W29795   0.061  14.366   4.250  0.1139  0.3113 -0.1381
13722W        W29796  14.309  16.020  14.098 -0.0829  0.0368  0.2257
13723W        W29797  16.149  12.005  14.143 -0.0231 -0.2403 -0.0461
13724W        W29798  10.123  17.637   3.759 -0.0366  0.3052 -0.3529
13725W        W29799  15.242   0.950   5.338 -0.1058 -0.1600 -0.0711
13726W        W29800   9.167  13.159  13.108  0.0107 -0.3226  0.0065
13727W        W29801   5.684   1.730   3.151 -0.0754  0.0192 -0.0163
13728W        W29802  13.577  16.293   5.619  0.4366 -0.0170 -0.1670
13729W        W29803  16.034  17.247  16.351  0.1434  0.0187  0.0818
13730W        W29804   1.401   5.535   1.970 -0.0756  0.0335  0.1519
13731W        W29805   5.916   1.424   0.614 -0.1208 -0.1225 -0.1006
13732W        W29806   8.658   4.126   6.590 -0.0878 -0.0394 -0.2047
13733W        W29807   5.456   1.208  12.539 -0.3141 -0.2576 -0.0104
13734W        W29808   2.451  12.361   4.948 -0.3926 -0.0923 -0.0382
13735W        W29809   5.935  16.106  14.498 -0.0125  0.0504 -0.1177
13736W        W29810  12.212   5.942  11.883  0.0381  0.1667  0.4371
13737W        W29811   5.741  10.920  14.374  0.1948 -0.1781  0.1825
13738W        W29812   4.028   9.542   0.290  0.0342 -0.0835 -0.0289
13739W        W29813   0.128  16.510  14.484 -0.2735  0.3481 -0.1817
13740W        W29814  15.819   3.830  14.667  0.2524  0.0090 -0.6164
13741W        W29815   1.184  16.421   3.106 -0.3419  0.1395 -0.1665
13742W        W29816  17.535  11.413  11.309 -0.0361  0.0245 -0.0072
13743W        W29817   0.785   4.327  16.193 -0.1767 -0.0124 -0.1826
13744W        W29818  11.720  11.341  15.511  0.3528  0.0305 -0.0666
13745W        W29819   1.687   6.913   4.175 -0.2831 -0.0139  0.1171
13746W        W29820  12.277  18.159  15.066 -0.3833 -0.1973  0.1826
13747W        W29821  17.569   0.972  11.762  0.1888 -0.0260  0.3524
13748W        W29822  10.750   2.711   3.462  0.3138 -0.2242 -0.5310
13749W        W29823   4.170   3.931  14.303  0.0937 -0.1866 -0.2499
13750W        W29824  14.207  12.002   1.599 -0.0139 -0.1997  0.3082
13751W        W29825  14.396  13.417  15.928 -0.0935  0.1454  0.1437
13752W        W29826   0.824   7.600  13.637  0.0922 -0.0105 -0.2508
13753W        W29827   6.247   3.225  16.233  0.3216 -0.0001 -0.0021
13754W        W29828   6.358   1.338   0.218  0.0833  0.2883  0.3067
13755W        W29829  13.591   4.160  12.430  0.1694 -0.0433  0.0341
13756W        W29830  17.682  17.366   1.710 -0.0490 -0.2918  0.2462
13757W        W29831  11.111   4.893  11.757 -0.2726 -0.0413  0.0919
13758W        W29832   8.583  14.630  15.567 -0.2180 -0.3747 -0.2480
13759W        W29833  10.582  17.835   6.430  0.1951  0.1491  0.1508
13760W        W29834   3.063   2.390   2.503 -0.1576  0.4391  0.0710
13761W        W29835  17.901   7.655  14.613  0.0486 -0.1000  0.0388
13762W        W29836  11.952   9.097   4.655  0.0627 -0.1027  0.2461
13763W        W29837   2.139   1.335  15.889 -0.1293  0.1776  0.0443
13764W        W29838  14.114   7.290  15.162  0.2941 -0.1976  0.0379
13765W        W29839   6.905   7.999   0.396  0.0964  0.0680  0.0737
13766W        W29840  17.104   7.683   6.472  0.2647  0.1205 -0.0309
13767W        W29841  10.513  11.470  16.282 -0.1832  0.1692  0.3234
13768W        W29842  17.034  14.898  12.112 -0.1397  0.0767 -0.0931
13769W        W29843  14.054   5.131  13.824  0.4184 -0.1073  0.0915
13770W        W29844  15.905   9.844  14.429 -0.1279 -0.0663  0.4348
13771W        W29845  14.341   3.419   4.176  0.1418 -0.0741 -0.0325
13772W        W29846   4.566  16.950  10.967 -0.0182  0.0893  0.2316
13773W        W29847   5.092  11.601   0.137 -0.1351  0.0499 -0.0914
13774W        W29848   3.362  15.816  15.893 -0.2365  0.1681 -0.0297
13775W        W29849  13.022   2.485  14.385 -0.0544 -0.3036  0.3071
13776W        W29850   5.656  18.009   4.765  0.1267 -0.0245  0.2530
13777W        W29851  10.644  11.306   5.031 -0.3107  0.0448 -0.1479
13778W        W29852   0.522   4.732  13.826  0.0147 -0.1538 -0.0691
13779W        W29853   1.861   8.265   2.156  0.0154  0.2797 -0.0436
13780W        W29854  14.401  17.788  15.373 -0.0147 -0.0389  0.2197
13781W        W29855  16.344  13.269  12.733  0.1766  0.0720 -0.3171
13782W        W29856  10.831   9.939  12.810  0.3589 -0.0164 -0.0273
13783W        W29857   6.188   9.655   4.677 -0.1446 -0.2674 -0.0652
13784W        W29858  17.491   3.241   1.914 -0.1645 -0.1567 -0.1477
13785W        W29859   8.091  13.543  16.086 -0.1257  0.0192  0.1360
13786W        W29860   6.022  11.431   3.619 -0.2355 -0.2089 -0.1725
13787W        W29861   6.806   7.250   4.536 -0.1769 -0.3158  0.1093
13788W        W29862  17.751   9.250  11.446  0.1466 -0.2963  0.1416
13789W        W29863   3.046  14.974  12.886 -0.0567 -0.0086 -0.1944
13790W        W29864  11.138   5.853  14.043 -0.1260  0.1532 -0.3632
13791W        W29865   0.262  15.431  15.632  0.4029  0.1278  0.1397
13792W        W29866  12.972  14.418   5.714  0.1471 -0.1369  0.2264
13793W        W29867   9.657   8.068  15.374 -0.1352  0.1723 -0.1111
13794W        W29868   8.304   7.540   1.184 -0.0156 -0.1964 -0.0646
13795W        W29869  10.355   9.146  12.552  0.0899  0.2275 -0.0958
13796W        W29870   9.511   7.066  14.033 -0.0563  0.1149 -0.2104
13797W        W29871   6.719   1.988   5.186  0.2174 -0.2586  0.3267
13798W        W29872  16.318  16.501   0.447 -0.1810  0.0058  0.0610
13799W        W29873   3.716  12.616   4.315  0.0490  0.0876 -0.1623
13800W        W29874  11.195  12.690   2.366 -0.2973 -0.2404 -0.1953
13801W        W29875  11.072   7.390  13.392  0.0013  0.1490  0.1267
13802W        W29876   8.977  13.958   0.075 -0.1072 -0.0759  0.2206
13803W        W29877   5.782   4.534   4.120 -0.1356  0.0425  0.0524
13804W        W29878   1.713  16.857  10.880  0.1401 -0.2829 -0.0937
13805W        W29879  10.798   2.579  11.137  0.2356  0.0018 -0.1005
13806W        W29880   9.340   5.257   0.350  0.3981  0.2458 -0.2472
13807W        W29881   2.888   4.935   4.844 -0.1947  0.2788 -0.0521
13808W        W29882  11.102   3.062  14.042  0.0347 -0.2264  0.0407
13809W        W29883   2.883   6.361  13.715 -0.0444  0.0917 -0.3872
13810W        W29884   8.846   9.736   2.262 -0.0121 -0.0886  0.2248
13811W        W29885   4.130  17.334   1.449 -0.0620  0.3155  0.1318
13812W        W29886   2.038   3.355  16.123 -0.1511  0.0392 -0.0931
13813W        W29887   4.635   4.294  13.587  0.0215 -0.1752  0.0655
13814W        W29888   6.925   6.122  14.425 -0.2337 -0.1865 -0.1211
13815W        W29889   3.175   2.701   2.991 -0.0998  0.2559 -0.0586
13816W        W29890   5.446   6.551  12.450 -0.1798 -0.3287  0.0273
13817W        W29891   2.836  13.694   3.983  0.1506 -0.1494 -0.0049
13818W        W29892  17.268   4.948  13.406 -0.0231 -0.0935  0.2465
13819W        W29893  14.989  14.943  14.757 -0.0932  0.2654 -0.0155
13820W        W29894   1.576   1.672   0.822  0.4724  0.0880 -0.0146
13821W        W29895  14.912   4.886   4.683  0.0030 -0.1652 -0.0406
13822W        W29896   2.922   2.795  13.790  0.0175  0.0474  0.4789
13823W        W29897  16.199   4.634  14.857 -0.0421 -0.1635  0.0591
13824W        W29898  11.262  14.077   0.776 -0.2886  0.2538 -0.0115
13825W        W29899   4.400  14.753  16.549  0.3547  0.0213 -0.0533
13826W        W29900   8.862   4.790  13.792 -0.0922 -0.1047  0.0169
13827W        W29901  11.203   7.344  14.795 -0.3073 -0.0860  0.0485
13828W        W29902   3.970  14.137  14.052 -0.1566  0.1788  0.0740
13829W        W29903  12.380   3.103   6.169  0.3939  0.2385  0.3801
13830W        W29904   0.235  10.194   4.696 -0.0008  0.0047  0.1778
13831W        W29905   5.511  14.958   1.802  0.2686  0.1449  0.2179
13832W        W29906   2.726  16.907  14.608  0.0116  0.1267 -0.0211
13833W        W29907  17.889  11.764   2.638  0.0534  0.0794 -0.2114
13834W        W29908  11.249  16.367   5.544 -0.2934 -0.3990 -0.2503
13835W        W29909   8.740  15.608  12.614  0.1688 -0.0030  0.1150
13836W        W29910   4.366   6.258   1.795  0.2016 -0.0330  0.1404
13837W        W29911   0.435   4.655  11.543  0.1652  0.4627  0.0145
13838W        W29912   1.190   1.255   2.705 -0.1610 -0.1378  0.1273
13839W        W29913   9.018  15.414  13.917  0.1770  0.0689  0.1333
13840W        W29914   5.537  12.125   0.840  0.0119 -0.2621  0.1232
13841W        W29915   1.930   3.042   2.595  0.0478 -0.1581  0.1029
13842W        W29916   3.881   1.633  13.536 -0.2142  0.3024 -0.0238
13843W        W29917  14.950  14.453   4.693  0.1410  0.0392  0.0769
13844W        W29918   4.923   2.088  15.037  0.2017 -0.1756  0.2321
13845W        W29919   8.759  13.857  12.368  0.0334 -0.1562  0.1017
13846W        W29920  10.693   4.308   3.436  0.0967 -0.0523 -0.0214
13847W        W29921   1.559  14.220   4.246 -0.0901 -0.0647  0.0059
13848W        W29922   8.298   2.017   2.388 -0.1702 -0.1006  0.3008
13849W        W29923   0.711   0.741   5.137  0.1642  0.2506 -0.1061
13850W        W29924   3.545   4.735   3.478 -0.2093 -0.0215 -0.4059
13851W        W29925   2.212  14.713   6.199  0.0222 -0.1086  0.0670
13852W        W29926  13.442   0.424   2.756 -0.3155 -0.0635  0.0449
13853W        W29927   9.783   8.349   5.134 -0.2265  0.1313 -0.0367
13854W        W29928   0.350  14.822  14.636 -0.0951  0.0535 -0.0831
13855W        W29929   4.338   6.229   5.152 -0.2502  0.2848  0.2380
13856W        W29930  12.229   3.553   2.703  0.2511 -0.3129  0.0794
13857W        W29931  17.572  16.185  12.543  0.0223 -0.1867  0.0372
13858W        W29932   0.242   7.372   5.388  0.3704 -0.2843  0.1676
13859W        W29933   1.079   7.346   0.196  0.1060 -0.1368 -0.1246
13860W        W29934   2.890   7.648  15.749 -0.1220  0.3189  0.1258
13861W        W29935   0.098  15.612  13.498  0.2900  0.1275  0.1887
13862W        W29936   5.654   8.766  16.298 -0.2645  0.0574  0.0526
13863W        W29937   5.837   4.513   0.674 -0.2235  0.2077  0.1781
13864W        W29938   9.462   8.235   5.543 -0.0864 -0.2021  0.0803
13865W        W29939  14.560  17.634   1.949 -0.2748 -0.2474  0.0740
13866W        W29940  17.290   3.002   0.899 -0.2285 -0.0323  0.1813
13867W        W29941  13.775   5.778   4.026  0.1426  0.2085  0.1592
13868W        W29942   6.941   3.551   4.658  0.0806  0.3215  0.0661
13869W        W29943   0.789  16.112   4.294  0.0410  0.2836  0.1050
13870W        W29944   8.669  11.789   6.280 -0.0466 -0.1461 -0.2221
13871W        W29945   7.175   8.315  14.831 -0.1613 -0.0020 -0.0465
13872W        W29946   7.400   8.749   0.947 -0.0016 -0.0090  0.1645
13873W        W29947   6.540   3.534   3.940 -0.2206  0.0827  0.0843
13874W        W29948  10.200  14.398  16.286  0.1703  0.0369  0.1170
13875W        W29949   8.505   2.281   3.223 -0.0587  0.1598 -0.3039
13876W        W29950   4.847   1.917  12.658 -0.5326 -0.0827  0.2461
13877W        W29951  13.481  12.810  11.233  0.0938  0.0917  0.5341
13878W        W29952  14.765  13.040  14.339 -0.2802 -0.0115  0.0239
13879W        W29953   0.235   5.859  16.429 -0.0987  0.2261  0.5891
13880W        W29954   1.336   9.997   3.240 -0.2315 -0.0211 -0.0795
13881W        W29955  13.674   2.200  15.165 -0.0765  0.1931  0.0440
13882W        W29956   2.693   0.979   0.136 -0.1741  0.1550 -0.1124
13883W        W29957   6.215   0.353   0.232 -0.0147  0.2599 -0.1773
13884W        W29958  14.452   8.716  15.656 -0.1475 -0.1870  0.1573
13885W        W29959  11.863   8.329  13.837  0.3090 -0.1659  0.0706
13886W        W29960   5.015  17.548   4.075  0.1810 -0.2970 -0.2958
13887W        W29961  12.131  11.011   5.522 -0.2449 -0.0380  0.0234
13888W        W29962   4.259   0.231  12.995 -0.1661 -0.1693  0.1547
13889W        W29963  12.774   3.212   4.565  0.1399  0.0553 -0.2497
13890W        W29964  11.216   5.077   0.318 -0.0925 -0.1011 -0.0088
13891W        W29965   8.811   8.693  13.889  0.2054  0.0019  0.2540
13892W        W29966  17.605   5.628   2.415 -0.0108  0.0094  0.0312
13893W        W29967  13.589  11.436   5.763 -0.0519 -0.1019 -0.4457
13894W        W29968   3.007   0.096   0.199 -0.0550 -0.3285 -0.1259
13895W        W29969  17.220  17.416  15.679  0.1067  0.0727 -0.3236
13896W        W29970   4.700   9.598   2.503 -0.2001 -0.2763 -0.1437
13897W        W29971  13.401  11.008   6.028 -0.0932 -0.0632 -0.0237
13898W        W29972   4.114   2.116   3.836  0.2300  0.1862 -0.5169
13899W        W29973   6.957  12.942   5.424  0.2096 -0.0515  0.0042
13900W        W29974  15.165   3.305   0.898 -0.2219  0.2625  0.0734
13901W        W29975   2.055  11.486   4.045  0.2887 -0.0850 -0.2242
13902W        W29976  15.610   4.339   4.708  0.0024 -0.0374 -0.1019
13903W        W29977   9.898   0.023  11.633  0.0619 -0.3090  0.2797
13904W        W29978   9.020  14.387   6.330 -0.2323 -0.2580 -0.0911
13905W        W29979  11.635  14.269   1.083 -0.1423 -0.0417  0.1004
13906W        W29980  11.928  16.306   0.717  0.0806  0.0907 -0.1100
13907W        W29981   0.369  13.512  14.972  0.2979 -0.1977 -0.2918
13908W        W29982   4.235  15.584  14.980 -0.4993  0.4005 -0.0273
13909W        W29983  16.653  15.339   1.436  0.1721 -0.1972  0.1079
13910W        W29984   0.746  12.429  14.123 -0.3093 -0.0851 -0.2612
13911W        W29985   2.268  15.883   1.955 -0.0535  0.0160 -0.1302
13912W        W29986   9.471   4.603   0.008  0.1156  0.1936  0.1338
13913W        W29987  11.144   8.276   4.409 -0.2133 -0.1770  0.3100
13914W        W29988   9.136   0.917  16.261 -0.0318 -0.0615  0.1063
13915W        W29989  10.961  17.212  14.999 -0.1241 -0.0537 -0.0481
13916W        W29990  13.820  17.440  13.133 -0.1837 -0.0841 -0.2054
13917W        W29991  16.159  12.332  15.226 -0.1584 -0.1320  0.0462
13918W        W29992  17.342  16.593  11.754 -0.0747  0.0087 -0.1294
13919W        W29993   8.811  10.740  12.911  0.1810  0.1095 -0.0574
13920W        W29994   2.741   5.415  11.368 -0.1756  0.1713 -0.2285
13921W        W29995  13.301   6.996   3.437 -0.0856 -0.3235 -0.3695
13922W        W29996   4.723  16.588   3.924 -0.0557 -0.1097  0.2638
13923W        W29997  12.394   4.060   3.223 -0.1206 -0.1824 -0.1625
13924W        W29998  16.999   6.592   0.790 -0.2692 -0.1678  0.0876
13925W        W29999  12.092  11.327  15.095 -0.0584 -0.1777  0.0878
13926W        W30000   2.659   4.511  15.335 -0.2806 -0.0259  0.2330
13927W        W30001  14.040  15.106  14.380  0.1445 -0.1172 -0.0451
13928W        W30002   3.234   0.812  14.340 -0.0702  0.0352 -0.2464
13929W        W30003   1.939   2.151  11.534  0.0896 -0.1063  0.1022
13930W        W30004  14.308   9.562   2.357 -0.0275  0.1415  0.3010
13931W        W30005  10.334  16.000   0.251 -0.0885 -0.0894  0.0720
13932W        W30006  16.559  16.524   4.379  0.4399 -0.1320  0.1187
13933W        W30007   5.352   5.964  15.149 -0.1473 -0.1249  0.0300
13934W        W30008  11.320   0.254   5.627  0.0049  0.1551 -0.0840
13935W        W30009   7.517  10.691   5.532 -0.0493 -0.2413  0.1777
13936W        W30010   1.628   6.117   2.684  0.1158 -0.1148  0.0563
13937W        W30011  15.824  11.586   2.290  0.4381 -0.1834  0.3571
13938W        W30012  10.701  10.090   2.523 -0.0503 -0.2814 -0.0702
13939W        W30013   5.672   4.716   6.486 -0.1960  0.2037 -0.0498
13940W        W30014  14.075  14.057  13.442 -0.1389 -0.0512  0.0963
13941W        W30015  17.619   0.303  15.485 -0.2328 -0.2190 -0.1314
13942W        W30016   8.241   6.254   1.213  0.2090  0.2103  0.0190
13943W        W30017   1.068   9.859   4.172 -0.1665 -0.3577 -0.0244
13944W        W30018  15.545  11.252   5.367  0.0599  0.0827 -0.2002
13945W        W30019   9.693   4.395  15.482  0.2907 -0.3460  0.0650
13946W        W30020   6.537   5.697  14.436  0.0246 -0.1154  0.0340
13947W        W30021  17.964  16.099  11.260  0.3926  0.0181  0.0992
13948W        W30022  11.897  16.959  14.090 -0.2281  0.0785 -0.1529
13949W        W30023   1.767   8.110  15.714  0.1413 -0.0016 -0.2689
13950W        W30024   2.894   3.618  12.344 -0.3820 -0.0057  0.0498
13951W        W30025   2.339   9.742  13.341  0.1721 -0.0579 -0.0851
13952W        W30026   1.247   5.954   2.960  0.2842 -0.1726  0.1928
13953W        W30027   0.080   9.092   0.379 -0.0149 -0.0078  0.1249
13954W        W30028   6.043   9.984   3.478 -0.0799  0.2853 -0.1914
13955W        W30029  13.214   4.890   3.767 -0.0962 -0.1859  0.1195
13956W        W30030  16.190  14.211  14.134 -0.0504 -0.0295 -0.0158
13957W        W30031  15.526   8.388   3.258 -0.1710 -0.1409 -0.0382
13958W        W30032  17.486   0.907   1.705 -0.2892  0.1050  0.0950
13959W        W30033   5.598   8.574  15.286  0.0417 -0.2516  0.0851
13960W        W30034   2.595  14.092   2.990 -0.0380  0.2000 -0.0953
13961W        W30035   2.429   8.690   2.692 -0.0856  0.3941  0.0424
13962W        W30036  14.744  10.172  16.319  0.0979  0.0026  0.4227
13963W        W30037  11.114  12.613  12.807  0.0098  0.1171 -0.0157
13964W        W30038   6.752   4.311  14.174  0.0450 -0.2323  0.0154
13965W        W30039   4.237   9.909   3.866  0.0270 -0.2348  0.4515
13966W        W30040  15.288  10.106   5.601 -0.0917 -0.3023 -0.2175
13967W        W30041   2.033   8.958  13.012  0.2932 -0.4623  0.2512
13968W        W30042   7.372  15.528  11.800  0.0458  0.0897  0.2587
13969W        W30043   4.991  13.245   1.973 -0.0587  0.1572  0.0180
13970W        W30044  16.582   7.410   3.052 -0.0874  0.3642  0.2847
13971W        W30045  12.109  17.719  13.828 -0.2778 -0.0299 -0.2067
13972W        W30046   1.808  15.208  12.115  0.0442 -0.1465  0.3222
13973W        W30047   1.643   4.929  13.682 -0.0163  0.1162 -0.0203
13974W        W30048  15.888  14.242  16.364 -0.1818 -0.2259 -0.1421
13975W        W30049  12.310   4.063  12.508  0.2259 -0.0977 -0.2207
13976W        W30050   0.999   1.597  11.021  0.1416  0.0544 -0.1228
13977W        W30051   7.047   5.459   3.494  0.1082 -0.4655  0.2054
13978W        W30052   6.387   6.956  14.520 -0.1112  0.0570  0.3355
13979W        W30053  17.334  13.425   3.901 -0.0703  0.2794  0.2056
13980W        W30054  10.705  13.830  16.482 -0.0310 -0.0512  0.1534
13981W        W30055   9.617  15.485  14.862  0.3778  0.0284 -0.1927
13982W        W30056   0.712  17.985  11.907  0.0550 -0.0097 -0.1072
13983W        W30057   3.652  18.022  15.874 -0.0533 -0.2496 -0.2746
13984W        W30058   9.605   5.372  14.520  0.0585 -0.1094 -0.1673
13985W        W30059   7.942   7.405   2.089 -0.2021  0.1356 -0.2458
13986W        W30060  16.449   0.357  14.096  0.1099  0.1634  0.0026
13987W        W30061   7.093  11.216   3.896  0.0894 -0.1222  0.2468
13988W        W30062  15.081   7.186  11.554  0.2241 -0.0894 -0.0520
13989W        W30063  13.020   9.393  13.083 -0.1342 -0.2054  0.0666
13990W        W30064   9.270  15.858   5.628  0.0147 -0.0563 -0.2138
13991W        W30065  17.164  11.406  12.788  0.0268  0.1232 -0.3757
13992W        W30066   1.786  13.832   0.888 -0.1848  0.0536 -0.1056
13993W        W30067  12.479   9.682  10.624  0.1941  0.2240 -0.1353
13994W        W30068  17.240   6.162   0.989 -0.3009 -0.1115 -0.0932
13995W        W30069  15.024  17.588   0.547 -0.1391 -0.1561 -0.0528
13996W        W30070  17.927   7.677  13.061 -0.0013 -0.2953  0.0141
13997W        W30071   0.944  10.055   0.349  0.2091 -0.1635 -0.0784
13998W        W30072  11.111   9.512   5.300 -0.0377 -0.2491  0.1289
13999W        W30073   2.091   6.790  12.482  0.4869  0.3033  0.1020
14000W        W30074   2.867  11.212  15.001  0.1272 -0.0863 -0.0915
14001W        W30075   1.924   0.345   2.981  0.1714 -0.2532  0.0012
14002W        W30076  10.735   0.155   3.570  0.1157 -0.0964  0.2633
14003W        W30077   4.526   3.071  11.280 -0.0451 -0.0342  0.0793
14004W        W30078   0.153  13.183  11.601  0.3805 -0.0449 -0.1147
14005W        W30079  17.129   3.607   4.784  0.1031  0.2693 -0.2108
14006W        W30080  11.772   1.862   5.917  0.1791  0.0427  0.0559
14007W        W30081   4.093   9.466  14.058 -0.0934  0.0341 -0.0514
14008W        W30082   1.323   2.139   4.785 -0.0277  0.0927  0.2725
14009W        W30083  11.900   9.272  14.720  0.0842  0.0434  0.1643
14010W        W30084  14.004   1.919  11.445 -0.1208  0.2242  0.0330
14011W        W30085   3.677  18.175   1.157 -0.3012 -0.0299 -0.1369
14012W        W30086  17.647   4.856  10.931 -0.1549  0.3414  0.4123
14013W        W30087   9.808   2.989  16.074 -0.1860 -0.0905 -0.0627
14014W        W30088   4.751   1.138   4.557 -0.0382  0.0011  0.0761
14015W        W30089  17.561   9.004  11.843 -0.0040 -0.1109  0.1669
14016W        W30090  16.217  10.484  15.758  0.0474 -0.1297 -0.3242
14017W        W30091   8.566   3.796  12.282 -0.1730 -0.0609  0.1507
14018W        W30092  12.351   8.998  15.113  0.0812  0.1906 -0.1287
14019W        W30093   6.756   7.051  12.318  0.0227  0.0263  0.1047
14020W        W30094  13.955  12.322  11.832  0.1005  0.2627  0.0232
14021W        W30095   4.418   4.361   5.576 -0.2064  0.2492  0.0723
14022W        W30096   3.768   4.368  11.111  0.0363  0.2765 -0.0870
14023W        W30097   5.935   7.086   0.881  0.1016 -0.1431 -0.0973
14024W        W30098   7.238   6.158  13.829 -0.2478 -0.2822 -0.3024
14025W        W30099  17.563   4.425  13.373 -0.0395  0.1197  0.1729
14026W        W30100   3.247   6.596  11.656 -0.0603 -0.0356 -0.1634
14027W        W30101   7.805   7.447   1.163 -0.0047 -0.1481  0.0273
14028W        W30102   1.734  10.559   0.874  0.2031 -0.1558  0.0532
14029W        W30103   2.528   7.650  13.284  0.1131  0.1250  0.2183
14030W        W30104  12.497  11.057  12.801 -0.1760  0.0030 -0.0002
14031W        W30105   7.701  12.556  14.279  0.0553  0.2498  0.0546
14032W        W30106   0.324   5.794  12.433 -0.2664 -0.0788  0.1443
14033W        W30107   2.833   6.702  15.940  0.3259  0.1922  0.0343
14034W        W30108   4.473  13.869   1.678  0.2494  0.0895 -0.1542
14035W        W30109   6.160   8.106   3.039  0.0039  0.1458  0.0285
14036W        W30110  15.520   2.970  15.137  0.0179  0.0413  0.0250
14037W        W30111  10.822   1.311   1.300 -0.2099  0.3172 -0.0102
14038W        W30112  11.667  17.526   4.524 -0.3665  0.2055  0.0271
14039W        W30113   8.714   0.093   5.868 -0.0205 -0.3868 -0.1035
14040W        W30114   9.389  12.890   3.004  0.0400  0.2197 -0.0071
14041W        W30115  13.464  10.261   5.153  0.1126 -0.0745 -0.1748
14042W        W30116   3.047   5.326   5.262 -0.1882  0.2549 -0.2220
14043W        W30117  10.340  17.399  11.717 -0.2136 -0.0887  0.0895
14044W        W30118   5.945  13.842  16.474 -0.0695 -0.0815 -0.1369
14045W        W30119   7.288  12.350   2.869  0.2491  0.2633 -0.1327
14046W        W30120  12.610   0.467   3.837  0.0963 -0.1039 -0.2735
14047W        W30121  13.110   0.023   5.670  0.3237  0.0589 -0.3566
14048W        W30122   7.842   8.834  12.485  0.0732 -0.3343 -0.2509
14049W        W30123   5.722   9.922   4.377 -0.1163  0.0312 -0.0395
14050W        W30124   3.676  12.608   2.515  0.0267 -0.2355 -0.2816
14051W        W30125  13.131   7.363   5.714 -0.0366 -0.1529 -0.4273
14052W        W30126   0.956  17.237   3.237  0.1879 -0.0480 -0.0307
14053W        W30127  17.694  12.783  12.457  0.2656  0.1718 -0.2694
14054W        W30128   1.212   4.574   6.142  0.1288  0.3488  0.1344
14055W        W30129  15.994   2.671  15.777  0.0836 -0.1278  0.2070
14056W        W30130  15.211   4.246  13.297  0.0532 -0.3222 -0.1003
14057W        W30131   3.467   1.266   0.594 -0.1343 -0.0583 -0.1930
14058W        W30132   1.024  12.786  15.357  0.0375  0.0670 -0.0094
14059W        W30133  16.081   8.821  14.569  0.1664 -0.0788 -0.2458
14060W        W30134  10.775   8.425  16.383  0.2302  0.0646 -0.3000
14061W        W30135  14.340  12.164   3.055  0.1551 -0.2385 -0.2310
14062W        W30136   3.286   9.506   2.788 -0.2476 -0.1374  0.4151
14063W        W30137   8.160   7.949  12.029  0.0495 -0.2344  0.1142
14064W        W30138   3.400   7.208  13.093  0.3282 -0.1937 -0.5878
14065W        W30139  15.873  13.880  14.960  0.0648  0.3344 -0.1803
14066W        W30140  12.888   7.679   3.735 -0.1342 -0.0228  0.0164
14067W        W30141   7.862   6.552  15.225 -0.0180 -0.0399  0.0859
14068W        W30142   5.356  10.144   0.352  0.1750 -0.0131  0.2234
14069W        W30143   0.448   4.108  11.244  0.5152 -0.1252 -0.3107
14070W        W30144  16.023   9.477  11.983  0.1044 -0.0292 -0.1588
14071W        W30145   0.590  12.589  13.339 -0.1333  0.1199 -0.1451
14072W        W30146  17.191   6.808  11.431  0.2209 -0.2108  0.2059
14073W        W30147  12.625  11.939   0.408  0.2247 -0.2672  0.1610
14074W        W30148  17.831   1.910   0.339 -0.1767 -0.3208  0.1587
14075W        W30149  10.292   8.144  16.272 -0.2785  0.2908  0.4473
14076W        W30150   3.654   8.839  16.523 -0.1351  0.0428  0.1918
14077W        W30151  17.086  16.682   0.963 -0.0672  0.2587  0.1951
14078W        W30152  14.138  11.419  13.519 -0.2980  0.0552 -0.0383
14079W        W30153   0.168   5.292   4.179 -0.3536  0.1015 -0.1395
14080W        W30154   5.111   9.159  12.274 -0.0908  0.0466  0.0580
14081W        W30155  11.454  18.089   2.898  0.2414  0.0991 -0.1816
14082W        W30156   3.616   0.918  12.709  0.1201 -0.1292 -0.1370
14083W        W30157  13.831   5.616  15.230 -0.1411  0.0308 -0.0661
14084W        W30158   0.564   4.093  12.620  0.0207  0.0482 -0.1079
14085W        W30159   3.442  12.470  14.759  0.2735  0.0083  0.2407
14086W        W30160  10.334  12.417   2.592 -0.2851  0.3170 -0.3240
14087W        W30161   0.098   2.038  10.307 -0.0649 -0.1893  0.4184
14088W        W30162  17.221  12.489   3.727 -0.0920 -0.1289 -0.0122
14089W        W30163   4.109   8.188   5.526 -0.0963 -0.0893  0.0542
14090W        W30164  12.516  17.813   2.910 -0.0644 -0.4659 -0.0306
14091W        W30165  12.787   5.970   4.177 -0.1488 -0.0096 -0.0804
14092W        W30166  13.955   6.063  12.241  0.0058  0.0437  0.1534
14093W        W30167   1.607   0.509  15.522 -0.0510  0.1529  0.3368
14094W        W30168   6.257   9.038  13.615 -0.0580  0.1752 -0.2178
14095W        W30169   9.399   9.385   4.372  0.3080 -0.0994 -0.1303
14096W        W30170  11.927   1.431   2.991 -0.0984  0.2616  0.0609
14097W        W30171   5.879  12.885   5.625 -0.0918  0.3760 -0.0033
14098W        W30172  14.481   8.572   4.412  0.1509 -0.0995  0.1999
14099W        W30173   3.501  10.060  12.412 -0.4476  0.1616 -0.2804
14100W        W30174   7.935   5.911   3.049  0.0273 -0.1651  0.0759
14101W        W30175  12.619  14.309   1.076  0.3032  0.0186  0.0351
14102W        W30176   2.887   2.440   5.396  0.0559 -0.0490  0.2463
14103W        W30177  12.534   7.778   4.135  0.0145 -0.4017  0.0417
14104W        W30178   9.388   6.327   4.742  0.0298 -0.1727  0.0156
14105W        W30179   8.856  16.406  12.194  0.3577  0.1541 -0.2959
14106W        W30180  13.297   6.791   0.192 -0.1398  0.0421 -0.5669
14107W        W30181   4.767  12.615   3.344  0.4446  0.1729  0.1817
14108W        W30182  16.214  17.657   0.555  0.1320 -0.4213  0.0601
14109W        W30183  11.578   4.933  14.306 -0.1548  0.2675  0.2589
14110W        W30184  12.162   6.835   4.183 -0.2516  0.2283 -0.1917
14111W        W30185   2.758  12.160  13.470 -0.0195  0.2848  0.0202
14112W        W30186   8.909  17.850   3.630 -0.1088  0.2835 -0.2404
14113W        W30187   6.733  14.802  12.273 -0.2316  0.1123 -0.0076
14114W        W30188  17.323   9.247   3.997 -0.0460 -0.2795  0.3092
14115W        W30189   9.053  17.017   1.291 -0.2138  0.1517  0.0112
14116W        W30190  15.887  16.463  12.190  0.0554  0.3186  0.2165
14117W        W30191  15.420  14.224   0.734  0.2104 -0.1814  0.3730
14118W        W30192   9.545   0.289   5.344  0.3851 -0.1130 -0.0482
14119W        W30193   0.616   6.610  14.769 -0.2793  0.1223  0.2550
14120W        W30194  12.299   4.766   0.674  0.1302 -0.0286 -0.2650
14121W        W30195   5.787  16.214   4.801 -0.3877 -0.0152 -0.0412
14122W        W30196  15.492   1.245  12.247  0.0614  0.3219  0.1233
14123W        W30197   2.918  17.608   0.791 -0.1849 -0.0023  0.2723
14124W        W30198  16.215   8.301  15.249  0.3250  0.0070  0.1044
14125W        W30199  10.225   9.740   0.939 -0.0649 -0.0281 -0.0386
14126W        W30200   2.234  10.985   2.671  0.0113 -0.3542  0.1943
14127W        W30201   0.481  17.183   4.873 -0.0284  0.0539 -0.2223
14128W        W30202  16.288   0.417  15.193 -0.1831 -0.0798 -0.0493
14129W        W30203   8.191  15.108   5.681  0.1215 -0.1943 -0.0276
14130W        W30204   3.525   8.008   0.433 -0.0646  0.1523 -0.3056
14131W        W30205  18.139  17.480  16.264  0.0360  0.0110  0.0490
14132W        W30206   1.582  12.504  11.468 -0.1598 -0.1290 -0.0054
14133W        W30207  12.590   2.931   2.045  0.1239 -0.2056 -0.0974
14134W        W30208  13.807   4.965   2.022 -0.2943  0.3022 -0.1582
14135W        W30209   1.769   4.589   0.610  0.3454  0.0096 -0.0362
14136W        W30210   7.383   5.689   4.318  0.1422 -0.1274 -0.3612
14137W        W30211   1.310   8.734  15.215  0.0909 -0.0475  0.3789
14138W        W30212   8.833  14.383   2.357  0.1189  0.1780 -0.1646
14139W        W30213   7.285   5.484  13.786 -0.0685 -0.1399  0.2214
14140W        W30214   6.767   8.037   5.213 -0.2481  0.2060 -0.0649
14141W        W30215  14.379  16.431   3.378  0.1011 -0.0940 -0.2210
14142W        W30216   2.236  10.736  13.922  0.3048 -0.0449 -0.0179
14143W        W30217   8.833   7.110  13.402 -0.3772  0.2574  0.1090
14144W        W30218   8.619   1.194   2.490 -0.1369  0.2336  0.0281
14145W        W30219  12.905  14.528  16.331 -0.0068  0.1582  0.2303
14146W        W30220   4.352  11.291  13.511 -0.1403  0.1609 -0.1971
14147W        W30221   6.904  12.478  13.371  0.0239  0.1291  0.1848
14148W        W30222  15.385   4.236  12.820  0.1692  0.4444 -0.1396
14149W        W30223  15.780  11.892  16.073  0.1862  0.0377  0.0658
14150W        W30224  12.396   2.530  14.963  0.3090  0.2152  0.0130
14151W        W30225   8.321   7.971  11.154  0.1461  0.1918 -0.1200
14152W        W30226   6.739   9.017   1.175 -0.1149  0.0003  0.4645
14153W        W30227   6.064  17.255   2.243 -0.1532  0.1913 -0.1980
14154W        W30228   8.455   6.613  14.683  0.2598 -0.0813 -0.3190
14155W        W30229   0.831  10.354   0.897 -0.1991  0.1811  0.1667
14156W        W30230  15.779  11.664   1.677  0.3118 -0.1055  0.3046
14157W        W30231   3.286  16.254   3.384  0.0880 -0.2183 -0.1224
14158W        W30232  13.565   6.199   4.304  0.0596 -0.0760 -0.1607
14159W        W30233   2.988  14.084  12.802  0.0453  0.0670 -0.0666
14160W        W30234   8.667  16.307   3.096 -0.3441 -0.0749 -0.1904
14161W        W30235   5.441   6.049  10.763 -0.3577 -0.0672 -0.0156
14162W        W30236   7.185   7.056  14.098 -0.2194 -0.1408  0.0327
14163W        W30237  10.136  10.059   3.922  0.0413  0.1549 -0.1034
14164W        W30238  14.725   5.728  14.882  0.0014 -0.1353 -0.2650
14165W        W30239  12.094  12.344   0.203 -0.2094 -0.1454 -0.0548
14166W        W30240  15.378   1.975  11.253 -0.0241 -0.1247  0.3129
14167W        W30241   7.393   2.904  12.477 -0.1494 -0.0454  0.1848
14168W        W30242  16.661  17.468  11.653  0.0187  0.1027 -0.0826
14169W        W30243  16.351   4.239   1.318 -0.0199  0.2089  0.1670
14170W        W30244   6.303  16.476  12.812  0.2159  0.0416  0.2839
14171W        W30245   5.590  12.762   0.668  0.1267 -0.0774  0.3891
14172W        W30246  17.289  10.486  12.164  0.0128 -0.1685  0.2731
14173W        W30247  13.050   4.452   0.593 -0.2693  0.3157 -0.0141
14174W        W30248  15.462  17.504  16.454  0.1313  0.0258 -0.1037
14175W        W30249   0.839  13.815   3.222 -0.3372 -0.1048 -0.1784
14176W        W30250  12.268   9.970   0.870  0.0278 -0.0823  0.0139
14177W        W30251  11.229   2.282   1.700  0.0368 -0.2820 -0.0494
14178W        W30252  18.108   2.050  13.913  0.0815 -0.1363 -0.1842
14179W        W30253  17.560  18.077  15.122 -0.0962 -0.0094 -0.1548
14180W        W30254   5.635   4.355   0.187 -0.1279 -0.0963 -0.0725
14181W        W30255  13.304   9.614   2.350  0.1003 -0.0942  0.2139
14182W        W30256  14.499  12.346  11.041 -0.2197 -0.0428  0.2382
14183W        W30257  13.909  12.546  15.096  0.0437 -0.0790 -0.2480
14184W        W30258  15.542   6.952   4.163 -0.0134 -0.0831 -0.1010
14185W        W30259  10.766  14.173   4.910 -0.2066  0.0079 -0.1889
14186W        W30260   3.048  12.501   2.748  0.2310  0.2886 -0.3426
14187W        W30261  12.863  11.202  11.594  0.1979  0.0499  0.2507
14188W        W30262  17.859   7.764  16.055 -0.1393  0.1628 -0.0410
14189W        W30263  17.439   0.184  15.968 -0.1736  0.0749  0.0130
14190W        W30264   7.664   6.943   2.211 -0.1100 -0.0166 -0.1650
14191W        W30265  17.173  16.699  14.485 -0.1887  0.0554  0.2737
14192W        W30266  12.951   1.750   4.087  0.3139  0.0406  0.1468
14193W        W30267  11.303  15.064   5.278  0.0788  0.0623 -0.4019
14194W        W30268  17.872   9.567  13.175  0.0951  0.1041 -0.0719
14195W        W30269   8.183   9.126  15.611  0.1272 -0.1602 -0.0477
14196W        W30270  15.002  11.994   5.511  0.1782 -0.2211  0.1007
14197W        W30271  16.370  14.945  15.142 -0.0685 -0.3215 -0.0707
14198W        W30272   3.651   3.541   4.857  0.3579 -0.1527 -0.0252
14199W        W30273   2.307  15.308   1.696 -0.0959 -0.4610  0.3680
14200W        W30274  12.915   3.261   5.145 -0.2881  0.3732  0.1239
14201W        W30275   8.058  12.854  14.138  0.1553  0.3539 -0.0252
14202W        W30276   3.512   6.937   2.152  0.1048  0.3058  0.2801
14203W        W30277   8.202   6.262   4.408  0.1763  0.0618  0.4930
14204W        W30278   1.214  10.355   4.158 -0.0266 -0.0965 -0.0938
14205W        W30279   9.480   6.593   3.810  0.1976 -0.1976  0.1070
14206W        W30280   5.126   8.487   4.824 -0.1176  0.0657 -0.2655
14207W        W30281   2.711  10.438  15.757  0.0076 -0.0289  0.1601
14208W        W30282  11.861   2.628   4.862 -0.0348  0.0158  0.1178
14209W        W30283  14.140  13.079  13.062  0.3728  0.0694  0.0917
14210W        W30284   6.461  11.207   3.769 -0.2534 -0.1563  0.1786
14211W        W30285  17.385   4.627   4.617 -0.0162 -0.1919  0.1657
14212W        W30286   0.579   7.377  14.839  0.0783  0.0035  0.1309
14213W        W30287  15.779   1.877  11.645  0.2882  0.4010 -0.0535
14214W        W30288   2.342   1.554   4.273 -0.2339  0.0850  0.1632
14215W        W30289  16.724   8.779  12.374 -0.3534  0.2661 -0.0498
14216W        W30290   3.825   1.704   0.748  0.1042 -0.1926  0.3026
14217W        W30291   4.158   7.545   1.723 -0.2119  0.0748 -0.1206
14218W        W30292  10.236  16.678   3.727  0.0573 -0.0931 -0.0650
14219W        W30293   0.586   8.406   3.752 -0.0893 -0.0604  0.0945
14220W        W30294  14.110   0.629  13.635  0.0072  0.1486  0.1433
14221W        W30295   0.990  17.387   9.756  0.2440 -0.1536 -0.0426
14222W        W30296  16.176  14.736  14.055 -0.0135 -0.0250 -0.0044
14223W        W30297  13.705   2.409   1.189 -0.1522 -0.0726  0.1557
14224W        W30298  16.414  16.849  15.537  0.0736  0.1641 -0.2027
14225W        W30299  12.041   3.755  15.221 -0.2160 -0.0299 -0.0329
14226W        W30300  15.606   0.402   4.167 -0.0860  0.1852 -0.0518
14227W        W30301   6.184   6.878   2.860 -0.0311 -0.1642  0.1005
14228W        W30302   1.014  17.627   4.946 -0.0064 -0.0055 -0.0817
14229W        W30303  13.120   5.254   3.453 -0.2107 -0.2804 -0.0562
14230W        W30304  16.784   3.138  15.337  0.0444  0.1481  0.0725
14231W        W30305   6.517  11.331  16.232 -0.1840 -0.0059 -0.2373
14232W        W30306   5.925  14.855   1.478  0.0694  0.1211  0.2348
14233W        W30307   0.537  14.160   5.287  0.2191  0.2958  0.0272
14234W        W30308   7.985   8.861   2.409  0.3204  0.1900  0.2613
14235W        W30309   1.012   1.615  15.448 -0.1148 -0.3504 -0.1156
14236W        W30310   5.692  16.397   3.771 -0.1235  0.0481  0.1402
14237W        W30311   3.390  14.712  16.131  0.2512  0.1012 -0.1974
14238W        W30312   2.610  17.922   3.367 -0.1934 -0.2818  0.1052
14239W        W30313  17.435   6.798   3.742 -0.1744  0.2967  0.3914
14240W        W30314   8.585  14.146  11.402 -0.2465 -0.0354  0.0449
14241W        W30315   1.923  15.694   3.331  0.1965 -0.2136 -0.1694
14242W        W30316   7.695   1.873   5.893  0.0200  0.1467 -0.1141
14243W        W30317  17.210  13.609  15.130  0.1054 -0.0155 -0.1776
14244W        W30318   2.729   5.851  15.669  0.1002  0.1497 -0.1274
14245W        W30319  15.722  12.741   4.622 -0.0492  0.5525  0.1409
14246W        W30320  14.825  17.519  12.232 -0.2112 -0.1524 -0.0074
14247W        W30321  16.936   6.871  16.245 -0.1051 -0.3349 -0.0511
14248W        W30322  15.181   4.622   2.181  0.3358  0.1718  0.0005
14249W        W30323   3.331  16.742   3.641  0.0985  0.2906 -0.0548
14250W        W30324   7.164  16.368  13.059  0.3116  0.0294  0.3742
14251W        W30325  14.939   7.907   2.687  0.2281  0.4473 -0.3245
14252W        W30326  17.709  10.473   3.607 -0.2498 -0.3932 -0.1824
14253W        W30327  10.855  14.692   4.515  0.0068  0.0074 -0.0533
14254W        W30328  16.264   7.578  15.080 -0.3619  0.2010  0.0749
14255W        W30329   5.642   2.408   0.866 -0.0071 -0.1966 -0.0165
14256W        W30330   4.528  15.302   1.877  0.0051 -0.0293  0.0695
14257W        W30331   8.236   9.065   5.386 -0.1795  0.4658  0.0716
14258W        W30332   3.795  16.928   2.435 -0.0888 -0.2150 -0.2302
14259W        W30333  13.630  14.905  13.210 -0.1402 -0.0906  0.0378
14260W        W30334  17.388  17.255  12.321  0.0061 -0.0949 -0.0766
14261W        W30335  12.925   4.200  13.626 -0.0959 -0.1828  0.0195
14262W        W30336  18.202   3.071  13.488  0.1735 -0.1292 -0.0616
14263W        W30337   8.077  14.454  12.888  0.0634  0.1903 -0.1302
14264W        W30338   4.486   4.338  15.461 -0.2182  0.0640 -0.0397
14265W        W30339   2.406  13.099   4.583 -0.0584 -0.0553 -0.0274
14266W        W30340  14.295  15.885  11.224 -0.0788 -0.0727 -0.2654
14267W        W30341  16.210   7.911   5.494  0.0953  0.0874 -0.1739
14268W        W30342   3.425   2.752   1.769  0.0704 -0.3175 -0.0497
14269W        W30343   4.835   7.848   2.268 -0.1584  0.1886 -0.1277
14270W        W30344   2.252  11.362  15.397 -0.1214  0.2968 -0.1041
14271W        W30345  14.482  13.994   3.815  0.1802 -0.0769  0.4172
14272W        W30346  17.750  10.203  11.201  0.2194 -0.0634 -0.0149
14273W        W30347  10.491  12.847  12.163  0.0925  0.0283 -0.2583
14274W        W30348   7.872  15.056  15.163 -0.1662 -0.0347 -0.1562
14275W        W30349   8.309  16.178  15.596  0.0051  0.2545  0.0897
14276W        W30350   2.517  12.919  15.941 -0.1545 -0.0799  0.2904
14277W        W30351  12.900   6.738  16.232 -0.0474 -0.1540  0.0466
14278W        W30352   0.974  17.636  12.388 -0.0949 -0.0599  0.2613
14279W        W30353   6.331  14.611   3.387  0.2559  0.1682 -0.2959
14280W        W30354  15.829   0.547   3.694  0.1172 -0.1396 -0.0985
14281W        W30355  11.595   3.642  16.389 -0.0019  0.0009 -0.3495
14282W        W30356   6.889  10.541  13.987 -0.0011  0.4011 -0.1064
14283W        W30357   4.867   9.708  12.483  0.1826  0.1329  0.0006
14284W        W30358  10.490  15.042   5.700 -0.1605 -0.0583 -0.1081
14285W        W30359  10.482   4.708   0.792 -0.1832  0.2898  0.0674
14286W        W30360  15.108   5.334  13.588 -0.2040  0.0596 -0.2290
14287W        W30361  16.738  10.171   3.451  0.1958  0.4118  0.0546
14288W        W30362   7.799  12.815   4.375 -0.3880  0.0002 -0.0012
14289W        W30363   7.095   0.365   2.210  0.1242  0.1560 -0.0895
14290W        W30364  16.366  17.052  11.415 -0.1914 -0.0256  0.4222
14291W        W30365  12.246   3.349   4.459 -0.2149  0.2849  0.3831
14292W        W30366   0.420   3.291  15.839  0.1998  0.0630 -0.1969
14293W        W30367  16.176  10.692   4.475  0.1676 -0.0448 -0.2100
14294W        W30368   9.516   3.972  14.497  0.1158 -0.1361  0.0726
14295W        W30369   0.536   1.711   4.734  0.0509 -0.2248  0.0038
14296W        W30370  11.479  14.638  12.648 -0.0357  0.2185 -0.2884
14297W        W30371   4.887   8.060   4.945 -0.1588  0.2231 -0.0466
14298W        W30372  16.992   0.533  11.079 -0.2321 -0.0192 -0.1565
14299W        W30373   8.338   8.733   5.001 -0.1436 -0.2234  0.0255
14300W        W30374   4.836   5.635  14.570  0.1047  0.1037 -0.0315
14301W        W30375   7.663   3.989  12.080  0.0788  0.3206  0.0264
14302W        W30376  11.167  16.337  15.830 -0.1007 -0.1161  0.3045
14303W        W30377   0.719   9.924  13.287 -0.0109 -0.2372  0.0695
14304W        W30378   3.725  13.286  15.387  0.0296  0.1986 -0.1024
14305W        W30379  11.687   9.464   1.352  0.1653  0.1434  0.0461
14306W        W30380  13.693  15.824  12.269  0.2626 -0.2337 -0.1417
14307W        W30381   6.887   9.706  14.639  0.0846 -0.2529 -0.1113
14308W        W30382  11.079   1.951   2.104 -0.5551  0.1156 -0.1076
14309W        W30383   0.780  11.717   5.453 -0.1326 -0.3766  0.0310
14310W        W30384   9.914   6.974  12.710  0.1345  0.1202 -0.2137
14311W        W30385  11.605  12.793  13.502 -0.5077 -0.3718  0.0879
14312W        W30386   2.403   8.690  13.639 -0.2306 -0.1362  0.1870
14313W        W30387  14.773  16.172   2.567 -0.4153  0.0359 -0.0647
14314W        W30388   4.295  17.985   1.009 -0.1650 -0.1647  0.1614
14315W        W30389  10.125  17.034   5.522 -0.0720  0.0273 -0.0220
14316W        W30390   3.214   6.036  13.916 -0.1083 -0.1041  0.1083
14317W        W30391  11.078  16.128   2.309 -0.1673 -0.2342 -0.1271
14318W        W30392   1.458  14.070  12.158 -0.0773  0.1561 -0.3636
14319W        W30393   2.183   6.492   3.319 -0.2363 -0.0796 -0.1524
14320W        W30394  17.115  11.642  13.290 -0.0817  0.0980 -0.1108
14321W        W30395  11.391   4.153  16.351 -0.1282 -0.1222  0.1074
14322W        W30396   4.516  10.187  13.374  0.0150 -0.0444  0.3015
14323W        W30397   5.658  16.351  12.722 -0.0934 -0.1231 -0.0734
14324W        W30398   7.993  13.316  13.197  0.0379 -0.2461 -0.1386
14325W        W30399   2.830   6.515  11.187  0.2154  0.0614 -0.0840
14326W        W30400  13.976  17.184  12.715 -0.2755 -0.6582 -0.1016
14327W        W30401  15.485  12.495   1.906  0.0232  0.0928  0.2094
14328W        W30402  13.554  13.766  15.157 -0.2049 -0.3478 -0.1602
14329W        W30403   1.276   5.929   5.950 -0.2864 -0.0693  0.1952
14330W        W30404   3.792  12.112  15.035  0.2262  0.0177  0.1111
14331W        W30405  14.257   2.678  15.160  0.0978  0.1476  0.0275
14332W        W30406  15.135  10.314   2.329 -0.2151  0.0652 -0.1573
14333W        W30407  13.937   4.945   4.551  0.1372 -0.1158  0.0967
14334W        W30408   3.398  17.323   3.737  0.0074 -0.0294 -0.0544
14335W        W30409   0.160   2.301   1.822 -0.1858  0.0889  0.2622
14336W        W30410   7.656   4.899   4.007  0.1118  0.0202 -0.2766
14337W        W30411  15.306   9.179  11.294 -0.0655  0.0756  0.3842
14338W        W30412   1.288   4.039  11.655  0.2334  0.2366 -0.0399
14339W        W30413  17.050   6.422  13.364 -0.0136  0.5736 -0.0424
14340W        W30414   5.959  17.899  11.173 -0.0196  0.1999  0.3296
14341W        W30415  14.590   1.890   3.163 -0.1221 -0.0782 -0.0349
14342W        W30416   0.743   1.401  13.564  0.0233 -0.0414 -0.1735
14343W        W30417  10.306   2.015   4.412 -0.0975  0.2102  0.0092
14344W        W30418   1.628  12.951   2.291 -0.4335 -0.0234  0.1707
14345W        W30419   6.670   2.118   4.281  0.0567  0.0589 -0.2467
14346W        W30420   8.740   6.088  12.482 -0.1194 -0.0736 -0.5784
14347W        W30421  17.714  14.828  13.043  0.0622  0.4105  0.2488
14348W        W30422  16.940  14.528  13.591  0.0644 -0.4181  0.0037
14349W        W30423   4.269   2.939   1.581  0.1154 -0.0163  0.0960
14350W        W30424   7.364   5.879   5.945  0.0370  0.2155  0.0621
14351W        W30425  11.561   9.836  16.122  0.0874  0.2523  0.1297
14352W        W30426   0.244  10.986  10.571  0.2787 -0.2140 -0.0929
14353W        W30427  15.007  16.525   3.613  0.0859  0.0085 -0.1617
14354W        W30428  10.329   4.641  12.152 -0.0330  0.1043  0.1166
14355W        W30429   6.246  13.527   3.547  0.2896 -0.1607  0.0689
14356W        W30430  16.463  16.557  14.043 -0.1904  0.0782  0.0437
14357W        W30431  12.710  13.950  13.673 -0.4118  0.0468  0.1899
14358W        W30432   6.188   3.024   1.622  0.2302 -0.0016  0.3704
14359W        W30433   8.723   4.814   2.297 -0.0907 -0.1346 -0.0286
14360W        W30434  16.439  16.585  11.669 -0.2165 -0.3570 -0.1059
14361W        W30435  10.370   6.845  12.424 -0.0153 -0.0791  0.2856
14362W        W30436  10.788   5.555   2.036 -0.1779  0.0877  0.2293
14363W        W30437   4.326   5.789   4.690 -0.0132  0.1309  0.1222
14364W        W30438   5.785   9.786   0.234 -0.1704 -0.2759 -0.0754
14365W        W30439  10.306  11.592   1.678  0.3131  0.0405  0.4211
14366W        W30440   6.478   3.485   4.464  0.1994  0.2712 -0.1340
14367W        W30441  11.215  15.833  14.985 -0.1407 -0.2255  0.1564
14368W        W30442  15.811  11.645  14.912 -0.0571 -0.2411  0.0890
14369W        W30443  12.643  10.326  16.027 -0.0422 -0.0489 -0.1053
14370W        W30444   5.425   1.360  11.413  0.0422 -0.1864  0.2344
14371W        W30445   9.452   1.761  11.337 -0.1484 -0.3133 -0.1195
14372W        W30446  16.785   1.905  16.150 -0.1298  0.0502  0.1557
14373W        W30447   1.736   9.881  13.366  0.1631  0.0095  0.5512
14374W        W30448  13.444   8.113   1.546  0.2908  0.0454 -0.0572
14375W        W30449  16.102   1.600  12.671 -0.1783 -0.0885 -0.0075
14376W        W30450  14.085   5.930   3.634  0.1327 -0.0163  0.1487
14377W        W30451   4.043  16.736  15.662  0.1622 -0.1048 -0.1587
14378W        W30452  12.633   2.320   3.823  0.3685  0.4416  0.0982
14379W        W30453   1.884  16.540  15.858  0.0393  0.0672 -0.0260
14380W        W30454   0.456   9.660   2.518 -0.2656 -0.0085 -0.1165
14381W        W30455   4.595  12.736   0.827 -0.0114  0.1316  0.2318
14382W        W30456  11.964   5.663   2.579 -0.0296  0.0631  0.0750
14383W        W30457   9.966  17.544  12.605  0.0446  0.0068 -0.2904
14384W        W30458   7.201   6.396  13.409  0.4920 -0.0402 -0.1217
14385W        W30459  18.105   5.744  12.853 -0.4105 -0.4876  0.1095
14386W        W30460   5.502   4.267  15.146 -0.1600 -0.0620  0.0983
14387W        W30461   2.044  14.642  13.686  0.0985  0.1440  0.0235
14388W        W30462  14.448   2.218   0.382  0.3033  0.2315  0.2950
14389W        W30463   1.406   2.025  13.911 -0.1885 -0.2591  0.1172
14390W        W30464   1.031  15.032   4.571 -0.1384  0.1014  0.2392
14391W        W30465   3.305   5.681   5.420 -0.1135 -0.1054 -0.2741
14392W        W30466   6.087  16.967   0.467 -0.1269  0.1750  0.0611
14393W        W30467   4.030   5.717   0.447 -0.0411  0.1072 -0.0803
14394W        W30468   7.101   0.163  14.904  0.0521  0.2409 -0.1359
14395W        W30469  10.500  18.203   3.201  0.1486  0.1560  0.1392
14396W        W30470  12.971   5.504  13.348 -0.2078  0.2279 -0.3090
14397W        W30471   4.015   5.134   3.966 -0.0617 -0.1062 -0.0313
14398W        W30472   5.291   4.327   5.565 -0.0107  0.0751  0.1685
14399W        W30473  10.092  10.368  13.498  0.1331 -0.1566  0.1835
14400W        W30474   0.813   0.756   1.549 -0.1729  0.0555  0.0634
14401W        W30475   8.849  15.126  12.682  0.0029 -0.1608 -0.0689
14402W        W30476   9.445   5.023   4.868 -0.2296 -0.2292  0.1819
14403W        W30477  10.599  12.383  16.038 -0.1611  0.1918 -0.2729
14404W        W30478   2.005  10.853  15.281  0.3422  0.0479  0.0244
14405W        W30479  13.578  11.455  12.357 -0.0034 -0.2453 -0.2859
14406W        W30480   6.738   0.524   5.177 -0.0264 -0.0048  0.0889
14407W        W30481  16.649  11.526   0.348 -0.3933 -0.0523 -0.1864
14408W        W30482   8.747   6.225   1.314  0.1907  0.1285 -0.2078
14409W        W30483   6.861   0.660  14.117  0.3071  0.1750  0.1165
14410W        W30484   0.580  12.040  15.145 -0.2190  0.0560  0.0176
14411W        W30485   5.226   8.099  15.226  0.0546 -0.0555  0.0800
14412W        W30486   7.348   9.655   2.559  0.1073  0.1311  0.2242
14413W        W30487  12.269  17.946  15.911 -0.0946  0.2413 -0.1577
14414W        W30488  17.094  11.601  14.678 -0.1717  0.2160  0.3915
14415W        W30489   3.871   3.057   1.892 -0.2824  0.2697  0.1262
14416W        W30490  12.999   8.794  12.429  0.2814  0.2529  0.0073
14417W        W30491  11.965   4.063  15.633 -0.0955  0.0868 -0.2943
14418W        W30492   8.335   8.950   2.881  0.1901  0.0680  0.2469
14419W        W30493   5.653   5.090   5.618  0.0501  0.0522 -0.1613
14420W        W30494  10.166  16.219  15.406 -0.0305 -0.1700 -0.1815
14421W        W30495  11.491   9.568  14.563 -0.0163  0.2978 -0.1441
14422W        W30496  13.561   6.671   5.134 -0.1838 -0.2471  0.3629
14423W        W30497  10.961   9.292   1.945 -0.0545 -0.3042 -0.0624
14424W        W30498   1.253  16.193  11.660  0.3494  0.2620  0.1893
14425W        W30499   1.174   4.215   4.402 -0.1602 -0.0850 -0.3424
14426W        W30500  17.843   5.996   1.648 -0.2297 -0.0755 -0.1362
14427W        W30501   5.619  14.522  11.514  0.1652  0.1487 -0.1938
14428W        W30502   6.582   3.030  14.490  0.0168 -0.1348 -0.0163
14429W        W30503   8.846   0.384   3.905  0.3002  0.1313 -0.0811
14430W        W30504   8.850   5.259  16.258  0.1352  0.2589  0.1249
14431W        W30505  15.896   6.943   3.804  0.0178  0.0357 -0.1198
14432W        W30506   9.929   8.977  14.195  0.0021  0.2624 -0.0258
14433W        W30507   3.601   3.466  15.379 -0.1841 -0.2448 -0.2253
14434W        W30508  12.406   6.684  16.318 -0.0230 -0.3793 -0.0471
14435W        W30509   6.757  14.958  15.364 -0.0500  0.1575 -0.0043
14436W        W30510   3.086  10.566   0.424  0.0988  0.0863  0.1041
14437W        W30511   4.991   1.992  15.631 -0.2180  0.4462  0.0592
14438W        W30512  16.326  14.537   4.689 -0.1535  0.0383  0.0836
14439W        W30513   8.034  10.297   3.237 -0.0552 -0.1212  0.2503
14440W        W30514   0.048   4.037   3.855  0.1770  0.1140  0.1071
14441W        W30515   0.132   8.555   3.501 -0.0953  0.0338 -0.0634
14442W        W30516  17.744   5.391   5.200 -0.0841 -0.1203 -0.1087
14443W        W30517  14.472  16.890   4.657 -0.1964  0.2678 -0.1125
14444W        W30518  17.428   3.701   3.720 -0.1737  0.0044  0.1450
14445W        W30519   0.591  13.512  13.115 -0.1280 -0.1911  0.4537
14446W        W30520   9.892   0.605  16.496 -0.3038  0.0732 -0.1267
14447W        W30521   7.005   8.434  12.869 -0.2633 -0.1875  0.0457
14448W        W30522   4.714   5.964   5.338 -0.0358 -0.3040 -0.1736
14449W        W30523  16.599  17.617  13.651 -0.1286 -0.0565 -0.1348
14450W        W30524  15.065  16.557   0.964  0.1140  0.0086  0.3945
14451W        W30525   1.407  17.690   4.021  0.1272  0.1113 -0.1110
14452W        W30526  17.916   7.155  14.595 -0.0176  0.2022 -0.1447
14453W        W30527   8.614   5.409   0.957  0.3533 -0.0499  0.4566
14454W        W30528   8.528   7.031   2.668 -0.0970 -0.0177  0.0876
14455W        W30529  17.955   2.668  15.004 -0.1038  0.0276 -0.1188
14456W        W30530  16.401   2.440   3.549 -0.0033 -0.0841  0.0052
14457W        W30531   6.323  15.376   1.006 -0.0555  0.0929 -0.1648
14458W        W30532   3.054  13.645  13.426 -0.3405 -0.0791 -0.1444
14459W        W30533   3.693   9.909  14.165  0.3386  0.0553 -0.3315
14460W        W30534  16.988   8.094   0.557  0.2508 -0.0438 -0.0105
14461W        W30535  10.702   2.243   3.340  0.0530 -0.2455 -0.0615
14462W        W30536   5.339   1.257   3.884  0.0668  0.0896 -0.2349
14463W        W30537   9.077  17.828  12.798  0.4227 -0.1368  0.2448
14464W        W30538   4.275  15.354  13.685  0.1408 -0.1444 -0.0338
14465W        W30539   8.257   7.946  12.948 -0.1709  0.1571 -0.2742
14466W        W30540   8.761  12.477   3.484  0.0838  0.2034 -0.4972
14467W        W30541  11.967   6.338   4.144  0.1365  0.2510 -0.2513
14468W        W30542  13.015   7.077   3.806 -0.0606  0.0576  0.0772
14469W        W30543  11.095   6.274  12.530 -0.0836 -0.0114  0.1883
14470W        W30544   4.128   0.944   1.626  0.1264  0.0321 -0.1243
14471W        W30545   8.477   6.396   0.305  0.1076  0.2051  0.4376
14472W        W30546   0.149   4.582  12.640 -0.0051  0.0781  0.3523
14473W        W30547   0.018   0.487   0.329  0.0307  0.0603 -0.3897
14474W        W30548   5.104   4.377   1.208  0.1017  0.1387 -0.0336
14475W        W30549   9.286   8.726  13.059 -0.2613 -0.1598  0.1281
14476W        W30550  14.086  15.421   0.677  0.0066 -0.0064  0.0574
14477W        W30551  18.153  14.564   4.790  0.2151 -0.0866  0.5550
14478W        W30552  10.473   5.299  16.360  0.0558  0.3120  0.3674
14479W        W30553  13.021   3.993   0.225  0.3358  0.0324 -0.1452
14480W        W30554   6.788   1.561  14.113 -0.1801  0.1071  0.1879
14481W        W30555   7.989   2.878  16.176 -0.0935  0.2280  0.3453
14482W        W30556   0.208  14.940   4.157 -0.1691  0.1524 -0.1340
14483W        W30557  13.367   1.742  12.691  0.1442 -0.0416 -0.1014
14484W        W30558  17.811  12.999   3.237 -0.4485 -0.0587  0.1568
14485W        W30559  12.341   3.563   1.503 -0.0760 -0.0208  0.0150
14486W        W30560  13.673  18.175  16.089  0.2204  0.2795 -0.0989
14487W        W30561   7.759   8.080  14.876 -0.0495 -0.0487 -0.0787
14488W        W30562   4.625  10.449   4.993  0.2327  0.2877  0.2446
14489W        W30563  15.188  16.049   1.593  0.1900  0.0379  0.0634
14490W        W30564  16.532   6.407   1.544 -0.2132  0.0567  0.1286
14491W        W30565   6.116  16.448   4.420  0.1062 -0.0089 -0.0572
14492W        W30566  17.117   7.205   0.033  0.0012 -0.1358  0.0794
14493W        W30567   1.599   3.813  11.297 -0.2162  0.1203  0.2130
14494W        W30568   2.273  16.934   1.106  0.1569 -0.0190 -0.1800
14495W        W30569  12.070  13.091   1.234  0.2556  0.2570  0.0805
14496W        W30570   8.732  13.132  16.522  0.1055  0.0535 -0.3393
14497W        W30571   7.948   3.834   2.779 -0.0422 -0.1932 -0.1446
14498W        W30572  14.666   2.181   4.012 -0.1538 -0.0846 -0.1119
14499W        W30573   7.796   8.701   5.018 -0.0040 -0.3161 -0.0865
14500W        W30574   9.164   8.349  14.093  0.0427  0.1798  0.0550
14501W        W30575  13.615   1.887  14.774  0.1921  0.0488 -0.1465
14502W        W30576  14.725   3.056  11.360  0.1016 -0.0612  0.0991
14503W        W30577   9.117   1.103   3.343  0.2397 -0.0092 -0.0150
14504W        W30578   0.503  16.304  12.082 -0.1906  0.3655 -0.1479
14505W        W30579  14.394  13.649  14.804 -0.0594 -0.2218  0.0040
14506W        W30580  16.749  16.874   4.098 -0.0830 -0.0666  0.1187
14507W        W30581  17.888  15.747  11.670 -0.3987 -0.2499 -0.3144
14508W        W30582  17.204   0.844  13.565  0.3552 -0.0208 -0.0779
14509W        W30583   1.226  10.218  16.371  0.2016 -0.1342  0.3795
14510W        W30584   5.821   5.186  15.089 -0.0402 -0.0920 -0.1209
14511W        W30585  17.260   8.462  11.615  0.1571  0.0131 -0.1318
14512W        W30586   3.871  14.744  15.841  0.1420  0.0803 -0.1829
14513W        W30587   2.589   8.973   2.074 -0.0137  0.0215  0.2247
14514W        W30588  15.983   1.381   3.911 -0.1066  0.0209 -0.0773
14515W        W30589   8.043  15.228   5.225  0.0618 -0.3451  0.2398
14516W        W30590  11.650  17.017  15.085  0.0712  0.1624  0.0039
14517W        W30591   5.475  13.953  16.078 -0.2559 -0.1527 -0.2543
14518W        W30592   4.486  16.149  14.649  0.0704 -0.1543  0.0171
14519W        W30593   2.536  13.861   5.123  0.0027  0.0775 -0.3021
14520W        W30594  10.910  11.358   0.678 -0.0104  0.0846  0.2941
14521W        W30595  12.580   0.931  14.470 -0.1244 -0.2331  0.1731
14522W        W30596   0.629  16.016   1.452 -0.1150 -0.1189  0.2723
14523W        W30597  14.594  11.697   5.209 -0.2006 -0.1629 -0.2577
14524W        W30598   1.674  15.549  12.520  0.3147  0.2794 -0.2701
14525W        W30599  14.690   3.194  12.975 -0.0911  0.0017 -0.0849
14526W        W30600   6.379   2.217   1.438  0.2485  0.1649  0.3761
14527W        W30601  12.356  14.869   5.864  0.0570 -0.0752 -0.2792
14528W        W30602  12.241  17.413   2.837 -0.2146  0.0900  0.0239
14529W        W30603  12.376  16.013   4.541  0.0030 -0.6152 -0.1221
14530W        W30604   5.201   7.289  15.513 -0.0817  0.0091 -0.2595
14531W        W30605   2.416   0.786   4.564 -0.3119 -0.1290  0.0485
14532W        W30606  15.312  18.171  11.159 -0.0598 -0.0442  0.0668
14533W        W30607  17.665  12.454   4.036 -0.0942 -0.2277 -0.1276
14534W        W30608  10.890  12.065  13.352  0.3055 -0.2105  0.2852
14535W        W30609   2.739  10.461  16.341  0.3284 -0.1258 -0.1101
14536W        W30610  11.180   5.042   3.642 -0.0054 -0.1523  0.0734
14537W        W30611  15.862  14.531  12.732 -0.0393 -0.0129  0.1518
14538W        W30612   1.152  11.591   0.298  0.0925  0.0101  0.0462
14539W        W30613   7.882   9.993  14.943 -0.0030 -0.0952 -0.2714
14540W        W30614   3.304  10.062  14.391  0.0796 -0.1104 -0.0693
14541W        W30615  17.623  15.300  11.623 -0.0124  0.0957 -0.1248
14542W        W30616   6.659   9.698   0.447 -0.1192 -0.1022  0.0723
14543W        W30617  17.807   5.722  13.317  0.2789 -0.3601  0.0597
14544W        W30618   4.449   2.289  11.657  0.1434  0.0467 -0.1371
14545W        W30619   1.704   7.431  14.829  0.3264 -0.0490 -0.1474
14546W        W30620  11.377   9.871   3.211  0.4202  0.2249 -0.3224
14547W        W30621  14.217   7.064   4.459 -0.0399 -0.1774  0.1667
14548W        W30622  10.209  14.187   6.034 -0.0466 -0.0586  0.1032
14549W        W30623   2.616  16.612   1.916 -0.0528 -0.0634  0.0620
14550W        W30624   8.636  12.776  16.225 -0.2040  0.3172  0.0348
14551W        W30625  14.063   0.885   2.236 -0.0155  0.0272 -0.2652
14552W        W30626   6.588  10.016   4.700 -0.0549 -0.0311  0.0028
14553W        W30627  13.429   8.818   2.289  0.1611  0.2150 -0.4622
14554W        W30628  15.488   8.477  12.947  0.1467  0.1243  0.1327
14555W        W30629  12.972   2.609   2.135  0.2186 -0.2516  0.0278
14556W        W30630   3.278   4.870   1.515 -0.0218  0.2015  0.0031
14557W        W30631   9.562   5.723  12.356 -0.2059  0.0554 -0.0629
14558W        W30632  13.880  11.117   3.840  0.0191 -0.2033 -0.0314
14559W        W30633   7.841   8.613  11.485 -0.2432 -0.0636  0.1879
14560W        W30634   4.085  11.372   3.956  0.1055 -0.2780 -0.0825
14561W        W30635  12.746  16.194   2.849  0.1289 -0.0775  0.1962
14562W        W30636  11.748  15.135  13.946 -0.1262  0.0223  0.1787
14563W        W30637  13.911   0.835   4.278  0.2918  0.3366 -0.2135
14564W        W30638  12.327   7.667   4.856 -0.0610 -0.1481  0.2467
14565W        W30639  12.288   9.852   3.513  0.2001  0.0541 -0.1482
14566W        W30640  13.891  17.864  13.432  0.1905  0.1815  0.0343
14567W        W30641  13.373  13.082  13.923  0.2331  0.1086 -0.0037
14568W        W30642   5.466  13.796  12.825  0.1153  0.0060  0.1411
14569W        W30643   6.418   7.433  12.110 -0.0299 -0.1945  0.0247
14570W        W30644   6.892  16.123  15.031 -0.2867  0.0697 -0.2641
14571W        W30645  15.611   7.321  14.344 -0.0363  0.3232  0.0102
14572W        W30646   0.344   5.228   3.675  0.2472 -0.1454 -0.1408
14573W        W30647  13.617   5.647  12.545  0.0015  0.0090  0.2490
14574W        W30648   2.687   3.548  15.124  0.1952 -0.2260 -0.0654
14575W        W30649   0.204  15.889   1.722  0.1616 -0.1388  0.1349
14576W        W30650   0.129  14.909  10.697  0.2428 -0.2104 -0.2757
14577W        W30651   1.954   8.523  11.798 -0.5321 -0.0770  0.2118
14578W        W30652   1.076   7.330   4.494 -0.1706 -0.0125  0.1249
14579W        W30653   3.516   6.125  14.388 -0.0562  0.2018  0.3684
14580W        W30654   1.706   0.016  15.316  0.0929  0.2697  0.3996
14581W        W30655   4.471  12.949   2.729  0.1831  0.3815  0.2334
14582W        W30656  10.539   1.986  15.734 -0.1790  0.0305  0.0912
14583W        W30657   9.432  12.805   6.424 -0.2124  0.2315  0.0194
14584W        W30658  14.432   2.103   1.407 -0.1490 -0.1286  0.0065
14585W        W30659  11.881  13.842   1.503 -0.0790  0.5304  0.1220
14586W        W30660   0.948  15.896   2.521 -0.2606 -0.1701 -0.1688
14587W        W30661   8.438   4.052  13.865 -0.1273  0.1775  0.2487
14588W        W30662   6.366   8.948   3.089 -0.1675 -0.0561  0.5513
14589W        W30663   7.648  10.172  14.185  0.0568 -0.2424  0.0410
14590W        W30664  17.222  14.611   2.834  0.2592  0.0306  0.0798
14591W        W30665  10.540   0.729   2.321  0.0387  0.0188  0.0294
14592W        W30666  13.264  17.397   2.363  0.2090  0.0367  0.3089
14593W        W30667   0.161   3.207   2.813  0.0002  0.3549 -0.2249
14594W        W30668   2.361  17.145   2.800 -0.0600  0.0935  0.1663
14595W        W30669  13.649  14.268   5.115 -0.0445 -0.1739  0.1302
14596W        W30670   2.183  12.919  13.762 -0.0569  0.5160  0.2787
14597W        W30671  12.677   8.524   2.440  0.2823  0.2855  0.0509
14598W        W30672   8.559  13.520  11.483  0.2503 -0.1743 -0.1512
14599W        W30673  17.529   2.825  14.230  0.4784  0.0751  0.0541
14600W        W30674   9.770   0.787  14.586  0.0111  0.2826  0.2290
14601W        W30675  11.110   1.287  15.858 -0.0238  0.1101 -0.1426
14602W        W30676  16.432  17.961   2.556  0.0405  0.0045  0.2708
14603W        W30677   5.953  16.066  13.920  0.2651  0.0174  0.1169
14604W        W30678  14.257   8.631   1.289  0.2980 -0.0531  0.1144
14605W        W30679   5.875  10.203   0.492 -0.0248 -0.2911  0.0984
14606W        W30680  11.971  17.335   6.344 -0.1594  0.3683 -0.0470
14607W        W30681  12.507   7.929  15.777  0.1822 -0.0774 -0.0561
14608W        W30682   3.898  14.971  12.484  0.0689 -0.2703 -0.1284
14609W        W30683   1.381   8.462   2.493 -0.0101  0.2165 -0.2499
14610W        W30684  11.942   8.106   0.538  0.1184 -0.1522 -0.2655
14611W        W30685  10.129   9.310  11.702 -0.3140 -0.0852 -0.0578
14612W        W30686  12.818  10.008  14.837 -0.2945  0.0320 -0.0688
14613W        W30687   0.664  11.849   2.217 -0.1257  0.1870 -0.1224
14614W        W30688   1.441   7.271  11.654 -0.1768 -0.1526 -0.0836
14615W        W30689  17.852   8.686  11.532  0.3487 -0.3290 -0.1350
14616W        W30690   4.170  16.885   4.754  0.1003 -0.0655  0.0623
14617W        W30691   9.416  12.353  15.703 -0.1338  0.0044 -0.2041
14618W        W30692   4.431   2.688   0.339  0.2952  0.6352  0.0641
14619W        W30693  14.383   2.019   2.748 -0.1324  0.1798 -0.1708
14620W        W30694  13.364  12.786  15.154  0.0024  0.3921  0.0025
14621W        W30695   8.802   3.475   3.843 -0.3127  0.0455 -0.0014
14622W        W30696   1.405  11.140   2.830 -0.0233  0.3339  0.0144
14623W        W30697  17.761   3.555   3.012 -0.1043 -0.1949 -0.1491
14624W        W30698  12.232   3.979   1.265 -0.1153 -0.0177  0.2290
14625W        W30699   7.852  14.019   5.285  0.3897  0.2015 -0.3200
14626W        W30700  14.603  13.836   1.231  0.2755  0.0892  0.1108
14627W        W30701   3.177  11.544  11.310  0.0798 -0.2180 -0.3482
14628W        W30702   6.795   4.511  13.139 -0.1390 -0.3387  0.2603
14629W        W30703   5.744  15.079   3.695 -0.1684  0.0750 -0.0853
14630W        W30704   2.160  12.190   3.118  0.0221  0.1516 -0.0236
14631W        W30705   1.268   4.751   2.631 -0.1770  0.1481  0.2201
14632W        W30706  12.006   4.363  13.010  0.0033  0.1783  0.1680
14633W        W30707  14.480   7.647   2.618  0.1366 -0.0830 -0.3277
14634W        W30708   4.994  13.321   4.965  0.0252  0.2071 -0.0909
14635W        W30709   6.128   2.662  15.582 -0.1700  0.3057  0.1456
14636W        W30710  17.393  16.607  12.293 -0.1381 -0.0169  0.0701
14637W        W30711  10.054   7.991   0.693 -0.1589  0.0103 -0.2114
14638W        W30712   1.953  16.450  12.180 -0.0716  0.2009 -0.0919
14639W        W30713   2.028   5.870  12.312 -0.0340 -0.2484 -0.4308
14640W        W30714   0.157   5.310   5.544 -0.0293  0.2262  0.3201
14641W        W30715  12.643  14.183   2.503  0.0232 -0.2242 -0.1393
14642W        W30716  12.888   6.744   3.309  0.0874  0.1807 -0.1435
14643W        W30717   2.961  10.361  13.365  0.2169  0.0484 -0.3454
14644W        W30718  16.926  11.064  14.749 -0.0564  0.2019 -0.0080
14645W        W30719  18.191   8.647  12.814  0.1334 -0.1520 -0.3715
14646W        W30720  16.843   4.500   3.857  0.0208 -0.1646 -0.0397
14647W        W30721   2.773   0.633  12.598 -0.3035  0.0677 -0.1529
14648W        W30722  15.483   7.604  11.643  0.2318 -0.1436  0.0572
14649W        W30723  13.336   3.353   0.956 -0.2670 -0.0973 -0.1936
14650W        W30724   1.004  16.049  11.245 -0.0780  0.1491 -0.0204
14651W        W30725   8.410   3.613   4.592  0.2469  0.2151  0.2113
14652W        W30726  11.701  10.025  14.434  0.0025 -0.1704  0.4471
14653W        W30727  16.273   4.161  11.802 -0.0918  0.1069 -0.0099
14654W        W30728   7.990  13.752   4.466 -0.3176  0.1448  0.2797
14655W        W30729  10.826   1.404  13.544  0.0433  0.1224 -0.0242
14656W        W30730   3.891  11.292  15.254  0.1431 -0.2232 -0.1689
14657W        W30731  16.180  16.996  14.273  0.0836  0.2864 -0.2406
14658W        W30732   7.020  18.194  15.333 -0.2022  0.2463  0.3714
14659W        W30733  13.867   6.329   1.242 -0.0372 -0.0716  0.1657
14660W        W30734  13.348  13.536   2.573 -0.0627 -0.1860 -0.0257
14661W        W30735  16.888   0.329   1.115  0.2122 -0.0831  0.2491
14662W        W30736  13.975  14.982  13.781  0.1470  0.0976  0.0196
14663W        W30737   2.210   1.835  16.545  0.0715  0.3452  0.0911
14664W        W30738  18.031   8.710  12.098 -0.0293  0.0702  0.1744
14665W        W30739   2.043   6.076   1.609  0.1925 -0.0742  0.1011
14666W        W30740   7.210  12.169   5.956 -0.1745 -0.2463 -0.1663
14667W        W30741   9.321  17.636  15.877  0.2354  0.0041  0.3065
14668W        W30742  11.230   5.563   0.224  0.0345 -0.1027 -0.2007
14669W        W30743  13.078  15.289  15.574  0.1870  0.3056  0.0192
14670W        W30744   0.791   7.504   3.092 -0.2580 -0.0064 -0.2337
14671W        W30745  11.550  14.913   3.436 -0.0992 -0.1968  0.1441
14672W        W30746   4.595  16.944   5.933  0.1342  0.2275 -0.3863
14673W        W30747  14.285   1.892   2.254  0.2254 -0.1620  0.0975
14674W        W30748   2.373   2.860   2.433 -0.1919  0.3119 -0.2407
14675W        W30749  16.732   5.236  13.395  0.1233 -0.0101  0.0699
14676W        W30750  17.547   1.988  13.182  0.2556  0.1148  0.0196
14677W        W30751  12.422  15.922   1.847 -0.2523 -0.1709  0.0955
14678W        W30752   6.051  12.956   1.640  0.1394  0.1615 -0.0952
14679W        W30753   7.741   5.215   1.051  0.0624 -0.1263  0.3005
14680W        W30754   6.919   9.786  15.123 -0.2287  0.0223  0.1692
14681W        W30755  17.829  10.476  12.986  0.0722 -0.0301  0.1534
14682W        W30756   8.437  10.893  13.269  0.0553  0.0273 -0.0444
14683W        W30757  15.633   5.057  11.952  0.0460  0.0664  0.2573
14684W        W30758   6.805   8.563  11.837  0.2787  0.1690 -0.1812
14685W        W30759  17.114  12.346  15.038  0.2331 -0.0111  0.1026
14686W        W30760  14.759   9.170   5.692  0.1176  0.1328  0.1635
14687W        W30761  12.943   4.569   2.444  0.0625 -0.0064 -0.0317
14688W        W30762  11.613  16.712   5.695 -0.2770  0.0231  0.0635
14689W        W30763   4.621   5.290  13.258 -0.4212 -0.0179 -0.1491
14690W        W30764  17.257   6.327  14.385 -0.2243  0.1042  0.0739
14691W        W30765  12.054   8.988  16.182  0.0108  0.1985  0.1416
14692W        W30766  11.804  17.111  16.131 -0.0607 -0.0976  0.2091
14693W        W30767   3.718  13.520   2.693 -0.1323  0.1348  0.5398
14694W        W30768   3.680   5.315  16.341 -0.2307 -0.1864  0.0589
14695W        W30769  11.469   9.403   2.924 -0.0761 -0.0061  0.0229
14696W        W30770  13.515  16.489  14.133 -0.0414  0.0972  0.2379
14697W        W30771  14.688   0.324   4.514 -0.1359  0.0138 -0.0837
14698W        W30772   3.746  17.600   3.932  0.3598  0.2810 -0.0363
14699W        W30773   1.798   7.392   2.309  0.1349  0.4054 -0.1367
14700W        W30774  17.535   0.335  11.414  0.0551 -0.1226 -0.2361
14701W        W30775  11.853  14.444   2.709  0.0426 -0.0643 -0.0423
14702W        W30776   2.829  10.378   1.766  0.2273  0.1338  0.0050
14703W        W30777  18.125  12.920   5.708 -0.1263  0.1074 -0.1696
14704W        W30778   0.257  15.075   5.167  0.0277 -0.0470 -0.1812
14705W        W30779   8.727  11.835   4.402 -0.0514  0.5147 -0.1122
14706W        W30780   4.341   8.520  13.067 -0.1289 -0.2778 -0.2350
14707W        W30781   5.134   5.633  12.681  0.0580  0.0143  0.2019
14708W        W30782   7.943   1.793   2.100 -0.0070  0.0976 -0.0315
14709W        W30783  17.653   3.697  14.147 -0.1632  0.2473  0.2180
14710W        W30784   6.666  14.642  15.772  0.0481  0.2936  0.2233
14711W        W30785   0.488  13.087   4.408  0.0702 -0.0005 -0.1912
14712W        W30786   2.437  13.602  13.091 -0.0974 -0.1491  0.2261
14713W        W30787   1.792   1.740   2.554 -0.1641 -0.2755  0.2552
14714W        W30788  14.395   9.717   5.067  0.1862  0.0542  0.0343
14715W        W30789   6.404  16.102   1.991  0.1123 -0.1321 -0.0774
14716W        W30790  13.846   1.519  13.242  0.0036 -0.3833 -0.2676
14717W        W30791  16.024   4.786  13.073 -0.0677  0.3096  0.0803
14718W        W30792   1.478   2.108  11.364 -0.1431 -0.4542 -0.3058
14719W        W30793   0.840  13.059   1.201 -0.4004  0.2457  0.0275
14720W        W30794   1.876  11.905   5.292  0.2931 -0.2133  0.1872
14721W        W30795   2.919   6.346   1.272 -0.0151 -0.1307 -0.0379
14722W        W30796   7.354  16.593   0.675  0.0205 -0.1006 -0.0294
14723W        W30797  14.991   6.480   0.603 -0.1044 -0.0391 -0.2533
14724W        W30798   9.286  10.524  15.325 -0.0775  0.0881  0.0372
14725W        W30799   7.302   2.317   2.781  0.1325  0.1663  0.2692
14726W        W30800   2.904  15.035  12.398 -0.1480 -0.1420  0.2303
14727W        W30801  10.276  17.133  14.335 -0.0033 -0.2084  0.0282
14728W        W30802  17.192  18.115  13.446  0.3618  0.1319  0.3055
14729W        W30803  13.467  16.155   4.577  0.2024  0.0581  0.1035
14730W        W30804  15.341   2.944  12.258  0.1141  0.2072  0.0736
14731W        W30805   7.915  17.140  12.207 -0.1448  0.0922  0.1655
14732W        W30806   7.279  17.900  11.621  0.0082  0.1629 -0.1783
14733W        W30807  16.430  10.991   2.473  0.1681  0.0145 -0.1777
14734W        W30808  18.139  13.710  14.274 -0.2245 -0.1033  0.0554
14735W        W30809   9.280  17.161  15.000  0.3356 -0.1821 -0.3447
14736W        W30810   8.161  13.561   5.325 -0.4128  0.0547 -0.0518
14737W        W30811   3.052  17.958   3.107 -0.0714  0.4242  0.0299
14738W        W30812  15.167   8.277   1.253 -0.0020 -0.3498 -0.0985
14739W        W30813  13.342  14.087   4.161 -0.1056  0.0450  0.0921
14740W        W30814  15.759  16.527   3.021 -0.0500 -0.0166 -0.2162
14741W        W30815  13.808  17.550  14.678 -0.3869 -0.0697  0.3970
14742W        W30816  11.206  15.251   2.595 -0.0897  0.0987  0.3764
14743W        W30817  16.503   6.257  13.559 -0.2169 -0.1287  0.0515
14744W        W30818  18.076   4.554   0.513  0.1676 -0.1632  0.3628
14745W        W30819   8.275  15.415  13.093  0.1034 -0.3298  0.1462
14746W        W30820   8.477   0.064  15.914  0.0619 -0.2732  0.1285
14747W        W30821  17.819   2.152  14.414  0.0208 -0.0224 -0.3282
14748W        W30822   2.599   9.917   5.854  0.1056 -0.1065  0.0279
14749W        W30823  12.263   4.841  13.248  0.1065 -0.0390  0.3174
14750W        W30824  11.569  16.837   1.268  0.0281 -0.3030  0.0032
14751W        W30825  13.910   2.607  11.270  0.0617 -0.1674  0.1451
14752W        W30826   2.323  11.137  12.631  0.5076 -0.1499  0.1438
14753W        W30827  14.974   3.288   0.416 -0.0358  0.0791  0.0302
14754W        W30828  14.521   9.804  14.786 -0.2259 -0.0390 -0.1596
14755W        W30829  14.360   0.436  13.243 -0.1781  0.0453  0.1922
14756W        W30830  15.667   5.201  13.336 -0.1715  0.1008  0.0742
14757W        W30831   6.685  14.586  14.577  0.2996  0.1121  0.0776
14758W        W30832   6.741   1.531  14.633 -0.1331 -0.4220  0.0894
14759W        W30833  15.656   4.414   2.182 -0.3587  0.0502 -0.3161
14760W        W30834   4.714   0.542   3.656  0.0068  0.0070 -0.1273
14761W        W30835   4.217  14.583   2.181  0.1033  0.1947 -0.0625
14762W        W30836  16.972   0.176  13.797 -0.1817  0.0782 -0.3079
14763W        W30837  11.358   9.651  15.721  0.0858  0.0068 -0.1723
14764W        W30838   5.030   1.343   5.314 -0.2782 -0.2268  0.0712
14765W        W30839   4.275  12.766  14.559 -0.1740  0.1721 -0.1836
14766W        W30840   9.401  16.002  15.474 -0.0667 -0.0688 -0.0315
14767W        W30841   2.007  13.471  14.862 -0.0589 -0.1220 -0.4604
14768W        W30842   5.478   8.345  14.427 -0.2939  0.0039 -0.5117
14769W        W30843   2.009  12.305   2.157 -0.2619  0.1568 -0.0150
14770W        W30844  15.800   6.197  14.181 -0.0757 -0.3275 -0.1080
14771W        W30845   0.901  17.937   2.399 -0.0292 -0.1253  0.0694
14772W        W30846  17.061   3.703   2.301  0.0744  0.0654 -0.2012
14773W        W30847  18.170   7.365  15.895 -0.1850  0.3287  0.3835
14774W        W30848   3.549  16.320   1.725 -0.1418  0.2282  0.1726
14775W        W30849  17.235   9.194   4.663 -0.1338  0.2577  0.0681
14776W        W30850  10.520  16.650   0.808 -0.0401  0.2091  0.2514
14777W        W30851   0.777   0.936  14.864 -0.0330 -0.0555  0.0079
14778W        W30852  11.861  16.629   1.619  0.1119 -0.0659 -0.2198
14779W        W30853  14.498   0.640   1.172  0.0100 -0.0666  0.2728
14780W        W30854  17.878   0.005  14.578 -0.2841 -0.3378 -0.0376
14781W        W30855  13.805  12.879  14.235 -0.0023 -0.0603 -0.3876
14782W        W30856   8.346  13.740  11.102  0.0655 -0.3088  0.0202
14783W        W30857  15.319  10.803  14.108  0.0401 -0.1690 -0.0843
14784W        W30858   1.825   2.860  13.214 -0.0844 -0.2587 -0.0126
14785W        W30859   8.062   1.845   0.486 -0.2735 -0.3354  0.0156
14786W        W30860   9.063  12.740  15.499  0.1996  0.0076  0.1606
14787W        W30861   4.813   0.242   4.193 -0.1724 -0.1426 -0.1119
14788W        W30862   4.693   8.524  15.407  0.1189 -0.2378  0.1706
14789W        W30863   6.862  15.578   1.296 -0.3196  0.1158  0.2124
14790W        W30864   2.940  12.700  13.309 -0.3010 -0.0065  0.1221
14791W        W30865   1.418   1.077   4.219  0.2235 -0.0435  0.0088
14792W        W30866  13.417   9.559  16.215 -0.0764  0.0212 -0.0616
14793W        W30867  14.575  15.083  15.948 -0.2195  0.0408  0.1984
14794W        W30868   8.590  16.621  15.469  0.3876 -0.1723  0.1857
14795W        W30869  10.651   5.960  15.760 -0.2569 -0.2042  0.0572
14796W        W30870  13.476   3.716   2.064  0.0567 -0.4238  0.2446
14797W        W30871  14.195  14.928   0.466  0.0704  0.3034 -0.0558
14798W        W30872  11.185   7.030  15.735  0.0510  0.2981  0.2037
14799W        W30873   2.195   7.362  15.163  0.1496  0.0435 -0.1640
14800W        W30874   3.853   2.759  11.667 -0.3154  0.2923 -0.1339
14801W        W30875   3.312   7.094  11.655  0.1799  0.1208  0.3759
14802W        W30876   0.661   5.993   3.877 -0.2339 -0.0659  0.2116
14803W        W30877  13.590   7.003  14.301  0.2017 -0.4392 -0.1954
14804W        W30878  15.579  10.971   6.548  0.0143 -0.1816  0.0554
14805W        W30879  16.230  17.509  14.849  0.1742 -0.1475 -0.3672
14806W        W30880   4.936  13.803   3.274 -0.4278 -0.0887 -0.2236
14807W        W30881  13.039   8.990   0.617 -0.1324  0.0909 -0.0027
14808W        W30882   8.949   0.315   3.416 -0.3530 -0.2615  0.2602
14809W        W30883   6.758   6.774   4.593  0.1655 -0.1021 -0.4860
14810W        W30884  15.800  18.123  12.346  0.1477 -0.0768  0.2179
14811W        W30885   5.583  13.556   2.765 -0.0116  0.2756  0.1242
14812W        W30886   9.156  15.367   3.904  0.0938 -0.3467  0.2405
14813W        W30887  17.382   2.597   3.049  0.0488  0.1252 -0.1982
14814W        W30888  13.933   9.706   0.579  0.2214  0.0485 -0.0296
14815W        W30889   6.030   2.266   4.956  0.1213  0.3881 -0.3591
14816W        W30890  12.545   4.511   1.462  0.2107  0.1341 -0.1767
14817W        W30891  18.065   8.063   2.329 -0.2803 -0.1821  0.1037
14818W        W30892  18.081  17.333  11.931  0.0246  0.1986 -0.1650
14819W        W30893  14.760  10.570  15.426  0.5376 -0.2833  0.3377
14820W        W30894  16.038   8.339  14.281 -0.4410  0.1773 -0.3910
14821W        W30895  13.908  12.388   4.986 -0.1031 -0.1287  0.0399
14822W        W30896  15.412  13.175   0.460  0.1619 -0.0724 -0.1241
14823W        W30897   4.071   0.222   1.066  0.0224  0.0019  0.2961
14824W        W30898   2.939  17.155  12.005  0.1207  0.3509  0.0954
14825W        W30899   2.054  12.324   0.364 -0.0897 -0.0404 -0.4452
14826W        W30900   9.892   6.692  15.886 -0.0759  0.0728 -0.0800
14827W        W30901  15.586  10.847   1.474  0.4634  0.3484 -0.3739
14828W        W30902  15.298   9.165   3.029  0.2314  0.0496 -0.2057
14829W        W30903  17.861  11.079   1.501 -0.1629 -0.2817 -0.0010
14830W        W30904  13.734   4.978  12.028  0.0198 -0.0685 -0.0267
14831W        W30905   3.011  14.432  10.894 -0.0253  0.2313  0.0535
14832W        W30906   6.025  17.294   1.314  0.1579  0.0441 -0.0199
14833W        W30907   7.186   6.262   0.854 -0.2829 -0.0641  0.1452
14834W        W30908   0.669   5.788   1.090  0.0500 -0.0493  0.0325
14835W        W30909  11.061   1.477   4.502 -0.0814 -0.1482  0.0555
14836W        W30910  13.495   8.303  13.631 -0.0020 -0.0297  0.2005
14837W        W30911   7.640   7.326   0.676 -0.1452  0.0329 -0.1327
14838W        W30912   6.057   5.400   2.833 -0.0203 -0.0430 -0.4273
14839W        W30913   8.902   3.398   5.457  0.1099  0.3949  0.1861
14840W        W30914  16.348  14.130   0.211 -0.3168  0.0624 -0.1149
14841W        W30915   3.213  12.054  15.727  0.2688 -0.0897 -0.0561
14842W        W30916   7.269   1.173   5.292 -0.1465 -0.2579 -0.1560
14843W        W30917  16.872   8.215  12.554  0.1512 -0.1590 -0.0192
14844W        W30918   2.272  10.471  16.420  0.1263  0.0964 -0.1216
14845W        W30919  10.798  15.268   1.482 -0.0491 -0.1163 -0.2210
14846W        W30920   2.457  13.813  11.439  0.2529  0.0204  0.0014
14847W        W30921  17.892   3.406  11.992  0.0527  0.2647 -0.2810
14848W        W30922   5.263  16.016   5.110  0.0987  0.0681 -0.0131
14849W        W30923  13.709   0.875   2.636  0.1492 -0.2749 -0.0393
14850W        W30924  17.155   7.852  14.309  0.3212  0.0206 -0.1821
14851W        W30925   5.889   4.785  15.372 -0.1768  0.2830  0.0514
14852W        W30926   2.879  15.542  11.046  0.1398 -0.1344  0.0355
14853W        W30927   5.265  17.743  16.160 -0.1771 -0.1562 -0.4218
14854W        W30928   7.282   4.567  14.321  0.1043 -0.0408 -0.3032
14855W        W30929   8.835   8.430  16.391  0.2534  0.4488 -0.4260
14856W        W30930   2.259   5.602  11.366 -0.2161 -0.1005 -0.0762
14857W        W30931   1.127  13.330  16.069  0.2124 -0.1758 -0.0747
14858W        W30932  10.900   8.272   0.725  0.2476  0.2434  0.2330
14859W        W30933   8.057  16.940   3.510  0.3836 -0.0395 -0.1853
14860W        W30934  16.507   8.231  12.207  0.0571 -0.2187  0.1286
14861W        W30935   1.667   5.548   2.436 -0.0940 -0.2172 -0.1794
14862W        W30936   7.537  12.501   4.041  0.1561 -0.1090  0.4095
14863W        W30937   9.028   0.860   4.990  0.2066 -0.3425 -0.0434
14864W        W30938  12.664   2.806   2.900 -0.1770  0.4778  0.1470
14865W        W30939  14.162  11.885   2.100 -0.1725  0.1432  0.2957
14866W        W30940   4.291  16.513   4.414  0.1598 -0.1627  0.2536
14867W        W30941  12.583   2.233  11.826  0.4469  0.0865 -0.1242
14868W        W30942  16.177  12.190  16.199  0.1668 -0.3307 -0.1305
14869W        W30943   2.292   3.499   3.876 -0.1566 -0.1817  0.0185
14870W        W30944   9.142  11.229  15.393 -0.1819 -0.0424  0.3312
14871W        W30945  11.181  11.406   4.004  0.0468  0.3394 -0.1193
14872W        W30946  11.697   1.004   0.829 -0.1994 -0.0263  0.2175
14873W        W30947   3.519  16.397  11.289 -0.0992 -0.0535 -0.1357
14874W        W30948  12.425   5.081  12.771 -0.1197  0.0096  0.1918
14875W        W30949   4.582  14.883  13.831 -0.2722 -0.2889  0.0958
14876W        W30950   1.580   5.030  11.878 -0.4237  0.0024  0.0273
14877W        W30951   4.702   5.368  15.512  0.1605  0.0119 -0.2415
14878W        W30952   2.985   9.915  13.950 -0.2669  0.0220  0.0460
14879W        W30953   7.739   1.690   1.415  0.3931 -0.2656 -0.2129
14880W        W30954  16.233   5.725   4.242  0.0846 -0.2022  0.2426
14881W        W30955   0.306  11.943   6.302 -0.0761 -0.1925 -0.0804
14882W        W30956   3.917   3.190   5.560 -0.0010 -0.2919 -0.2349
14883W        W30957   8.700   1.988  14.211 -0.2153  0.0560  0.0266
14884W        W30958   2.497   6.564  11.604 -0.4150 -0.0560 -0.0442
14885W        W30959   2.111  17.889  12.887  0.0181  0.2770 -0.0557
14886W        W30960   7.649  11.012  13.141 -0.2747 -0.1830  0.1931
14887W        W30961  16.209   9.446   3.174  0.0428  0.2884 -0.3918
14888W        W30962  15.160  15.844  12.377  0.1827  0.0092 -0.0797
14889W        W30963   9.062   4.753  12.632 -0.0874  0.3437 -0.0767
14890W        W30964   6.680   7.465  12.945  0.3612 -0.2325 -0.2930
14891W        W30965   9.828   5.567  13.191  0.2016 -0.0610  0.0459
14892W        W30966  10.783   9.063  14.097  0.1484  0.3372  0.3428
14893W        W30967   5.560  10.766   2.068  0.0916 -0.1609  0.2705
14894W        W30968   4.131  15.764   3.990 -0.0071  0.1069  0.1238
14895W        W30969   3.421   5.292   2.885 -0.2160  0.1244 -0.2507
14896W        W30970   2.864   9.478  15.083  0.4718  0.0831 -0.3885
14897W        W30971   7.282  17.088   4.860  0.0556  0.0958  0.1101
14898W        W30972   4.247  17.393   3.833  0.1139 -0.1571  0.2411
14899W        W30973   5.346   0.248   3.582  0.2527  0.3400  0.3249
14900W        W30974   8.571  17.076  14.671 -0.1064  0.1662 -0.0848
14901W        W30975   2.937   5.056  13.297  0.3176 -0.0215  0.2964
14902W        W30976  14.344  11.029   5.595 -0.0667  0.1928 -0.3688
14903W        W30977   1.976   6.940   2.582 -0.0505 -0.0418 -0.1566
14904W        W30978   6.475   3.641  14.436  0.0169  0.2061  0.3609
14905W        W30979  15.388   5.819   2.837  0.0505 -0.1498 -0.3834
14906W        W30980  13.310  12.071   1.648  0.3141  0.1950 -0.2858
14907W        W30981   2.562   6.769  12.686  0.1022 -0.0550 -0.1441
14908W        W30982  11.908   6.250   6.200  0.2268  0.0200 -0.0732
14909W        W30983   0.217  13.276  12.198 -0.1475 -0.4675 -0.1487
14910W        W30984  13.979  16.688   3.374 -0.2667 -0.3012 -0.0885
14911W        W30985   2.718   5.783  12.961  0.1959  0.2060  0.1555
14912W        W30986   4.794   2.601   5.050 -0.0217  0.2263 -0.2022
14913W        W30987   6.012   6.765  13.197 -0.0889  0.0319  0.1618
14914W        W30988   3.896   2.312   6.006  0.0669  0.1655  0.2675
14915W        W30989  16.578  14.895   4.071 -0.1303  0.1146 -0.0127
14916W        W30990  12.730   4.075   2.404  0.0726 -0.0167  0.3505
14917W        W30991  10.802   7.410  15.721 -0.0804 -0.2457  0.0276
14918W        W30992   8.549   2.267  15.889 -0.3273 -0.0506 -0.1061
14919W        W30993   4.117  10.446  14.091  0.1066  0.1043 -0.1738
14920W        W30994  15.802   6.172   1.950 -0.0300 -0.0140  0.1843
14921W        W30995   9.919   8.695   0.403  0.2489 -0.4147  0.0802
14922W        W30996  17.661   8.814  15.743 -0.0273  0.3319  0.1867
14923W        W30997   7.240  12.303  14.239  0.0500 -0.0166 -0.1335
14924W        W30998  17.054   3.615  12.471  0.1282 -0.1238 -0.0186
14925W        W30999   8.695  11.091   1.788  0.0009  0.3459  0.0458
14926W        W31000   6.309   2.753  13.864 -0.1017 -0.1997 -0.2030
14927W        W31001  16.475  18.052  13.892 -0.2554 -0.1670 -0.1610
14928W        W31002   4.140   3.082  12.108  0.0138 -0.4812 -0.5882
14929W        W31003   1.515   0.285   1.241 -0.2936 -0.1837  0.0749
14930W        W31004  12.622   4.904   2.729  0.1170 -0.1542  0.1813
14931W        W31005  15.544   5.845   0.307 -0.0317 -0.0249  0.0610
14932W        W31006   8.991   3.874  14.302  0.0080  0.1029 -0.1447
14933W        W31007  14.259   6.416   0.915  0.2459 -0.0824  0.3607
14934W        W31008   8.367   2.195  13.852  0.2976  0.2010  0.0730
14935W        W31009   1.087  11.577  15.927  0.1631  0.0771  0.2008
14936W        W31010   0.732   2.596  10.994  0.0450  0.1891 -0.1651
14937W        W31011   3.088   2.681  14.780  0.0003  0.0247 -0.2261
14938W        W31012  11.569   2.036  12.572 -0.2126 -0.1736 -0.1908
14939W        W31013  16.988  13.999  11.992  0.1021 -0.2781  0.2430
14940W        W31014  13.707  13.382  14.058 -0.0048 -0.0564 -0.0983
14941W        W31015  12.501  17.609  11.457 -0.1334  0.0446 -0.1114
14942W        W31016   9.117   5.166   2.298 -0.0396  0.0385  0.2459
14943W        W31017  14.892  16.165   4.911 -0.1616 -0.1923  0.1899
14944W        W31018   6.662   2.798  13.539 -0.4214 -0.2255 -0.0487
14945W        W31019  14.504   7.630  15.515  0.2033 -0.0907  0.1429
14946W        W31020   0.094  12.494  14.214 -0.0066 -0.0075 -0.1416
14947W        W31021   6.191   3.668  16.433 -0.0619 -0.2520 -0.0747
14948W        W31022  10.640   6.306  16.187  0.0673  0.2491 -0.0494
14949W        W31023  14.711   8.516  13.852  0.3075 -0.2994 -0.2883
14950W        W31024  16.826   9.088  14.025  0.0134  0.1248  0.1125
14951W        W31025   0.568  11.145  14.197 -0.0990  0.1787 -0.2000
14952W        W31026   1.914   5.452   4.321 -0.2220  0.2424  0.0430
14953W        W31027   1.699   1.659  15.688 -0.4770  0.0746 -0.1188
14954W        W31028  13.517  10.169   1.235  0.1601  0.0704 -0.0417
14955W        W31029  15.476  11.492  14.593 -0.1179  0.1066 -0.2441
14956W        W31030  16.949   7.549   3.960  0.1422 -0.2383  0.0462
14957W        W31031   3.141  11.558  12.711 -0.0708 -0.1326 -0.0358
14958W        W31032  10.679   0.152  16.184  0.1672  0.1343  0.1279
14959W        W31033  16.651  14.633  13.121 -0.0765 -0.1964 -0.1199
14960W        W31034  16.765  12.142   1.072  0.0217 -0.2012  0.0776
14961W        W31035   0.411   7.208   3.326 -0.1937 -0.0715  0.1379
14962W        W31036  13.811  13.305   1.683 -0.0148  0.1883 -0.0576
14963W        W31037   0.511   6.885   2.131  0.1222 -0.0692  0.1048
14964W        W31038   6.694   7.025   4.987  0.0025 -0.1541  0.0971
14965W        W31039   3.388   9.262  16.311 -0.0809 -0.4555  0.3944
14966W        W31040  15.446  14.713  14.624  0.0530  0.0124  0.0213
14967W        W31041   5.363  10.092  11.932  0.1055  0.0431  0.0635
14968W        W31042  10.665   4.445  12.559  0.0284 -0.2019  0.1044
14969W        W31043  17.979  18.012   4.790 -0.2187 -0.2947  0.0158
14970W        W31044   9.169   6.112  14.616 -0.0572  0.3429  0.2138
14971W        W31045  15.592  16.955   0.205  0.0968  0.1015  0.1448
14972W        W31046   4.787   9.104  12.696  0.2216 -0.1034 -0.1318
14973W        W31047   9.371   3.336   0.796  0.2032 -0.1654 -0.3638
14974W        W31048  14.438  14.736  15.574 -0.1411 -0.0664 -0.1375
14975W        W31049   4.766   2.853  15.184 -0.0262 -0.4243 -0.2789
14976W        W31050  16.757   1.208  13.784 -0.0381  0.1299 -0.3008
14977W        W31051   3.669  11.111  11.872 -0.0274  0.1767  0.2327
14978W        W31052  17.122   0.139   0.725  0.5037  0.0657 -0.3437
14979W        W31053  16.301   3.430   4.320 -0.1116 -0.1956  0.1473
14980W        W31054  16.925  16.309   1.198  0.0285  0.0650 -0.3895
14981W        W31055   2.231  14.396   2.409  0.2692 -0.1843 -0.0890
14982W        W31056   3.956   2.158  11.742  0.3749  0.1806 -0.1379
14983W        W31057   2.804   7.020  10.969  0.1849  0.1452 -0.2631
14984W        W31058  16.688   4.889   1.816 -0.0656  0.0249  0.0687
14985W        W31059  14.090   6.685  16.227 -0.1608  0.0443  0.1120
14986W        W31060  11.734   3.068  16.245  0.3919  0.1042 -0.0571
14987W        W31061   0.870   7.023   5.568 -0.0887  0.1741  0.1406
14988W        W31062  18.117   9.794  16.506 -0.0795 -0.0515 -0.3692
14989W        W31063  10.519   5.377   4.195 -0.0684 -0.1146  0.3364
14990W        W31064  14.566  15.219  13.522  0.0568  0.0226 -0.3987
14991W        W31065  15.062  13.117  12.174 -0.0368 -0.0148 -0.0750
14992W        W31066  15.062   3.386  12.210  0.1204 -0.0059 -0.3502
14993W        W31067   9.841  14.033  14.632 -0.0356 -0.2060 -0.0189
14994W        W31068   0.831   5.569  13.512  0.2228 -0.0761 -0.4058
14995W        W31069  10.931   2.673  15.411 -0.2588 -0.3999  0.0637
14996W        W31070  13.539  11.252   3.192  0.2495 -0.4496 -0.1707
14997W        W31071   0.899   9.053   3.059  0.1740  0.2255  0.2803
14998W        W31072  12.210   4.340   4.285  0.2734 -0.3828 -0.2070
14999W        W31073   8.855   9.696  13.492 -0.0066  0.1397  0.1157
15000W        W31074  10.398  13.256   4.558 -0.0294  0.0686 -0.0055
15001W        W31075  14.063  12.271  12.793  0.1154  0.1211  0.0385
15002W        W31076  16.909  10.235   0.229 -0.2469  0.0735  0.3245
15003W        W31077  15.203   9.769  10.755 -0.0068  0.0651 -0.1336
15004W        W31078  13.890  15.039   1.392 -0.0259  0.1080  0.4929
15005W        W31079  11.953  18.044   0.075 -0.0137 -0.1383  0.1881
15006W        W31080   7.698   2.736   3.347  0.1014 -0.0753  0.0193
15007W        W31081   6.929   9.743  12.502 -0.2251  0.2364 -0.1956
15008W        W31082   8.472   6.873  15.981 -0.1416 -0.1721  0.1481
15009W        W31083  15.316   0.101   0.594  0.2229  0.1469  0.1737
15010W        W31084  14.046  17.185  15.005  0.1767 -0.1435  0.1347
15011W        W31085   6.450   6.286   1.724 -0.1111  0.2017 -0.0330
15012W        W31086  16.423  16.299  15.492  0.0509 -0.4383  0.1579
15013W        W31087  11.554  12.546   2.726 -0.3294  0.1979 -0.0072
15014W        W31088  12.267   3.840   4.526 -0.3005 -0.1001  0.0413
15015W        W31089  15.986  12.863  13.535  0.1879  0.1641  0.0723
15016W        W31090  10.365   5.409  15.090 -0.0433  0.0579 -0.1458
15017W        W31091   7.444   0.707   4.433  0.0570  0.5969 -0.0814
15018W        W31092  12.974   3.337   0.152  0.2832  0.0882 -0.3743
15019W        W31093   7.849  10.223   2.722  0.2394 -0.2098 -0.4040
15020W        W31094   6.286   1.877   4.814 -0.0660 -0.1378  0.0177
15021W        W31095  10.782   7.419   0.296  0.4880 -0.0654  0.1251
15022W        W31096   5.606  10.840   0.910 -0.2549 -0.1108 -0.0204
15023W        W31097  16.856   9.693  15.792 -0.1759  0.0580 -0.0417
15024W        W31098  17.372  16.170  11.390  0.0269  0.0568  0.0362
15025W        W31099   7.632   4.322  15.785 -0.0987 -0.3106  0.2575
15026W        W31100  12.961  14.262   2.073  0.3701  0.1844 -0.0304
15027W        W31101   8.217  14.774  16.523  0.1950 -0.0401 -0.2841
15028W        W31102  13.092   5.284   5.566  0.1011  0.0022 -0.0326
15029W        W31103  16.878   8.554  14.009 -0.0470 -0.0063 -0.0710
15030W        W31104   0.821  11.120   4.221  0.2140 -0.0870 -0.2807
15031W        W31105   9.235   2.506  16.244  0.0893 -0.1622  0.0134
15032W        W31106   9.348  15.335   0.028 -0.1058  0.3247 -0.2068
15033W        W31107   8.760  11.319   3.973 -0.0217 -0.1855 -0.0716
15034W        W31108   3.706  11.647   3.978  0.3317 -0.3432 -0.0319
15035W        W31109   3.396   7.278   5.501  0.0007 -0.1719 -0.1177
15036W        W31110  16.837   5.846  14.428  0.4603 -0.3108 -0.1115
15037W        W31111  13.099   1.985   5.001  0.1360 -0.1852  0.1944
15038W        W31112  12.944  12.553  15.265 -0.0790 -0.0198 -0.3964
15039W        W31113  11.144   8.648  14.229  0.0740  0.1096  0.1758
15040W        W31114  17.087   0.652  12.622 -0.0308  0.1472 -0.2189
15041W        W31115  11.588   2.196   4.947  0.1366 -0.0379 -0.1572
15042W        W31116   6.953   4.560   5.114 -0.1774  0.0772 -0.4428
15043W        W31117   0.989  14.818  11.910 -0.0921 -0.1357 -0.0548
15044W        W31118   8.412  12.737   2.064  0.1475 -0.3817  0.0130
15045W        W31119  11.415  15.203   1.535  0.0861 -0.2761  0.1228
15046W        W31120   9.152   0.016   6.104  0.2219  0.0131  0.1541
15047W        W31121   6.120   1.432   5.125  0.3866 -0.2234  0.0080
15048W        W31122  13.482   5.413  15.616  0.1985  0.2033  0.0187
15049W        W31123  15.662   7.527   5.503  0.1405 -0.3087  0.3965
15050W        W31124   0.299   2.670   3.978 -0.2194 -0.1389 -0.0854
15051W        W31125   7.253   1.265   0.614  0.1951 -0.3654  0.1111
15052W        W31126   6.031   3.353  15.167 -0.0946  0.1378 -0.0865
15053W        W31127   1.935  16.327  13.291 -0.1451 -0.0700  0.0604
15054W        W31128  17.487   1.414  15.831  0.0282  0.1723 -0.2032
15055W        W31129   1.700  14.052  14.808  0.1116  0.2402 -0.1260
15056W        W31130   5.160  14.617  15.558 -0.0021 -0.2202 -0.0297
15057W        W31131  17.376   6.131   3.914  0.0693  0.1863  0.2644
15058W        W31132  13.821   5.427   1.275  0.0204  0.0634  0.1258
15059W        W31133   7.598   9.414   2.973 -0.4323 -0.1958 -0.0945
15060W        W31134   8.408   8.736   4.101 -0.1287  0.0962 -0.1053
15061W        W31135  13.093  10.035  14.020  0.0930  0.0049 -0.1914
15062W        W31136   7.982   5.246  12.222 -0.1573 -0.0597  0.1691
15063W        W31137  13.771  12.230   1.277 -0.1906 -0.0026  0.0647
15064W        W31138  18.114   6.127   6.020 -0.2914 -0.3457  0.2095
15065W        W31139   6.881  10.168   2.496  0.6435 -0.1095 -0.0821
15066W        W31140   2.055  12.920   0.253 -0.1056 -0.1796 -0.1304
15067W        W31141   8.764  13.984  13.323  0.2635  0.2615 -0.2981
15068W        W31142   5.183   6.111  12.821  0.0901 -0.0518 -0.0538
15069W        W31143  14.995   4.621  12.390 -0.2809  0.2529  0.1420
15070W        W31144   0.446   5.995   1.917  0.1412  0.1074  0.1091
15071W        W31145   9.946  16.770  14.452  0.1447 -0.0494  0.1848
15072W        W31146  10.530   7.814  15.864 -0.1818 -0.0323  0.0125
15073W        W31147  16.756  16.320   5.175  0.0214 -0.2086 -0.3012
15074W        W31148  15.907   4.412   1.482  0.2144 -0.2104  0.3630
15075W        W31149  12.384  11.969  16.477 -0.2347 -0.0283  0.0874
15076W        W31150   1.450   7.032   1.154 -0.0893  0.0903  0.2777
15077W        W31151  18.188  14.991  11.142 -0.0672 -0.1199 -0.0928
15078W        W31152  12.611  12.405   0.199  0.2489  0.3207  0.0112
15079W        W31153   8.697   6.260  13.160  0.0291  0.0665 -0.1373
15080W        W31154   7.213   5.418  15.908 -0.3338 -0.3058  0.1903
15081W        W31155  15.196  10.557   6.601 -0.0658  0.1109 -0.0331
15082W        W31156   4.514  10.049  12.881  0.1036 -0.2176 -0.1787
15083W        W31157   5.212  14.664  14.710  0.0548 -0.0665  0.0499
15084W        W31158   3.334   7.471   0.711 -0.3672  0.1374 -0.0454
15085W        W31159  16.212  10.753   3.962 -0.0513  0.1109  0.1000
15086W        W31160   4.054  17.552  16.469 -0.1895 -0.0997 -0.0942
15087W        W31161  10.514  10.384   3.407 -0.0820  0.5206 -0.1529
15088W        W31162  10.692   4.278   0.692 -0.0502  0.1170  0.2786
15089W        W31163  12.564   3.825   0.096 -0.6120  0.0864 -0.0253
15090W        W31164   0.310   9.404  14.545 -0.3511  0.2065  0.2058
15091W        W31165   0.543   1.360   1.225 -0.0628  0.0836 -0.2098
15092W        W31166   3.585  10.116   4.928  0.1532  0.2113  0.0317
15093W        W31167   7.986  10.607  13.134  0.2136 -0.2669 -0.0596
15094W        W31168  18.163   0.736  13.175 -0.3170 -0.1310 -0.0431
15095W        W31169  14.770  10.158  15.040 -0.0882  0.0278  0.1354
15096W        W31170   0.539  17.106  13.416  0.1272 -0.0729  0.0547
15097W        W31171  16.103  10.289   2.044  0.0299 -0.0795  0.0703
15098W        W31172   5.636  11.708   1.163 -0.2277 -0.3417 -0.3184
15099W        W31173   9.721   8.961  15.151  0.2823  0.1679 -0.1730
15100W        W31174   3.996   5.018   0.770  0.1222 -0.3234 -0.2881
15101W        W31175   3.802   4.779  13.128 -0.0557 -0.0249  0.0103
15102W        W31176   4.880   6.205   0.888 -0.0359  0.0003 -0.1705
15103W        W31177  14.598  12.023  15.641  0.1670  0.0839  0.0103
15104W        W31178   1.137   5.725   0.985 -0.0374  0.2576 -0.0288
15105W        W31179   2.941   3.140   2.806  0.1390  0.1048  0.0276
15106W        W31180   4.151  18.208  11.357  0.4091 -0.1339 -0.2479
15107W        W31181   7.590   5.333  13.406 -0.0097 -0.0173  0.0383
15108W        W31182  15.599  17.388   3.627  0.0539  0.1381  0.1350
15109W        W31183   6.397  16.739   3.545  0.2304 -0.0622 -0.1212
15110W        W31184  16.188   4.562  11.423  0.1845 -0.3045 -0.2066
15111W        W31185  13.869  15.434  13.076  0.0327  0.1932  0.0721
15112W        W31186   2.804  12.663   2.316 -0.3347  0.3062 -0.2344
15113W        W31187   6.509   8.498  12.743 -0.3102  0.1298 -0.4400
15114W        W31188   9.002   9.624  14.446 -0.1998  0.0722  0.0933
15115W        W31189   8.722   3.076   4.660  0.2221  0.1767 -0.2170
15116W        W31190  15.391  15.927  11.228 -0.3394 -0.0549  0.0369
15117W        W31191  10.675   2.686   5.188 -0.0377  0.1195  0.0839
15118W        W31192  14.784  12.992   2.625 -0.1410 -0.1682 -0.1618
15119W        W31193  13.476  17.960  10.768 -0.1501 -0.1502  0.1958
15120W        W31194   2.486   2.609  12.174  0.0184 -0.2404 -0.0507
15121W        W31195   8.962  10.090  12.653  0.1005 -0.2783 -0.2211
15122W        W31196   1.090   0.136  13.736 -0.0466 -0.0446  0.1414
15123W        W31197  15.445   5.201   1.484 -0.1764 -0.1518  0.2282
15124W        W31198  13.513   9.767   1.872 -0.0232 -0.3525 -0.0822
15125W        W31199  17.294   7.157   1.749 -0.1114 -0.2673  0.1691
15126W        W31200   0.758   5.217  13.904 -0.0644 -0.3056 -0.0566
15127W        W31201   1.936   8.143   0.242  0.0108  0.2118  0.3321
15128W        W31202  13.034   0.958  12.303  0.0619  0.1123  0.1586
15129W        W31203   2.731  10.778   0.758 -0.0587  0.0695 -0.0376
15130W        W31204  12.115  14.938   3.598  0.1599 -0.0717  0.2167
15131W        W31205  11.327  16.132  12.556 -0.2864  0.2360 -0.0067
15132W        W31206  17.243  17.760  14.785  0.0295  0.1115 -0.0186
15133W        W31207   9.689   4.984   3.033 -0.0162 -0.1388  0.1280
15134W        W31208   1.500   7.497  11.166 -0.2646  0.1831 -0.0433
15135W        W31209  12.824   4.185   3.480  0.0389 -0.1130 -0.0358
15136W        W31210  12.674  12.651  10.725 -0.1877  0.0898  0.0945
15137W        W31211  13.802   3.395   4.091 -0.2240 -0.3715  0.1757
15138W        W31212   6.496   3.576  15.323 -0.0892 -0.0363  0.1797
15139W        W31213  17.452   2.310   1.438  0.1007  0.0922 -0.1795
15140W        W31214  16.946   5.368   6.004 -0.0173 -0.2915 -0.0279
15141W        W31215  10.062   7.188   0.957  0.0079 -0.0696  0.1995
15142W        W31216  16.920   8.619  14.622 -0.1043 -0.3069 -0.1722
15143W        W31217   0.129  10.992   0.539  0.0567 -0.0857 -0.4331
15144W        W31218   0.449   0.345   4.934  0.0597  0.0587  0.4110
15145W        W31219  12.060   0.061  15.552  0.2128 -0.2034  0.2641
15146W        W31220  11.578   1.032   1.519  0.0442 -0.3253  0.0166
15147W        W31221   5.127   6.697  12.874  0.1753  0.2788 -0.1443
15148W        W31222  18.018  14.059  15.958 -0.1478 -0.1327 -0.1050
15149W        W31223   4.141   3.613   2.560  0.0535 -0.0001 -0.0627
15150W        W31224  10.395  14.775  15.938 -0.2344  0.2533 -0.0641
15151W        W31225   4.483   8.829   1.948  0.2121 -0.2876  0.1200
15152W        W31226   6.544   5.327   2.681  0.3631 -0.2103 -0.2099
15153W        W31227   1.694   4.502  15.317 -0.1063 -0.0850 -0.3446
15154W        W31228   9.471  16.887  11.565  0.1128  0.0616 -0.3375
15155W        W31229   3.321  13.568  14.681 -0.1217  0.1563  0.1973
15156W        W31230   9.590   9.615   6.690  0.0702  0.1625 -0.2660
15157W        W31231   7.996  12.385  12.202  0.3408  0.0953 -0.2551
15158W        W31232  16.665   1.841  15.288 -0.1465  0.1277 -0.0639
15159W        W31233   0.153  16.237  15.352  0.3040  0.1125  0.0076
15160W        W31234   8.850  15.932  14.652 -0.0118 -0.0446 -0.1890
15161W        W31235   1.649   5.938   4.719  0.2108  0.0810 -0.1030
15162W        W31236   6.226   5.859   0.954  0.3272  0.1852 -0.0444
15163W        W31237  15.898  15.224  15.107  0.1959  0.0983 -0.2567
15164W        W31238   5.710   0.297  13.305 -0.0652 -0.2819 -0.1124
15165W        W31239   7.301  12.471   0.015  0.0504 -0.0367  0.0028
15166W        W31240   1.347  17.951   2.106 -0.2401 -0.1858 -0.0483
15167W        W31241   5.419   4.743  16.476  0.2300 -0.1291 -0.1511
15168W        W31242  11.809   8.136  10.952  0.0452 -0.2697 -0.0743
15169W        W31243   3.124   3.607  14.913  0.1134 -0.1864  0.3389
15170W        W31244   2.872  13.300  15.832 -0.0992  0.0116 -0.1996
15171W        W31245   6.474  15.208  13.055  0.0697  0.1357 -0.2470
15172W        W31246   5.713   8.551   3.811 -0.1291 -0.1139 -0.2038
15173W        W31247   2.193  12.424  13.748  0.0096  0.4222 -0.1403
15174W        W31248   0.756  16.898   3.552 -0.1395 -0.0883  0.2874
15175W        W31249  16.298   0.004  15.581 -0.0499  0.0441 -0.1583
15176W        W31250   7.928   3.240   4.014  0.2741 -0.2513  0.2114
15177W        W31251  17.632  10.899   5.752  0.1024 -0.2134 -0.1090
15178W        W31252   1.347   4.673  11.578 -0.0083  0.2918  0.0986
15179W        W31253  13.054   4.528   4.884  0.0568 -0.1945  0.2380
15180W        W31254  14.265   0.447  11.634 -0.1289 -0.2428  0.0820
15181W        W31255  11.386  17.115   2.606 -0.0747  0.2748  0.2917
15182W        W31256   6.878   4.828  15.165 -0.1230 -0.0694  0.0373
15183W        W31257   1.378   4.014  16.008 -0.0784 -0.1681 -0.0096
15184W        W31258  16.192  16.349   0.919 -0.0638 -0.0856  0.1395
15185W        W31259  10.132   1.868  16.019  0.0740 -0.1400 -0.2065
15186W        W31260   9.193  11.445  12.261  0.1923 -0.1398 -0.2997
15187W        W31261  14.822   2.484   1.404  0.0143 -0.3036  0.0948
15188W        W31262   1.986   5.236   3.015  0.3060  0.3200  0.4266
15189W        W31263  16.330  13.369  14.420  0.0739  0.2861 -0.0307
15190W        W31264   3.420  13.716  12.913  0.1559  0.0735 -0.0870
15191W        W31265   3.847  16.491   4.586  0.2465  0.0646  0.3261
15192W        W31266   5.775   2.966   5.773  0.2525  0.4574 -0.3667
15193W        W31267   2.341   7.239  12.486  0.0088  0.1820 -0.0536
15194W        W31268   1.096   3.423   0.529  0.0821 -0.4589 -0.0924
15195W        W31269  17.930   5.168   4.200 -0.1253 -0.1024  0.0940
15196W        W31270  15.792   1.676   4.304 -0.0214  0.0885  0.0080
15197W        W31271   8.506   4.054   1.432 -0.0397 -0.1882  0.0187
15198W        W31272   6.628  12.505   3.668 -0.1748  0.1834 -0.1031
15199W        W31273  10.586   5.980   1.287 -0.2654  0.0174  0.3635
15200W        W31274  11.233  14.043  11.985  0.2119  0.1604  0.1411
15201W        W31275   4.579  12.977   4.606  0.3082  0.3448  0.1282
15202W        W31276   5.322  16.606  12.457 -0.2867  0.1122 -0.2398
15203W        W31277   6.298  16.843  13.662 -0.1207  0.1257  0.1241
15204W        W31278   5.061   5.811  16.156 -0.0232  0.2572 -0.3677
15205W        W31279  18.048   7.567   2.664  0.0213  0.1231  0.1419
15206W        W31280  11.160  14.959   3.838 -0.2737 -0.1639 -0.2342
15207W        W31281   6.699  16.030  16.162  0.0401  0.0163 -0.1962
15208W        W31282   2.695   8.787  12.255  0.1246  0.1534 -0.0541
15209W        W31283   3.034   0.091   2.210 -0.0224 -0.2470 -0.2368
15210W        W31284  13.393  13.135  14.482  0.0098 -0.0959  0.0376
15211W        W31285   1.013   9.420  13.316 -0.1182 -0.0976  0.1922
15212W        W31286   1.698  11.524  13.627 -0.1698  0.3678  0.1036
15213W        W31287  15.073  10.040   5.196  0.0462 -0.1868  0.2381
15214W        W31288   1.935   0.014   4.403  0.2663 -0.1550  0.1061
15215W        W31289  10.311  13.322  13.139  0.1212  0.0640  0.1308
15216W        W31290   0.570   1.849  14.359 -0.0400  0.0727 -0.3262
15217W        W31291  10.312   5.227   0.927  0.3717 -0.3479 -0.1979
15218W        W31292   3.143   7.224   4.535 -0.2164  0.0625  0.0653
15219W        W31293   7.656  13.032   1.672 -0.1271  0.2496 -0.4452
15220W        W31294  13.506   6.270  14.216  0.0828  0.2581  0.0843
15221W        W31295   3.868   8.996   1.330 -0.0879  0.0859 -0.0637
15222W        W31296   0.468   1.849  13.602  0.1510 -0.2346 -0.2276
15223W        W31297   8.265  17.634   2.389 -0.1958 -0.0932 -0.0322
15224W        W31298   0.220   2.739  13.849  0.3519 -0.2085 -0.0598
15225W        W31299   8.087   6.875   3.493 -0.0408 -0.0206 -0.0285
15226W        W31300   9.751   3.076   0.955 -0.2812 -0.4940 -0.0522
15227W        W31301   8.662  13.208  13.422  0.1618  0.0258 -0.1838
15228W        W31302   2.985  12.595  12.504 -0.0442 -0.2938 -0.2312
15229W        W31303   3.966  14.198  15.802  0.3048  0.1507  0.1160
15230W        W31304  14.278   8.094   4.336 -0.1642  0.1571  0.2144
15231W        W31305   5.252   2.212  13.307  0.0492  0.1972  0.1209
15232W        W31306  14.021  12.080   4.612  0.0475 -0.0182  0.2119
15233W        W31307  16.772   4.082   4.856 -0.2106  0.1409  0.0569
15234W        W31308  16.068   9.592   3.878  0.0105  0.2437  0.1419
15235W        W31309   7.812   6.738   0.007 -0.4464 -0.0133 -0.1804
15236W        W31310   9.490  11.960   3.728 -0.0849 -0.1216 -0.3002
15237W        W31311   8.326  17.583  15.212  0.1124 -0.0331  0.2355
15238W        W31312  13.223   5.420  12.866  0.1435  0.0680 -0.1046
15239W        W31313  12.751  12.816  11.662  0.0300 -0.2136 -0.0443
15240W        W31314   9.652  13.613  14.447  0.0409  0.4236  0.0319
15241W        W31315  10.999   1.984   3.649  0.1560 -0.1386 -0.0094
15242W        W31316   1.528  12.200   3.600 -0.2822  0.0667 -0.5998
15243W        W31317   6.527   2.317   0.958 -0.0269 -0.1457 -0.0960
15244W        W31318  16.235   3.934   2.687  0.0560 -0.2297  0.2685
15245W        W31319   6.661  13.433   4.543  0.0923  0.5467 -0.2340
15246W        W31320   6.160   8.175  13.194 -0.0217 -0.2090 -0.1090
15247W        W31321   4.909  17.639   5.099  0.0209 -0.1832 -0.1314
15248W        W31322   8.120   6.995  12.914  0.2047  0.0386 -0.3449
15249W        W31323  14.182   2.148  15.322 -0.0101  0.0176 -0.2060
15250W        W31324   1.390  16.478  11.194  0.2710 -0.4118  0.2741
15251W        W31325   2.536   1.249   2.038  0.0155  0.3098  0.0856
15252W        W31326  10.727  14.011   3.902  0.2872 -0.0139  0.0215
15253W        W31327  10.827   5.598   1.505  0.1509 -0.0892 -0.0229
15254W        W31328   1.177  13.522   3.121  0.1056  0.2283 -0.0633
15255W        W31329  15.509   2.575   1.058  0.1714 -0.1492  0.1545
15256W        W31330  12.737  15.085   0.596 -0.0865  0.4103  0.2318
15257W        W31331  14.618   0.978   2.170  0.0698 -0.0951 -0.0001
15258W        W31332   8.163   9.890   2.997 -0.2967 -0.0340  0.0016
15259W        W31333  15.115   1.035   2.177 -0.0569  0.0529  0.1544
15260W        W31334   9.100  12.815   0.454 -0.1419 -0.3884 -0.0390
15261W        W31335  17.506   2.204   9.877 -0.1318 -0.0303  0.2764
15262W        W31336  11.623  14.712   6.521 -0.1126  0.1231  0.5159
15263W        W31337   3.779   5.405  13.454 -0.3388  0.1279 -0.1531
15264W        W31338   2.283  13.562   1.771  0.0348  0.1975  0.3204
15265W        W31339   6.532   8.657  15.454  0.1886 -0.1812  0.1281
15266W        W31340   4.319   2.922  13.829  0.2523 -0.5005 -0.1423
15267W        W31341   1.533   4.208   2.597  0.1217  0.1309 -0.1924
15268W        W31342  11.821  16.255   4.214  0.0417 -0.0202 -0.2335
15269W        W31343   3.893   4.902   4.857  0.1611 -0.1650 -0.1793
15270W        W31344   5.573   0.590   3.119  0.0937 -0.0763 -0.0730
15271W        W31345   6.662   2.576   4.043 -0.0833 -0.0963 -0.1207
15272W        W31346   2.682  12.886   2.829  0.4236  0.4451  0.2281
15273W        W31347  11.864   6.676   1.259 -0.1013 -0.3679  0.0282
15274W        W31348   3.318  11.933  15.023  0.0134  0.1140 -0.0873
15275W        W31349   2.340  17.895  14.552  0.2242 -0.2123 -0.1924
15276W        W31350   7.260  10.541  14.377  0.1147  0.1312  0.0471
15277W        W31351   0.505   1.213   2.048 -0.3456  0.0565 -0.0827
15278W        W31352   0.070  15.285  16.192 -0.2356  0.1297 -0.2883
15279W        W31353   4.150  14.339   0.564  0.0568  0.2882  0.1686
15280W        W31354  15.772   8.978  12.978 -0.1887 -0.1180 -0.4349
15281W        W31355   1.641   0.305   5.087 -0.6519  0.1209 -0.1985
15282W        W31356   8.355  16.833  12.884  0.1817 -0.0510 -0.1158
15283W        W31357   0.710   5.546  11.492  0.0000 -0.0324 -0.3976
15284W        W31358  18.077  13.673  11.452  0.0481  0.0805  0.1330
15285W        W31359   7.716   9.343  12.450 -0.2111 -0.1063  0.0648
15286W        W31360  11.982   9.542  16.111  0.1073  0.3123  0.3939
15287W        W31361   1.455   1.636  14.275 -0.0670  0.0767 -0.0912
15288W        W31362   5.490   6.093   2.348 -0.0260  0.1470  0.1279
15289W        W31363   1.480  14.563   3.921 -0.3106  0.0274 -0.0131
15290W        W31364   8.948   4.814  15.284 -0.0632 -0.1594  0.2375
15291W        W31365   7.183  13.224  12.832 -0.4423 -0.1313 -0.0204
15292W        W31366  13.064  15.435   4.086 -0.0501 -0.2296 -0.3363
15293W        W31367  14.366   7.134  14.716 -0.4062 -0.1267  0.0201
15294W        W31368   1.827   7.461   3.432  0.0535  0.2956 -0.3123
15295W        W31369   2.627   4.390   1.421  0.1395  0.0785 -0.1281
15296W        W31370   0.196   1.862   4.346 -0.0194  0.0753 -0.0888
15297W        W31371  12.765  16.905  14.704 -0.1070 -0.1840 -0.0416
15298W        W31372   7.465   1.636   5.526  0.2208 -0.0605  0.1159
15299W        W31373  17.048   0.091  16.350 -0.1117  0.1131 -0.1931
15300W        W31374  10.080   3.387   5.835 -0.0091  0.4488  0.1478
15301W        W31375  13.443   3.849   1.251  0.3772 -0.1210  0.3251
15302W        W31376   6.606  17.179   3.340  0.1081  0.0863  0.1831
15303W        W31377   1.384   5.585   1.460  0.2863  0.1740 -0.1883
15304W        W31378   9.277   1.258   2.405 -0.1378 -0.3559  0.0758
15305W        W31379  11.563  17.717   5.532  0.0296  0.0983  0.3490
15306W        W31380  13.297   6.026   0.780  0.1623  0.1618  0.1129
15307W        W31381  16.313   8.355   6.211 -0.0374  0.1681 -0.1753
15308W        W31382  14.357   9.087   2.606  0.2034  0.0697 -0.1380
15309W        W31383  14.549  11.214   3.279  0.1426 -0.0224 -0.0793
15310W        W31384   5.815   7.493  15.740  0.1447 -0.1522 -0.1433
15311W        W31385   5.070   8.736   6.229  0.1345 -0.1491  0.0487
15312W        W31386   3.706  10.912  11.066 -0.0704 -0.0060 -0.2684
15313W        W31387  16.963   4.537  14.198 -0.1908 -0.1346 -0.1251
15314W        W31388   6.528  17.604   0.692 -0.0274  0.0388  0.4031
15315W        W31389   3.492   2.109   2.536  0.2900 -0.0884 -0.1946
15316W        W31390  16.181   5.790  11.799 -0.1202  0.1609 -0.0793
15317W        W31391   2.198   4.042  12.779  0.0226  0.1162  0.2167
15318W        W31392   2.961   1.459   2.081 -0.0969  0.0264 -0.3301
15319W        W31393   9.996   4.863   0.910  0.1906  0.0675  0.2703
15320W        W31394  16.515  16.962   0.550  0.1069 -0.3301 -0.1636
15321W        W31395   1.858  16.509   5.259 -0.0735 -0.2111  0.0149
15322W        W31396   4.729   0.129   4.786 -0.1117  0.1653  0.0455
15323W        W31397  17.923   0.033  16.032  0.2358 -0.1221 -0.2740
15324W        W31398  13.209   3.849   2.469  0.0164 -0.1092  0.2300
15325W        W31399   6.099   5.599   4.763 -0.0713 -0.1200  0.1616
15326W        W31400  16.488   4.379   4.594  0.3881 -0.1124 -0.3469
15327W        W31401   4.923   5.485   0.462 -0.0012  0.1727  0.0802
15328W        W31402  13.656  11.825   1.002 -0.0810  0.6189 -0.0021
15329W        W31403  10.056   1.602   2.355  0.0634 -0.0463  0.1062
15330W        W31404  18.213   3.840   0.075 -0.0485  0.1857 -0.0036
15331W        W31405   2.370   4.932  12.522  0.2895 -0.0265 -0.0224
15332W        W31406   8.854  14.827  15.174  0.1627  0.3164  0.1483
15333W        W31407   0.482   9.415  16.022  0.4093 -0.2021  0.1060
15334W        W31408  17.856  13.515   3.106  0.2212  0.2643  0.1339
15335W        W31409   2.060  15.656  12.222 -0.0955  0.0026 -0.2358
15336W        W31410   0.770   8.483   5.191 -0.1534  0.7720  0.0528
15337W        W31411  12.002  17.735  13.308  0.3045  0.1078  0.0279
15338W        W31412   7.551  11.484  13.107  0.0443 -0.0632  0.2904
15339W        W31413   8.487   7.987  14.317 -0.0867 -0.0182 -0.2177
15340W        W31414  13.997   3.140   5.350 -0.2310 -0.0378 -0.0344
15341W        W31415  15.774   7.346   0.408 -0.2143 -0.2068 -0.2522
15342W        W31416  10.622   1.589  16.002  0.0841 -0.1930  0.0454
15343W        W31417  14.270   4.480   3.159 -0.1471  0.2517  0.0532
15344W        W31418  10.507  17.458  14.763 -0.1500 -0.0738  0.3244
15345W        W31419   0.044   1.323   1.673  0.1130  0.1943  0.1441
15346W        W31420   9.533   9.246   5.273  0.3869 -0.1118  0.0275
15347W        W31421   8.515  10.143   3.280 -0.2496  0.0344 -0.0154
15348W        W31422   2.624   1.030  11.896  0.0519  0.0908  0.0245
15349W        W31423  16.415   0.284   4.387  0.1255 -0.2838 -0.0666
15350W        W31424   4.899  14.367   1.731 -0.0462 -0.3561 -0.0306
15351W        W31425  10.381   8.882   0.426  0.1221  0.0540 -0.4216
15352W        W31426   2.652   3.183  16.193  0.0957 -0.1143 -0.1291
15353W        W31427   3.876   3.963   3.046 -0.0040 -0.0676 -0.3842
15354W        W31428   2.694   9.323   5.877 -0.1767 -0.0303 -0.2222
15355W        W31429   6.674  17.503   2.515 -0.1608 -0.1265  0.3186
15356W        W31430   5.416  16.138  15.032 -0.0107 -0.0382  0.0686
15357W        W31431   3.834   3.084   0.229 -0.0177  0.2250 -0.3534
15358W        W31432   3.400  16.379   0.512  0.0715  0.0715  0.0355
15359W        W31433  11.999  16.569  16.048  0.2094 -0.2655 -0.0271
15360W        W31434   2.846   2.343   0.872  0.1478 -0.0247 -0.1202
15361W        W31435   5.828   2.171   1.293 -0.1463  0.3075  0.0826
15362W        W31436   2.360   1.278  14.326  0.1297  0.0997 -0.0363
15363W        W31437   9.729   5.929   2.793 -0.1367 -0.0950  0.1699
15364W        W31438  16.858   7.589   1.399  0.2777 -0.2213  0.0822
15365W        W31439   2.374   0.523   1.081 -0.1616  0.0125 -0.0615
15366W        W31440  16.857   3.607  13.658 -0.0103  0.0995  0.1718
15367W        W31441   1.437   3.382   1.361  0.1061  0.1229 -0.1556
15368W        W31442  11.965  13.741   5.110 -0.1338  0.3984 -0.2125
15369W        W31443   1.670   4.519  14.594 -0.1845  0.0987  0.0536
15370W        W31444   5.548   3.347  14.999  0.2345  0.1419 -0.2847
15371W        W31445  12.409  13.753   1.557 -0.1514 -0.0313 -0.1906
15372W        W31446  15.977  15.257  13.151 -0.1610  0.1057  0.0405
15373W        W31447   8.292  13.646  13.528  0.0553  0.0522 -0.1493
15374W        W31448   5.750   3.848   0.110  0.0175  0.3715  0.1681
15375W        W31449   9.002   9.092   0.206  0.2429  0.2476 -0.1532
15376W        W31450  15.674   2.905   1.439  0.1004 -0.1126  0.3449
15377W        W31451   4.674   9.488  13.289  0.4229  0.4079 -0.0502
15378W        W31452   4.644  15.445  11.734 -0.1619 -0.0194  0.1702
15379W        W31453   4.787  13.892  14.867 -0.2494  0.2165 -0.1054
15380W        W31454  16.798  10.764  12.346  0.0351 -0.1517 -0.0623
15381W        W31455  15.187   6.755  11.847 -0.0688 -0.2897  0.1056
15382W        W31456  12.241   9.381   1.220  0.1049 -0.0480 -0.0660
15383W        W31457  16.240  12.817  10.860 -0.0174  0.0788 -0.1188
15384W        W31458   3.734   5.321  14.735  0.1932  0.0144 -0.0770
15385W        W31459   3.310   6.452  12.143 -0.1318  0.2189 -0.1507
15386W        W31460  10.464   7.954  12.037 -0.1985 -0.2364  0.0365
15387W        W31461  11.088  12.043   0.269  0.1109 -0.0986 -0.1408
15388W        W31462   5.205   3.484  14.001 -0.0547 -0.2127 -0.0531
15389W        W31463  18.070   6.409   4.358  0.2962  0.1325 -0.2832
15390W        W31464   6.121   6.298   3.046 -0.1724 -0.4943  0.0139
15391W        W31465  13.705  10.155   4.627 -0.0160 -0.2021 -0.1558
15392W        W31466  12.782  14.370  14.662 -0.2442 -0.0654 -0.0046
15393W        W31467  15.678   3.720   1.001 -0.1049 -0.1073  0.1903
15394W        W31468  15.397  15.066   2.840  0.1554  0.3980 -0.2902
15395W        W31469   7.782   1.477   0.363 -0.0120 -0.2922 -0.1593
15396W        W31470   7.314   8.244   1.396 -0.2160  0.1502  0.3326
15397W        W31471  14.321   0.674  12.400  0.0027 -0.1577 -0.1987
15398W        W31472   0.351  17.680  15.009 -0.3377 -0.3526 -0.0733
15399W        W31473  13.829   6.576  12.993 -0.1221 -0.0370  0.3728
15400W        W31474  15.612   2.823  13.713  0.1737 -0.2514 -0.1463
15401W        W31475   6.765   3.783  14.856 -0.1137  0.4507 -0.1010
15402W        W31476   1.001  13.565   2.284  0.0261 -0.1654  0.1626
15403W        W31477  16.395  13.249  14.914 -0.2539 -0.0895  0.5863
15404W        W31478  16.367  11.135   4.701  0.2354 -0.0956  0.0288
15405W        W31479   3.545  13.825  11.315  0.3043 -0.1244  0.1606
15406W        W31480  11.838   2.877   3.968  0.0432 -0.0353 -0.2975
15407W        W31481   0.472  13.853  14.272  0.0325 -0.1748 -0.1905
15408W        W31482  16.972  17.920   4.915 -0.0836 -0.1200  0.4380
15409W        W31483   5.185   6.108   5.512  0.3188 -0.3493  0.0770
15410W        W31484   9.797   1.842   5.532  0.0676  0.1763  0.1640
15411W        W31485   8.033   6.471   2.932  0.0176 -0.0847  0.0839
15412W        W31486   6.657   8.932   0.709  0.0326  0.0530 -0.1392
15413W        W31487  13.747   0.545  12.324 -0.0459  0.1402 -0.0206
15414W        W31488  11.720   9.996   3.539  0.2264 -0.2406  0.0446
15415W        W31489   7.764  18.057  12.635 -0.0303  0.3438 -0.1158
15416W        W31490   8.011  13.080   2.796  0.1400 -0.1096  0.0575
15417W        W31491   1.471   9.174   5.786  0.1051  0.0402 -0.1128
15418W        W31492   5.333   7.707   2.416 -0.0485 -0.1032  0.1258
15419W        W31493  12.830  15.341  16.308 -0.0520 -0.5563  0.1761
15420W        W31494   4.851  10.280   0.339 -0.5234  0.2424 -0.0768
15421W        W31495  13.244  12.604  13.811 -0.1178 -0.4556 -0.3998
15422W        W31496   2.581   4.343  14.826 -0.2299 -0.0903  0.1799
15423W        W31497  17.962  18.005   5.306  0.1671 -0.0679 -0.1739
15424W        W31498   0.176   1.123   3.771  0.1218  0.2502 -0.0833
15425W        W31499   5.225  16.869   2.148  0.0307 -0.0892  0.0905
15426W        W31500   1.851  14.809   3.575  0.3539 -0.1405 -0.0505
15427W        W31501  12.629   6.732  12.076  0.2368 -0.4202 -0.0468
15428W        W31502   1.611   3.339  13.291  0.0829  0.4869  0.1390
15429W        W31503  16.033  13.024   4.947  0.0744  0.3404  0.1204
15430W        W31504   5.627   3.440  14.485  0.3367 -0.0515  0.1257
15431W        W31505   2.294  14.275   6.111  0.2165 -0.1978 -0.0412
15432W        W31506   8.297  10.394   3.719 -0.1565 -0.1638 -0.0866
15433W        W31507   4.923  13.884  14.288  0.3039 -0.0075  0.0319
15434W        W31508   6.195  17.340  12.243 -0.1338 -0.0989  0.0454
15435W        W31509   4.166   3.470  14.197 -0.2224 -0.3647 -0.0033
15436W        W31510   5.495  17.465  13.973 -0.2380  0.1431  0.1286
15437W        W31511   9.007   7.041   2.468 -0.1119  0.1478 -0.0511
15438W        W31512  16.631   7.162   4.836 -0.2420 -0.1615  0.0345
15439W        W31513  13.360   0.515   1.331  0.3041  0.1716  0.2017
15440W        W31514  15.253  16.382   2.379  0.3231  0.1161  0.0944
15441W        W31515  13.409   1.385   1.910  0.0001  0.1172  0.0085
15442W        W31516  17.052   4.931  11.699 -0.4186  0.1593 -0.0993
15443W        W31517   8.262   3.551  13.751  0.1842  0.2287 -0.1943
15444W        W31518  15.696  14.577  15.931  0.1951  0.0052 -0.0019
15445W        W31519  10.698   0.709  14.599 -0.0501 -0.1218 -0.2610
15446W        W31520  15.071   7.507   0.817 -0.2306  0.0502 -0.0699
15447W        W31521   5.108  11.024  15.081 -0.1378  0.4869  0.1152
15448W        W31522  11.164  11.243   5.347 -0.0011 -0.4064  0.0943
15449W        W31523   7.623  15.901   1.246  0.4186 -0.0366  0.2554
15450W        W31524  12.438  15.792   2.842  0.1185 -0.2420  0.0294
15451W        W31525   5.030  12.072   1.521  0.0140  0.2695 -0.0716
15452W        W31526  17.419  13.163  14.106  0.1317  0.2228  0.0706
15453W        W31527   6.788   4.533  11.730 -0.1785 -0.0130 -0.1756
15454W        W31528   5.384   6.043   4.082 -0.0475 -0.1412  0.0526
15455W        W31529  13.399   2.006   1.282 -0.1335  0.1627 -0.1842
15456W        W31530   8.546   0.043  11.837 -0.1800 -0.0111  0.1155
15457W        W31531   3.463   4.042   0.539 -0.1706  0.0318  0.1540
15458W        W31532   2.809   5.101  13.780 -0.1619 -0.1876 -0.1622
15459W        W31533  11.605  10.530   2.123 -0.1317  0.0582  0.3643
15460W        W31534   2.124  17.334  16.297 -0.1660 -0.0823 -0.0667
15461W        W31535   8.708  15.471  11.759 -0.1089  0.1399 -0.1470
15462W        W31536  10.090   0.406   3.243 -0.2770  0.1381  0.1325
15463W        W31537   5.728   2.875  16.281  0.3288 -0.0366  0.0673
15464W        W31538  14.523  14.123  13.696 -0.2145 -0.0791 -0.0094
15465W        W31539  11.703  16.848   4.591  0.1383  0.2479 -0.2799
15466W        W31540  12.115  16.495  12.067 -0.0036 -0.0428 -0.0941
15467W        W31541  10.155   7.026  13.968  0.2450 -0.0823  0.0806
15468W        W31542  14.411   5.894  14.357 -0.0887  0.2547  0.1634
15469W        W31543  12.598   8.739   4.336 -0.1742 -0.1133  0.1155
15470W        W31544  17.319   2.295  14.197  0.0133 -0.1719  0.0833
15471W        W31545   7.112  17.795   5.138 -0.2984  0.2089  0.1798
15472W        W31546   5.867   6.148   1.226  0.0553  0.2802  0.1400
15473W        W31547  17.331  14.373   3.830  0.2015  0.0176 -0.2302
15474W        W31548  13.028  18.208  14.416 -0.2453 -0.1441  0.1438
15475W        W31549  12.333  16.177  12.396  0.0658  0.1052  0.0851
15476W        W31550   5.256  10.989   2.459  0.1173 -0.0459  0.4510
15477W        W31551  12.656   9.993   1.256  0.0039 -0.0169  0.1301
15478W        W31552   9.635  17.591   3.032 -0.0311  0.0520 -0.1231
15479W        W31553  11.710   4.771   0.399 -0.0200  0.2078 -0.0010
15480W        W31554   8.807   4.014  13.069 -0.1370  0.2976  0.0528
15481W        W31555  11.696   2.580   1.722  0.1499  0.0926 -0.0961
15482W        W31556   6.847  13.405   2.150 -0.0863  0.1170 -0.2767
15483W        W31557  13.981  16.908   2.489  0.0709 -0.1557 -0.1243
15484W        W31558   6.971  10.547   3.474 -0.0377  0.1117 -0.0346
15485W        W31559   3.791   1.101   3.357  0.1711  0.1413 -0.2512
15486W        W31560   5.059   2.878   2.785  0.3355 -0.1936 -0.2298
15487W        W31561   8.149   1.465  15.872 -0.2803  0.1270  0.0436
15488W        W31562  11.722   4.738  12.110  0.2656 -0.2284 -0.2936
15489W        W31563  16.805   6.219  11.378 -0.4950 -0.1510  0.0269
15490W        W31564  11.222  13.313   4.087 -0.0211 -0.0992 -0.3182
15491W        W31565  10.115   5.825  14.774  0.2722  0.1961 -0.0020
15492W        W31566  15.943  10.705   1.737 -0.0029 -0.0794  0.2329
15493W        W31567   8.145  15.302   3.452 -0.1177 -0.0086 -0.5930
15494W        W31568   4.329   2.974  14.379 -0.1937  0.0869 -0.0010
15495W        W31569   2.897   7.405  14.442  0.0249  0.0802 -0.0684
15496W        W31570   1.656  10.089  16.181 -0.0687 -0.0010  0.0434
15497W        W31571  10.323  16.032   5.837 -0.0087 -0.3086 -0.0745
15498W        W31572   5.631   7.478   0.845  0.1032  0.2506  0.1755
15499W        W31573  12.795  16.939  12.261  0.3187 -0.1681  0.1297
15500W        W31574   8.276   5.021  14.545  0.0351  0.1065 -0.4738
15501W        W31575  11.350   7.290  11.291  0.0897 -0.1984 -0.0478
15502W        W31576   7.174  17.386   4.504  0.1734 -0.2660  0.1214
15503W        W31577  14.511   9.899   4.641 -0.1991 -0.0268  0.0763
15504W        W31578   2.605  14.644  16.032  0.0017 -0.0665 -0.1157
15505W        W31579   4.149   0.717  12.568 -0.2246 -0.1326  0.0691
15506W        W31580   4.270  11.331  15.521 -0.1612 -0.2789  0.1159
15507W        W31581  10.208   8.935   2.373  0.1964 -0.1692  0.0365
15508W        W31582   6.494  12.324  16.150  0.0727 -0.5762  0.3327
15509W        W31583  11.329   8.321  11.609 -0.2381  0.1698 -0.1171
15510W        W31584   1.194   4.638  16.284  0.0484 -0.1053  0.0297
15511W        W31585  15.935   1.608   3.067  0.2571 -0.0903 -0.1992
15512W        W31586  14.064   8.806   3.173  0.0844  0.1059  0.1089
15513W        W31587   5.241   5.911  14.322  0.1512 -0.1943 -0.0850
15514W        W31588  14.060   2.977   4.216 -0.2270  0.1638 -0.0412
15515W        W31589  17.443   3.283  15.167 -0.0323 -0.2101 -0.1147
15516W        W31590  16.680  12.225  11.328 -0.0951  0.0876 -0.3259
15517W        W31591  12.628  12.634  11.239  0.0611  0.1917  0.2384
15518W        W31592   4.602   7.436   1.117 -0.0882 -0.0193  0.1851
15519W        W31593   9.258   6.758   2.782 -0.4274  0.2113  0.1529
15520W        W31594  16.652   3.475  14.962 -0.3232  0.3909 -0.1897
15521W        W31595  10.742   7.986  11.209 -0.1687  0.3165 -0.1818
15522W        W31596  16.413  12.669   0.867 -0.0552 -0.0177 -0.2242
15523W        W31597  14.745   3.782  14.747  0.0593  0.0101  0.2253
15524W        W31598  11.262   8.319   3.842  0.5397 -0.1381  0.2758
15525W        W31599  16.989  14.371   1.126 -0.2218  0.1793 -0.1473
15526W        W31600  14.187   4.193  15.642 -0.0760  0.2304 -0.0272
15527W        W31601  14.144  16.730  15.315  0.3709 -0.0359 -0.1646
15528W        W31602   3.524  14.385   1.952  0.0151  0.1288 -0.2618
15529W        W31603   6.995  15.128  12.000  0.3209 -0.1967 -0.2208
15530W        W31604  14.321   4.853  15.061  0.1757  0.0052 -0.0006
15531W        W31605  16.230  10.675  14.175 -0.0684 -0.2099 -0.0116
15532W        W31606  14.666  13.650   0.608  0.0632  0.1377  0.1417
15533W        W31607  17.158   1.343  13.504  0.1276 -0.2356 -0.0183
15534W        W31608   4.879   6.198  13.453  0.0118  0.3541  0.2578
15535W        W31609  12.801   9.307  14.842  0.0665  0.2360 -0.1568
15536W        W31610   3.995  13.104   1.043  0.2945 -0.0438  0.0628
15537W        W31611   6.517   5.167  14.321  0.2361 -0.1184  0.1137
15538W        W31612  14.026  10.623   0.318  0.2474  0.2145  0.4633
15539W        W31613   5.308   0.083   4.130 -0.0034  0.2705  0.2333
15540W        W31614   0.883   4.647  11.824 -0.2003 -0.4497  0.1365
15541W        W31615   2.312   0.569  12.465  0.1395 -0.2037  0.2917
15542W        W31616   2.006   2.233   1.434 -0.3981 -0.3435 -0.0396
15543W        W31617   8.496   6.693   1.217 -0.0257  0.0827 -0.0542
15544W        W31618   3.016   2.689  12.014  0.0235  0.1201  0.0513
15545W        W31619   1.850   9.981   2.637 -0.4521 -0.0342 -0.1848
15546W        W31620  17.805   2.543  15.527  0.1572  0.0959 -0.0996
15547W        W31621   8.769   2.089   1.384 -0.1135 -0.2371 -0.0198
15548W        W31622   6.832   7.564   4.956  0.0269  0.1072  0.1197
15549W        W31623   0.394  17.001   3.208  0.0085  0.0522 -0.0628
15550W        W31624  16.741   8.937  16.425 -0.0634 -0.1071 -0.1760
15551W        W31625  15.342  16.925   3.591  0.1298  0.0967 -0.0370
15552W        W31626  16.490   9.061   2.414 -0.0173  0.1893  0.2110
15553W        W31627   0.662  17.795  15.912  0.0045 -0.0978  0.1507
15554W        W31628  11.515  10.432  14.769  0.0164 -0.1222 -0.0177
15555W        W31629  10.987  17.195  12.595 -0.2413 -0.0728 -0.3248
15556W        W31630   3.505  12.453   5.796 -0.0165  0.0299 -0.0741
15557W        W31631   9.287   5.256   2.985 -0.2345  0.2344 -0.1984
15558W        W31632   5.544  11.752  15.526  0.4649  0.0224 -0.2807
15559W        W31633   6.196   4.646   4.387 -0.2770 -0.1035  0.3910
15560W        W31634   3.134  14.222   1.051 -0.0549 -0.0808  0.1532
15561W        W31635  13.031   7.083   1.888  0.0732 -0.2220 -0.0700
15562W        W31636   0.896   0.444   1.213  0.1792 -0.0288 -0.0792
15563W        W31637   1.782  15.285  16.065 -0.0567 -0.0275 -0.1234
15564W        W31638   7.963   4.162   5.287  0.2111 -0.0107 -0.0804
15565W        W31639   1.976   1.294   0.139  0.1090 -0.5006  0.0410
15566W        W31640   1.907  11.171   1.215  0.1959 -0.2151  0.2364
15567W        W31641   9.694   8.800  14.602 -0.1092  0.0316  0.0924
15568W        W31642   2.647  16.016  12.749  0.0399  0.2748 -0.1013
15569W        W31643   6.586  14.640   0.882 -0.0391 -0.2650  0.0009
15570W        W31644  11.303   0.433  14.205  0.0121 -0.3470 -0.1299
15571W        W31645   7.918  16.575  13.114 -0.0517  0.3214  0.0311
15572W        W31646   6.863  16.355   0.755 -0.0367 -0.1300  0.1515
15573W        W31647  16.527  10.438   0.002  0.2026 -0.2524  0.0600
15574W        W31648  16.776  15.851   3.799 -0.3125 -0.2518 -0.3621
15575W        W31649   8.566  15.872   1.570 -0.0091 -0.1490  0.1006
15576W        W31650  14.541  18.041  14.293  0.1266  0.0756  0.0599
15577W        W31651  16.418  16.777   0.988  0.0271 -0.0561  0.0478
15578W        W31652   1.018   8.071  13.598  0.0275  0.0411 -0.0519
15579W        W31653   3.928   5.467   3.067  0.2311 -0.2014  0.0349
15580W        W31654  11.111  16.264   0.189 -0.0385 -0.1441  0.1818
15581W        W31655  15.587   7.517  12.963 -0.0243  0.2400  0.1061
15582W        W31656   8.481  11.156   3.586 -0.4028  0.0219  0.0017
15583W        W31657   8.192  12.236  13.541 -0.0459 -0.2472 -0.0342
15584W        W31658  13.584   5.290   3.038  0.1277 -0.2931  0.0971
15585W        W31659  10.266   0.422   1.386 -0.2960  0.3321 -0.1211
15586W        W31660  12.402  14.740  12.845  0.1780 -0.2111 -0.2039
15587W        W31661   7.055   3.979  12.367  0.0094 -0.2377 -0.1392
15588W        W31662   9.458  13.605   2.612 -0.1498  0.0353  0.2260
15589W        W31663   9.930  10.295   0.111 -0.0504  0.0548  0.0451
15590W        W31664  12.279   9.899  15.977  0.2327 -0.0869 -0.2173
15591W        W31665  16.153   7.284  14.081 -0.1893 -0.1331 -0.1177
15592W        W31666  15.699  14.904   4.887 -0.3279 -0.1515 -0.0925
15593W        W31667   2.567  18.012   0.065  0.1060 -0.0949 -0.4046
15594W        W31668  13.697  10.539  15.325  0.0647 -0.0023  0.0274
15595W        W31669   8.141   3.117   2.993 -0.1277  0.1217  0.0278
15596W        W31670   5.523  11.972  13.698 -0.1448  0.0143 -0.1066
15597W        W31671   0.750  11.774   1.151 -0.1399  0.0975  0.1794
15598W        W31672  17.192   3.523   1.017  0.1818 -0.2430  0.0056
15599W        W31673  16.251  15.423   0.074 -0.0921  0.0517 -0.0724
15600W        W31674  14.931   4.937  13.847 -0.0399  0.0368 -0.2415
15601W        W31675  18.143   1.119  14.170 -0.0364 -0.0610  0.0879
15602W        W31676  17.919   7.196  12.861  0.1912  0.4721 -0.0701
15603W        W31677   2.962  18.099  15.208 -0.2668 -0.2585 -0.0558
15604W        W31678   5.093  12.909  16.297  0.2321 -0.0919  0.3014
15605W        W31679  15.056   8.839   3.310  0.0362  0.2284  0.0211
15606W        W31680  12.856   0.775  12.765  0.0187 -0.1893  0.0335
15607W        W31681  12.105   4.691   2.915  0.0010  0.1624  0.1708
15608W        W31682  12.243  10.709   0.243  0.0683  0.1752  0.2352
15609W        W31683  17.952  16.331  14.084  0.1735 -0.2400  0.0061
15610W        W31684   2.258  12.675   3.186 -0.0992 -0.1664 -0.1254
15611W        W31685  15.578  15.313   4.564  0.1498 -0.2545  0.1563
15612W        W31686  13.718   5.694   2.766 -0.3652 -0.0042  0.1762
15613W        W31687   7.447   5.927   4.949 -0.1477 -0.1877 -0.2063
15614W        W31688  15.752   2.670   1.898  0.3608 -0.3220 -0.0166
15615W        W31689   2.944   9.492  11.747 -0.0111 -0.1322 -0.2989
15616W        W31690   5.089  11.233   2.886  0.0797 -0.1415  0.1391
15617W        W31691   0.074  14.844   2.617 -0.1541 -0.0143  0.1602
15618W        W31692   8.917  16.452  11.724  0.1177 -0.0220 -0.1018
15619W        W31693  16.765   7.614  13.808  0.5631 -0.0641  0.0842
15620W        W31694   3.057   6.628   0.891  0.1031  0.0950 -0.1388
15621W        W31695   7.085  14.650   4.858 -0.3586 -0.1341 -0.4110
15622W        W31696  15.228   0.525   3.885  0.2817  0.0191  0.3693
15623W        W31697   0.785   5.672   4.458 -0.0401 -0.1912 -0.4339
15624W        W31698  16.682   6.774  13.229  0.2053  0.0351  0.0832
15625W        W31699  11.596   9.629  14.087 -0.2064  0.0128  0.0210
15626W        W31700   9.681   4.944   0.470 -0.1559  0.3708  0.1157
15627W        W31701  11.782  17.038  15.600  0.4287  0.2551 -0.0224
15628W        W31702   2.469   8.962  15.960 -0.1578 -0.2236 -0.0420
15629W        W31703  13.324  13.599   5.438  0.0786  0.1072  0.1994
15630W        W31704   2.760   1.035  13.080 -0.1955 -0.0280 -0.1848
15631W        W31705   0.299   2.400  12.906  0.1764 -0.0812 -0.1279
15632W        W31706  12.088   7.559   1.998  0.0417 -0.1080  0.1836
15633W        W31707  14.928  12.048  12.681  0.4176  0.0573 -0.3125
15634W        W31708  16.679  16.553  15.841 -0.1259  0.2240 -0.2413
15635W        W31709   1.430   3.525   4.113 -0.0275  0.3278 -0.4122
15636W        W31710  18.137  14.674  13.182  0.1340  0.3118  0.0157
15637W        W31711   7.963  16.342   2.793  0.0947  0.1576  0.2708
15638W        W31712   8.997   0.634  13.929  0.2426  0.0674  0.0362
15639W        W31713  16.762  11.998   0.105  0.0083  0.2240  0.0724
15640W        W31714   6.776   1.081  11.990 -0.0745 -0.0806 -0.0912
15641W        W31715  12.571   1.169  12.172 -0.3677  0.1069 -0.0974
15642W        W31716   4.706   4.036   0.526 -0.0287 -0.0452  0.0061
15643W        W31717   9.116   5.974  13.034 -0.1886 -0.2684 -0.0676
15644W        W31718   5.637   6.854   1.834 -0.0026 -0.1011  0.0678
15645W        W31719   6.966   1.020   5.619  0.0071  0.1217  0.1841
15646W        W31720   8.115   6.992   1.277 -0.0291  0.0300  0.0660
15647W        W31721   5.792   5.281  14.004 -0.0258 -0.0234  0.0523
15648W        W31722  14.642  15.784   5.148 -0.2637 -0.0748  0.0978
15649W        W31723  16.630   7.919  15.945  0.1731  0.4122 -0.3167
15650W        W31724   6.845  17.783  12.827  0.2039 -0.2287  0.2481
15651W        W31725  12.415  15.561   0.571  0.4500 -0.2611  0.1343
15652W        W31726   7.462   6.047   1.731  0.1098 -0.0619  0.1208
15653W        W31727  10.812  14.809  13.317 -0.1734  0.0675  0.2317
15654W        W31728   5.186  11.531  13.635 -0.0825 -0.0016 -0.1068
15655W        W31729   2.685   5.837   2.250  0.2934 -0.0499 -0.2266
15656W        W31730   4.138   3.904   1.941  0.2427 -0.1688  0.1159
15657W        W31731  13.727   7.821  16.099  0.2223  0.1221  0.1466
15658W        W31732   8.842   4.215   0.588  0.1152 -0.2381  0.1433
15659W        W31733   2.841   9.753   1.725  0.2015  0.0683  0.1321
15660W        W31734  11.534   2.539   4.134  0.1170  0.2576  0.0005
15661W        W31735   0.914   8.076  14.451  0.0398 -0.1677 -0.0077
15662W        W31736  12.598   2.907  16.505 -0.2063  0.1019 -0.1436
15663W        W31737   2.392   6.967  13.588  0.2447 -0.1105 -0.0519
15664W        W31738  10.910   2.127  15.251 -0.1127 -0.4056 -0.0970
15665W        W31739   1.285  13.725  14.097  0.0612 -0.0843  0.1093
15666W        W31740  16.389  17.313   0.137 -0.0909 -0.2358  0.3250
15667W        W31741  14.254   8.132   0.543 -0.1354 -0.3056  0.1776
15668W        W31742   8.135   1.251   2.665  0.1015  0.0597 -0.1875
15669W        W31743  15.576   8.889   3.335 -0.2875 -0.1038 -0.1317
15670W        W31744   0.970  10.462  13.478 -0.0135  0.0244  0.0110
15671W        W31745   5.122  18.200  15.352  0.0235  0.0145 -0.4441
15672W        W31746   0.274   1.489  10.993  0.0357 -0.2633  0.0443
15673W        W31747   1.218   1.011  15.060  0.1202 -0.2850  0.1640
15674W        W31748   0.537  13.167   3.570 -0.1093 -0.0646 -0.2056
15675W        W31749  12.007  11.751   5.754  0.1838 -0.0180  0.2569
15676W        W31750  14.048   3.194  14.562  0.1270  0.3078 -0.1658
15677W        W31751   6.700  17.285  13.484 -0.2561  0.2384  0.1505
15678W        W31752  16.516   9.212   1.461  0.2128 -0.1166  0.0400
15679W        W31753  10.249  12.266   0.317  0.1321 -0.3577 -0.3701
15680W        W31754  11.377   4.920   0.782 -0.0207 -0.1407 -0.1770
15681W        W31755  10.494   0.054   1.955 -0.1643  0.1783  0.0368
15682W        W31756  11.079   1.622   2.549  0.0254 -0.2310 -0.1729
15683W        W31757   7.646  11.835   4.762  0.1850 -0.1528  0.0183
15684W        W31758  16.413   2.024  13.852 -0.3517  0.1111  0.0544
15685W        W31759  12.168  12.594  15.351 -0.2314 -0.2048 -0.2101
15686W        W31760  13.042   5.876  16.535 -0.1385 -0.2969 -0.1390
15687W        W31761  15.644   2.592  12.189  0.2637 -0.2084 -0.0564
15688W        W31762   5.856   4.836   5.975  0.0022  0.0548 -0.2017
15689W        W31763   6.059   0.658   2.519 -0.0143 -0.1753 -0.3140
15690W        W31764   2.022   2.461   2.264  0.0069 -0.1616  0.0968
15691W        W31765  15.590   4.771   5.309  0.0368  0.0243 -0.2280
15692W        W31766   1.932   2.944   2.067 -0.0481 -0.1937 -0.1782
15693W        W31767   9.457  11.013   1.710 -0.2475 -0.0189  0.2359
15694W        W31768  10.425   6.689  16.516  0.2876  0.0293 -0.1123
15695W        W31769   5.746   5.730  14.302  0.0599  0.0798  0.1051
15696W        W31770  12.559  14.705   1.411  0.1892  0.1035  0.2995
15697W        W31771  13.311  17.179  12.108 -0.1096 -0.3036  0.2867
15698W        W31772  15.904   5.395   3.379  0.0902 -0.1558 -0.0345
15699W        W31773  10.819   6.967   2.187 -0.0679  0.2126  0.1550
15700W        W31774  16.363  17.718  14.325  0.0076 -0.0809 -0.4568
15701W        W31775  17.847   4.455   4.864  0.2803 -0.1046 -0.0182
15702W        W31776  12.248   3.631  11.992 -0.1585 -0.1347  0.1028
15703W        W31777   1.264   6.670  15.962  0.1380  0.1835 -0.0335
15704W        W31778  13.309  17.558  13.010  0.2616 -0.0054 -0.0091
15705W        W31779  16.858   9.085   3.888 -0.1277  0.1674  0.3562
15706W        W31780   6.481  12.622  13.644  0.3681 -0.1993 -0.0336
15707W        W31781   2.659  14.411   1.596  0.0825 -0.3060  0.1353
15708W        W31782   5.068   9.387  15.469  0.0045  0.0464 -0.1735
15709W        W31783   3.030   7.344  13.983  0.1829  0.0751 -0.0972
15710W        W31784  13.151  14.187   4.712  0.0861 -0.1563  0.0987
15711W        W31785  15.937   6.994   5.454  0.1436  0.3632  0.1759
15712W        W31786  11.828   4.748  13.389  0.0182  0.1988 -0.4281
15713W        W31787   1.700   2.680   1.644  0.0978  0.1736  0.0422
15714W        W31788   3.318  12.360   4.632 -0.1736 -0.4215 -0.0417
15715W        W31789  17.823  15.268  12.137 -0.1398  0.0047  0.0299
15716W        W31790   3.955   0.750   1.120 -0.3074 -0.1799  0.1266
15717W        W31791   3.623  16.491  12.478 -0.1316 -0.2342  0.4667
15718W        W31792   6.822  14.672   4.399  0.0688  0.1266  0.0999
15719W        W31793  14.855  12.486   4.456 -0.0428 -0.0129 -0.3550
15720W        W31794  16.248   5.199  16.489  0.3226  0.2630 -0.0325
15721W        W31795   1.602  13.893  11.261 -0.2365  0.0904  0.1712
15722W        W31796   6.004   1.134   2.481 -0.2189 -0.2016 -0.3330
15723W        W31797  10.415   0.557   6.212 -0.1294 -0.2290 -0.1007
15724W        W31798  10.691  14.298  13.923 -0.3583 -0.2398 -0.1990
15725W        W31799  15.945   6.032  15.922  0.0859 -0.0162  0.1467
15726W        W31800   6.379  15.828   0.915  0.0853 -0.1888  0.2902
15727W        W31801   9.654   8.052   2.298  0.0156  0.0583  0.0126
15728W        W31802  11.245   6.170  14.949  0.0973 -0.1428  0.1172
15729W        W31803  16.178  14.151   5.943  0.0206  0.2633 -0.2436
15730W        W31804   7.937  12.098  14.020  0.1331  0.0144  0.2041
15731W        W31805   1.017  14.617  11.452  0.2712 -0.1061 -0.0524
15732W        W31806  10.167   9.062  13.661 -0.0415  0.2029  0.0046
15733W        W31807   8.551   7.241   0.432  0.0157  0.0858  0.1452
15734W        W31808   2.408  11.558  16.343  0.1269  0.1231 -0.0445
15735W        W31809   4.862  12.920  13.319 -0.0808 -0.1485  0.0459
15736W        W31810  17.688  10.539   0.327  0.0552 -0.3745  0.3301
15737W        W31811   3.831  16.750   1.573 -0.0373 -0.2514 -0.0647
15738W        W31812  12.043   5.110  14.468  0.0522 -0.1286 -0.1881
15739W        W31813  12.722   7.377  13.946 -0.0162  0.1000  0.1540
15740W        W31814   0.162  13.073  14.943  0.0957  0.0025  0.0384
15741W        W31815  16.498  17.291   1.401  0.0594  0.0432 -0.2471
15742W        W31816  16.753   5.685   4.182 -0.0833  0.1221 -0.0411
15743W        W31817   5.597  13.213   0.510  0.1477 -0.1876  0.0405
15744W        W31818  12.528   4.230   6.623 -0.0449  0.1573 -0.0371
15745W        W31819   2.339   4.870  15.958  0.2295 -0.0030  0.0425
15746W        W31820  13.943  13.284  14.571  0.0247  0.3853  0.0293
15747W        W31821   6.520  14.200  14.764 -0.0175 -0.0046 -0.0054
15748W        W31822   3.179  11.609   0.297  0.2580  0.0156  0.0557
15749W        W31823  12.227  10.693   3.948  0.4333  0.1775  0.1457
15750W        W31824   7.529   4.181  16.315  0.0248 -0.2066  0.0362
15751W        W31825   0.240   4.975   6.474 -0.2714 -0.0858  0.0056
15752W        W31826   0.738   3.100   4.304  0.3265 -0.1006  0.2521
15753W        W31827  15.719   8.234   5.381 -0.1373  0.1105 -0.1595
15754W        W31828   2.764   8.640  11.420  0.2727  0.1756  0.1704
15755W        W31829  16.556  14.873  12.187  0.2494  0.0696 -0.3790
15756W        W31830   7.255   0.730   3.702 -0.3374  0.1461 -0.3148
15757W        W31831  14.949  10.642   0.251  0.0983 -0.0870  0.2484
15758W        W31832   1.134  12.606  11.135  0.0478 -0.1453  0.0832
15759W        W31833   5.405   4.295   2.261  0.2120  0.0800 -0.1369
15760W        W31834   8.350   3.223  16.083 -0.1696  0.2751  0.1806
15761W        W31835   5.065  14.824   1.595 -0.4065 -0.1765 -0.2023
15762W        W31836   8.841   5.401   1.397  0.1801  0.0760  0.0987
15763W        W31837   6.135  13.077  14.718  0.0197 -0.3496 -0.0118
15764W        W31838   2.742  10.780  14.770 -0.0936  0.1082 -0.4360
15765W        W31839  17.591   6.493   2.829  0.1918  0.0262  0.1225
15766W        W31840   9.050  12.816   1.412 -0.0530  0.0167  0.3100
15767W        W31841  12.539   1.955   1.819  0.0812  0.1122  0.1951
15768W        W31842   5.028  10.965  13.686 -0.0694 -0.1941 -0.4284
15769W        W31843  13.765  16.494   4.316 -0.1138  0.1426  0.0393
15770W        W31844   3.396   6.995   6.091 -0.0455 -0.0669 -0.0831
15771W        W31845  11.420  17.393   2.104 -0.1976 -0.0460  0.4427
15772W        W31846   0.456   7.973  13.729 -0.4092  0.1459  0.1294
15773W        W31847   9.204   3.255  11.668  0.0654  0.1899 -0.0316
15774W        W31848   2.591   7.389   2.867  0.2607 -0.4269 -0.0600
15775W        W31849   7.234   7.179  14.980 -0.5979 -0.1301 -0.4293
15776W        W31850   6.510  13.137   0.309 -0.0184  0.3443 -0.1825
15777W        W31851   1.191  13.655   0.312  0.0573  0.2378  0.0533
15778W        W31852   6.164   3.412   2.607 -0.0530  0.2910  0.2382
15779W        W31853  12.469   1.473   2.770  0.0484 -0.0607 -0.0110
15780W        W31854   3.131   0.791   3.868  0.1625  0.1058  0.2479
15781W        W31855   4.486   8.651   4.074  0.1577  0.3916  0.1592
15782W        W31856   9.939  10.207  16.151 -0.0505 -0.0684  0.0005
15783W        W31857  18.012   3.963  11.906  0.2204  0.0898  0.0343
15784W        W31858   5.176   8.084  13.949  0.1502 -0.0851  0.4593
15785W        W31859   9.937  13.331   4.383  0.1343 -0.0690  0.3640
15786W        W31860   9.366  14.666   0.677  0.1265 -0.1480 -0.2544
15787W        W31861   4.804   6.482   2.800 -0.3733  0.0665 -0.1711
15788W        W31862  13.453   5.194   0.504  0.1355 -0.1536  0.0581
15789W        W31863   7.511  16.580   4.125  0.1250  0.0741 -0.3030
15790W        W31864   5.221  10.952  14.542 -0.0617  0.2323 -0.1702
15791W        W31865  15.546  12.290  11.205  0.0198 -0.0297  0.0237
15792W        W31866  14.699   4.485  15.466 -0.0742 -0.0503 -0.0028
15793W        W31867   8.270  12.688   5.418 -0.0515 -0.1297  0.0698
15794W        W31868  18.078  12.003   0.686  0.0495  0.4892 -0.0624
15795W        W31869   8.512   6.686  12.413  0.1419 -0.0091 -0.0675
15796W        W31870   4.769  16.937  16.248 -0.0206  0.1387 -0.2864
15797W        W31871  16.087  13.260   3.317  0.0856 -0.3780 -0.1149
15798W        W31872   6.969   2.783   1.944  0.0473  0.1768  0.3888
15799W        W31873  17.754  14.364   3.579  0.2103  0.0468 -0.0947
15800W        W31874   7.066   8.808   4.380  0.1394 -0.2768  0.1049
15801W        W31875  10.676  16.749  13.129  0.0055  0.0541  0.0669
15802W        W31876  11.415   6.660  15.233 -0.0492  0.1452  0.1204
15803W        W31877  17.788  16.497   2.987  0.1482  0.2232 -0.0734
15804W        W31878   5.118  15.683   4.691 -0.0408 -0.0048  0.1195
15805W        W31879  17.037   6.497  15.284 -0.1386 -0.0936 -0.2103
15806W        W31880  15.539   8.131  14.203  0.0082 -0.1597  0.0243
15807W        W31881   6.026   3.299  13.238 -0.1345  0.3902 -0.1212
15808W        W31882   3.180  17.355  13.000 -0.2505  0.1042 -0.0112
15809W        W31883  16.138   0.862   1.274  0.4605 -0.1040 -0.1450
15810W        W31884  11.869  10.447   2.590  0.0211 -0.2080 -0.1505
15811W        W31885   8.563   8.747   0.138 -0.2032  0.0143  0.1166
15812W        W31886   8.370   3.706  12.923  0.0123 -0.0032  0.2140
15813W        W31887  16.900  11.102   4.600  0.0103 -0.2205  0.0962
15814W        W31888  16.092   7.531   4.630 -0.0914  0.0732  0.0458
15815W        W31889   3.692  15.570   0.558 -0.1213  0.0437  0.1339
15816W        W31890   4.272  12.782   3.217  0.2870 -0.1241 -0.0658
15817W        W31891   6.452   0.606  14.992  0.0688 -0.2943 -0.0340
15818W        W31892  17.010  16.016  16.375 -0.0624 -0.3711  0.1313
15819W        W31893   1.432   6.309   6.283 -0.1901  0.0346 -0.0826
15820W        W31894   4.692  12.391  13.334 -0.4354 -0.0881 -0.3221
15821W        W31895   5.228  11.231   4.260 -0.2212  0.0349  0.0181
15822W        W31896   3.262   9.124  15.302 -0.0277  0.1964 -0.1587
15823W        W31897   8.571  11.796   0.254  0.2298  0.0357  0.2598
15824W        W31898  10.368  15.027   4.134 -0.6030 -0.0202 -0.2130
15825W        W31899  10.209   1.377   4.230  0.0921  0.0875  0.1475
15826W        W31900  16.081   6.786   1.167 -0.0174 -0.0650 -0.0722
15827W        W31901  15.936   5.808   5.083 -0.0575  0.3910 -0.0768
15828W        W31902   4.294  17.469   2.909  0.0298 -0.2734 -0.0060
15829W        W31903  16.479  14.945   4.853  0.0820 -0.0460 -0.0765
15830W        W31904  13.395   0.375   4.220 -0.1118  0.1832 -0.0417
15831W        W31905   4.776   2.057  13.153  0.1246 -0.1295  0.0684
15832W        W31906   0.831   1.421  14.538  0.3710  0.0652 -0.0767
15833W        W31907  10.947   8.993  11.825  0.0999 -0.1687  0.1082
15834W        W31908   1.912   4.814   3.282  0.1046  0.1899  0.2971
15835W        W31909   6.298  13.676   0.659  0.2102 -0.4002 -0.2145
15836W        W31910  10.515  16.787  16.190  0.0662  0.0974  0.0751
15837W        W31911   7.927  11.740  14.537 -0.0015 -0.0270 -0.0306
15838W        W31912  13.109   2.839  15.205  0.1444 -0.0019 -0.3649
15839W        W31913  11.089  10.296  11.394 -0.4211 -0.2060  0.2213
15840W        W31914   9.146  17.551   2.843  0.0031 -0.0878 -0.1526
15841W        W31915  14.502   8.150   5.747  0.0087 -0.1435 -0.0323
15842W        W31916  16.567  12.621   1.378  0.1509  0.3769  0.4562
15843W        W31917  13.959  11.402   0.884  0.0122  0.0175  0.2222
15844W        W31918   3.133  16.344  16.312 -0.1147  0.2037  0.0046
15845W        W31919  12.922   8.277   4.336 -0.2780  0.0312  0.3567
15846W        W31920  13.231   8.040  15.040 -0.0635  0.0355  0.2978
15847W        W31921   3.830   4.959   3.039  0.2069  0.0100  0.1373
15848W        W31922   5.672   1.237   3.029 -0.0534  0.2369  0.0997
15849W        W31923   9.395  10.687   4.909 -0.4535 -0.0840  0.0816
15850W        W31924   5.843   7.013   4.436 -0.0034 -0.3573  0.3572
15851W        W31925  17.142  15.217  11.667  0.0038 -0.0952 -0.0483
15852W        W31926  13.720   5.939  15.724 -0.3377 -0.3420  0.2678
15853W        W31927  11.000  17.315  13.602 -0.1976  0.2520 -0.2924
15854W        W31928  12.395   5.636   0.969 -0.1723  0.1220  0.0885
15855W        W31929  15.085   7.506  12.758  0.0040 -0.0141  0.1445
15856W        W31930   4.697   4.888   2.196  0.0365  0.1130  0.0640
15857W        W31931   9.322  17.191   5.075 -0.0874 -0.1740 -0.0247
15858W        W31932  16.831   6.288  14.018  0.1563  0.2260  0.3331
15859W        W31933  11.007   7.808   2.567 -0.2136 -0.2010 -0.3121
15860W        W31934  16.061   4.924   5.224 -0.0842  0.3975 -0.1413
15861W        W31935   8.540   5.501   2.141  0.0873  0.1312 -0.0207
15862W        W31936   1.815   3.793   2.651 -0.2275 -0.0075 -0.1079
15863W        W31937  17.081  17.471   2.442 -0.2380  0.0843 -0.0850
15864W        W31938   5.646   5.648  12.611  0.4710  0.1054 -0.0768
15865W        W31939  17.299   7.982  11.718 -0.1287  0.2775 -0.1161
15866W        W31940   8.956   7.831   3.547  0.2016 -0.2922 -0.0017
15867W        W31941   0.029   9.009  15.808 -0.0588  0.0996 -0.3274
15868W        W31942   5.658  13.418  14.935 -0.3422  0.3539  0.0877
15869W        W31943  11.419  13.498  16.033  0.0187 -0.1772  0.3840
15870W        W31944  13.297  10.067  12.046 -0.0110  0.1634 -0.0134
15871W        W31945   4.067  11.632   1.474 -0.0515  0.0196  0.1054
15872W        W31946   7.900  17.516   0.295 -0.0054 -0.2302 -0.2231
15873W        W31947  17.203  12.202   4.135 -0.0237  0.0978 -0.2501
15874W        W31948   1.204  18.041   0.020  0.0027 -0.2035  0.1115
15875W        W31949   5.410  12.018  12.820  0.2367  0.2716 -0.1461
15876W        W31950  17.270  11.394   0.943  0.5845 -0.5166 -0.5019
15877W        W31951  15.641  15.200  11.635 -0.2094 -0.2239 -0.0088
15878W        W31952   4.833   8.232  11.108 -0.3477 -0.0409  0.1626
15879W        W31953   6.735   1.953   2.881 -0.0022  0.0438 -0.2983
15880W        W31954   7.292   3.963   3.797  0.1689 -0.2671  0.0472
15881W        W31955  13.173  13.071   1.603  0.1063 -0.1706 -0.1156
15882W        W31956   7.970  16.177  12.328  0.3633  0.0546 -0.0348
15883W        W31957   5.739  13.457   2.293  0.1017 -0.1423 -0.3089
15884W        W31958  17.145  11.966  12.094  0.2643  0.2384  0.1569
15885W        W31959   1.853   2.153  16.405  0.1886 -0.0881 -0.4061
15886W        W31960  15.383   8.907  15.324  0.0782  0.1150 -0.1398
15887W        W31961  13.374   9.773  11.229  0.0796  0.2214 -0.0752
15888W        W31962  11.161   2.292  12.296  0.0688 -0.2153 -0.0083
15889W        W31963   2.353   1.907   3.813 -0.1335 -0.3219 -0.1946
15890W        W31964   6.861  17.836  14.158 -0.1255  0.2537 -0.1757
15891W        W31965   5.519  15.569  15.264  0.2041 -0.0992 -0.1534
15892W        W31966  16.120   9.524   0.209  0.0984 -0.3185  0.1361
15893W        W31967   7.314  13.387   0.937 -0.3012  0.0752 -0.0087
15894W        W31968  15.311   1.648   3.144  0.2283  0.1159  0.1757
15895W        W31969  18.203  16.329   3.890 -0.1041  0.0403 -0.3506
15896W        W31970  16.767  15.592  13.604 -0.1848 -0.0481 -0.1062
15897W        W31971  11.300  15.041   4.534  0.5231  0.3555 -0.3035
15898W        W31972  12.855   6.296  12.706  0.1007 -0.2533 -0.2966
15899W        W31973   2.882   5.987   2.804  0.1792 -0.0998  0.1641
15900W        W31974  17.967  11.886  12.656 -0.0211  0.0615 -0.0497
15901W        W31975  11.328  14.272  11.384 -0.0759 -0.1187  0.3988
15902W        W31976  18.059  10.916  13.144 -0.0533  0.0550  0.1741
15903W        W31977   7.458  13.627  11.986  0.0367  0.3442 -0.3297
15904W        W31978   2.004  13.552  11.688  0.0887  0.1433  0.2502
15905W        W31979  12.957   0.400  15.340  0.0658  0.1844  0.1463
15906W        W31980   3.351  13.475  12.017 -0.0387  0.0568 -0.0664
15907W        W31981  13.052  17.439   5.071  0.1180  0.2187 -0.1702
15908W        W31982  17.093  10.885   0.991 -0.2656 -0.0171 -0.0412
15909W        W31983  13.050  11.004   4.449 -0.1074  0.0710 -0.0475
15910W        W31984   4.289   1.292  11.727 -0.1064 -0.1335  0.1030
15911W        W31985   6.512  16.161  13.788  0.0940  0.0404  0.1099
15912W        W31986  14.128   4.320  15.175  0.2157  0.0746  0.2591
15913W        W31987  14.698  12.077  11.489 -0.0305 -0.0268 -0.3380
15914W        W31988  10.999   7.857  12.169 -0.3246  0.1556 -0.0796
15915W        W31989   1.078   0.305   3.030  0.0726 -0.1915  0.1588
15916W        W31990  16.375   7.618   1.069  0.0628  0.1818 -0.1224
15917W        W31991   7.786  13.594  12.352 -0.0339  0.1356 -0.0027
15918W        W31992  14.673   9.745   3.439  0.2377 -0.1548  0.1825
15919W        W31993  16.767  13.219   0.098  0.0242 -0.2021  0.0206
15920W        W31994   0.179   0.167   3.391 -0.1611 -0.0165 -0.2451
15921W        W31995  16.578   8.019   3.172  0.0486 -0.1032 -0.0481
15922W        W31996  15.655  13.649   0.438 -0.2663 -0.0455 -0.1819
15923W        W31997   3.242   3.217  11.938 -0.0517  0.3887  0.1593
15924W        W31998   3.740   1.281  11.624  0.0855 -0.2211  0.0901
15925W        W31999  11.400   2.620   4.618 -0.2827  0.0768 -0.0717
15926W        W32000  17.649   5.222   3.608 -0.3975 -0.1068  0.0679
15927W        W32001   5.135  10.237   0.870 -0.2660 -0.0620  0.2536
15928W        W32002   1.784   4.561   5.189  0.0474 -0.1310  0.1562
15929W        W32003   9.809  14.729   0.940 -0.0158 -0.1649  0.0760
15930W        W32004  13.389   7.133  14.773  0.1962 -0.2791 -0.0960
15931W        W32005   9.269   7.575   0.054 -0.1916 -0.1622  0.0753
15932W        W32006  16.366   7.215  11.884 -0.2947 -0.1912 -0.1243
15933W        W32007  16.246   1.959  10.658  0.1885  0.0384 -0.4527
15934W        W32008   4.298   4.258  13.182  0.4067 -0.2102  0.1411
15935W        W32009   2.540   7.080   1.370 -0.3124 -0.0880  0.2027
15936W        W32010  12.097   6.546  15.904 -0.1583  0.3974 -0.0656
15937W        W32011   6.366   9.219  13.171  0.2829 -0.0747  0.3465
15938W        W32012   4.147  11.381   0.406  0.1209 -0.0628 -0.0425
15939W        W32013   7.981  13.461   2.273  0.1094  0.0415  0.0537
15940W        W32014  17.294   7.798  13.832  0.0630  0.3915 -0.0689
15941W        W32015   8.980   3.903   1.578  0.2236  0.0283 -0.0729
15942W        W32016  13.009   6.162  15.583 -0.2576 -0.0381 -0.0001
15943W        W32017   6.931  11.496  13.344  0.1836 -0.0826  0.0059
15944W        W32018  16.912  14.544  11.747 -0.2135 -0.0424 -0.1682
15945W        W32019   0.607   5.196   4.907  0.3558 -0.1949 -0.1524
15946W        W32020   8.048  16.394  15.912 -0.0804 -0.0818 -0.1685
15947W        W32021   1.601   5.375  16.396  0.1762 -0.3409 -0.1936
15948W        W32022   6.641   8.019  11.583  0.1205 -0.0234 -0.1666
15949W        W32023   5.537  13.863  13.684 -0.0610  0.0895  0.0385
15950W        W32024   6.366  17.882   1.689  0.2354 -0.1444  0.0519
15951W        W32025   0.429  12.780  12.934 -0.0230 -0.2541  0.1427
15952W        W32026  18.090  10.013  15.204  0.1695  0.1678 -0.0122
15953W        W32027  12.855  17.839   1.719  0.2669  0.0594 -0.3633
15954W        W32028  11.701  14.010   4.438  0.2768 -0.0651 -0.0040
15955W        W32029   5.228   8.156   0.461  0.0957 -0.3218  0.1255
15956W        W32030   6.178   9.025   1.255  0.1355  0.0657 -0.1476
15957W        W32031   8.845   3.476   4.419 -0.0206  0.1662  0.0407
15958W        W32032   5.987   5.701   1.362 -0.0718  0.1607 -0.0238
15959W        W32033  10.960   2.028  14.133 -0.0051  0.1647 -0.1733
15960W        W32034   0.512   6.203  13.219 -0.0153  0.0406  0.0767
15961W        W32035  13.133   4.223  14.108  0.0977 -0.2544 -0.4414
15962W        W32036   1.476   7.051   2.119  0.0823 -0.0222 -0.3634
15963W        W32037  11.780  16.577  15.293 -0.1594 -0.4446  0.0353
15964W        W32038  11.399  12.443   4.118 -0.0307  0.3104  0.1205
15965W        W32039   9.616   1.012  16.192 -0.1062 -0.0699 -0.1123
15966W        W32040   9.071   4.905   6.035 -0.2442  0.0667  0.1337
15967W        W32041   6.192   4.904  15.764  0.0226 -0.0348 -0.1505
15968W        W32042   5.498  14.715   5.412 -0.0870 -0.0610 -0.1060
15969W        W32043  12.660   0.580   3.286 -0.3526 -0.1747  0.1130
15970W        W32044   3.484   2.481  15.385  0.1863  0.5297 -0.2523
15971W        W32045  16.942   9.138   0.705 -0.0607  0.1204  0.0963
15972W        W32046   8.845   5.006  13.329 -0.1553 -0.0645 -0.2106
15973W        W32047  15.825   3.313  15.387  0.0521 -0.1349 -0.1731
15974W        W32048  13.146  12.312  14.855 -0.0721 -0.3928  0.1399
15975W        W32049  11.666   8.377   5.412 -0.0163 -0.1789  0.2961
15976W        W32050  17.724  12.223   3.508 -0.2861 -0.0304 -0.2183
15977W        W32051   1.536  17.633   5.019 -0.0050  0.1452 -0.1130
15978W        W32052  11.919  15.496  12.877 -0.0608  0.1557 -0.0852
15979W        W32053   1.058   1.063  10.711 -0.1713  0.0511 -0.0642
15980W        W32054   7.397  12.722  13.512 -0.0779 -0.2070 -0.3234
15981W        W32055   8.349  18.089   4.507 -0.0425 -0.0013 -0.1696
15982W        W32056   2.927   5.244   0.015 -0.0796 -0.3187 -0.4573
15983W        W32057   0.111   5.506   0.231 -0.2981  0.0199  0.0465
15984W        W32058   2.097  14.885   3.128 -0.0284 -0.3327 -0.0708
15985W        W32059   8.103  13.270  14.547 -0.2483 -0.0010  0.0487
15986W        W32060   4.027   3.347  16.268  0.0882 -0.1161  0.0100
15987W        W32061  10.379  18.025  16.344 -0.0411  0.0925  0.2743
15988W        W32062   8.789  13.657   2.557 -0.6399  0.1771 -0.1372
15989W        W32063   4.178   9.501   3.270  0.4076  0.3216 -0.1955
15990W        W32064  17.451   4.420   3.117 -0.0316 -0.0751 -0.1122
15991W        W32065   1.619   3.850   1.526 -0.4418 -0.0704  0.2186
15992W        W32066  16.594   9.411   5.032  0.0199 -0.0150  0.0532
15993W        W32067  12.078   6.895  13.402 -0.1900 -0.3652  0.0817
15994W        W32068   4.741   9.181   1.692 -0.0813  0.2232  0.2431
15995W        W32069  16.711   4.932  14.393 -0.2380 -0.3903 -0.0450
15996W        W32070   5.289   4.234  15.942 -0.0562  0.1891  0.2749
15997W        W32071  17.436   0.269  12.457 -0.0409 -0.0421  0.0141
15998W        W32072   7.245   6.508   2.879 -0.1435  0.0384  0.0030
15999W        W32073  13.352   1.781   2.859 -0.0749  0.0696  0.1282
16000W        W32074   8.166   9.944  15.350 -0.1832 -0.3624 -0.1600
16001W        W32075  15.236   3.055   1.734  0.1833  0.0841  0.0604
16002W        W32076  16.171   9.344   2.636 -0.0877 -0.1488 -0.1071
16003W        W32077   4.414   6.280   0.768  0.2169  0.2092 -0.0014
16004W        W32078   3.071  17.491  13.909  0.0751 -0.3818  0.0598
16005W        W32079  12.561   3.577   4.178  0.3871  0.2091 -0.2015
16006W        W32080  17.044   6.778   6.311 -0.3268  0.0440 -0.0212
16007W        W32081   4.789   1.574  14.973 -0.1135 -0.1669  0.1779
16008W        W32082  16.536  10.298  13.988  0.0676 -0.0657  0.0013
16009W        W32083   6.694  16.377  13.358  0.1784 -0.2154  0.0181
16010W        W32084   1.885   7.927  13.974  0.2454  0.1728  0.1827
16011W        W32085   2.709  14.366   2.565  0.3851  0.1746  0.0211
16012W        W32086  11.643   6.469  11.395  0.0138 -0.1445 -0.1707
16013W        W32087  14.074  10.897  10.589  0.2292  0.0567  0.0947
16014W        W32088  13.913   0.740   0.347 -0.0433  0.0207  0.1350
16015W        W32089   4.214   2.462  12.057  0.0746  0.0331  0.0171
16016W        W32090   9.014  13.905  11.577 -0.1790 -0.3045  0.0054
16017W        W32091   6.972   6.161   2.649 -0.1724  0.0313  0.2648
16018W        W32092  17.424   3.181  12.004 -0.3301 -0.2005  0.3756
16019W        W32093  12.068  15.070  15.765  0.1995  0.2909  0.2672
16020W        W32094  16.193   1.346   2.793 -0.0370  0.0759 -0.3210
16021W        W32095  16.786   5.745  16.419 -0.1985  0.0898 -0.0006
16022W        W32096   0.688   6.703  12.137  0.3368  0.0184  0.1920
16023W        W32097   9.630  15.675   4.094 -0.1380 -0.1707  0.1384
16024W        W32098   2.577  12.011   3.376 -0.0010 -0.1305  0.1838
16025W        W32099   9.233   3.529  14.611 -0.3370 -0.2086  0.0469
16026W        W32100   7.364  14.770  13.981  0.0058 -0.1377  0.2324
16027W        W32101   9.735  14.221   3.220 -0.5957  0.1079 -0.0513
16028W        W32102   0.244   6.594  14.462  0.0428 -0.1477 -0.1122
16029W        W32103  16.848  13.280  14.277  0.0730 -0.1013  0.5476
16030W        W32104  11.897   9.166   1.758  0.1487  0.0131 -0.1539
16031W        W32105   9.126   6.033  12.130  0.0092  0.1433 -0.1179
16032W        W32106   0.659   4.287   1.951 -0.0931  0.1250 -0.2700
16033W        W32107  17.586   9.944  13.198 -0.2838 -0.1058 -0.1249
16034W        W32108  14.530   2.480   2.864  0.2480  0.2552  0.0757
16035W        W32109   4.574   0.653   3.035  0.0868 -0.0412  0.0198
16036W        W32110   5.480   2.998   0.560 -0.2582 -0.0271 -0.0190
16037W        W32111   5.769   5.845  13.095 -0.3522 -0.0843  0.1080
16038W        W32112  12.378  17.765   2.344 -0.0059 -0.0295 -0.0680
16039W        W32113  17.008   3.694  13.056  0.0633  0.2684  0.1637
16040W        W32114   4.470   7.994   1.882 -0.3181  0.2807 -0.1966
16041W        W32115   5.249   8.092   2.082 -0.3972  0.0469  0.2974
16042W        W32116   1.416  15.056  15.756 -0.2969  0.0057 -0.0769
16043W        W32117   8.868   1.668   3.749 -0.0201 -0.0095  0.0002
16044W        W32118  10.311  18.021   2.692 -0.2349  0.2850  0.0678
16045W        W32119  14.292  14.593  13.625  0.3853  0.1629  0.0007
16046W        W32120   8.753   7.937  15.406  0.1114 -0.0701 -0.1464
16047W        W32121  14.513   5.102   0.763  0.2397  0.1192 -0.2095
16048W        W32122  15.155   9.664   6.526  0.3845  0.1833 -0.0412
16049W        W32123  11.765   0.413   5.827  0.1096 -0.0416 -0.5533
16050W        W32124  13.087   7.964  13.978 -0.0839  0.0686 -0.1119
16051W        W32125  11.091   7.872  13.164  0.2559 -0.0808 -0.0070
16052W        W32126   7.059  17.949   2.401  0.4129 -0.0325 -0.0123
16053W        W32127   8.108  14.208   1.451 -0.0989 -0.1868 -0.2078
16054W        W32128  14.865   5.718   2.725 -0.3491  0.2880 -0.1752
16055W        W32129  12.588  10.817  13.284  0.1990  0.0707  0.1317
16056W        W32130   1.857   0.897   3.929 -0.0812  0.1355  0.1836
16057W        W32131  15.393  12.928   5.073  0.0281  0.0798 -0.0342
16058W        W32132   9.251  14.341   4.801  0.1112 -0.0082  0.1403
16059W        W32133   7.962  18.143  11.736  0.0923  0.0954  0.3109
16060W        W32134  12.228  16.677  12.581 -0.0892 -0.0748 -0.5292
16061W        W32135   8.131   0.528   0.096  0.2994  0.1948 -0.2972
16062W        W32136   5.932  13.800  15.799  0.1432 -0.0334  0.2303
16063W        W32137  16.348  13.938  16.265  0.0358  0.1850  0.0097
16064W        W32138   0.385  12.112  13.371  0.1532 -0.2679 -0.1866
16065W        W32139   5.990   2.855   4.350 -0.3586 -0.1612 -0.1229
16066W        W32140   0.017   2.112   1.125 -0.0112 -0.1607 -0.0055
16067W        W32141  12.531  16.236  14.000  0.0022 -0.0408  0.1710
16068W        W32142   8.555   1.748  12.516 -0.0079  0.0563  0.0747
16069W        W32143   5.457  11.757   6.587 -0.1420 -0.1243 -0.2276
16070W        W32144  17.189  12.601   4.457  0.1335  0.0564 -0.1424
16071W        W32145  15.716  13.740   4.658  0.0782 -0.1409  0.0547
16072W        W32146  17.904  16.400  12.221 -0.2118 -0.0871  0.0014
16073W        W32147   5.791   8.496  13.087 -0.2228  0.0396 -0.2713
16074W        W32148  12.194  14.599  15.575 -0.0870 -0.5021 -0.1397
16075W        W32149   4.865  14.050   3.718  0.0590  0.2175 -0.0311
16076W        W32150   5.194  17.675  15.314  0.2250 -0.2103  0.3273
16077W        W32151  15.053  10.772   1.555 -0.1364  0.2901  0.2082
16078W        W32152  10.690   3.952  14.549 -0.0576 -0.1883 -0.1124
16079W        W32153   9.590   4.989   5.404 -0.0335 -0.3384 -0.0213
16080W        W32154   3.230   3.147   4.153 -0.0876  0.0914  0.0470
16081W        W32155  17.431  17.519   0.705  0.0273 -0.0237  0.0510
16082W        W32156   2.011   4.217   2.330  0.1779 -0.1327  0.1723
16083W        W32157  15.178  15.624   5.109 -0.0535 -0.2162 -0.1289
16084W        W32158   8.454  16.263   1.214 -0.3280 -0.2780 -0.0086
16085W        W32159  11.773  15.401   3.371  0.3221  0.2097  0.3481
16086W        W32160   7.824   8.853  15.368 -0.0154 -0.1267  0.3447
16087W        W32161   7.039  11.906  11.950  0.1878 -0.0555  0.0393
16088W        W32162   7.691  10.555   1.374 -0.1430 -0.5015  0.2604
16089W        W32163   9.359  13.802  15.522  0.0267 -0.1414 -0.1481
16090W        W32164   4.032   8.627  12.640 -0.2199 -0.2318  0.1417
16091W        W32165   4.334   2.574   5.198  0.4131  0.1660 -0.1504
16092W        W32166   9.806   2.562   1.211  0.4883  0.1517  0.0781
16093W        W32167   9.605   9.855   4.553  0.1499  0.1178 -0.1034
16094W        W32168  11.982  10.127   1.791 -0.2990  0.2141  0.0529
16095W        W32169  12.151   9.269   2.977  0.1712  0.1031 -0.0688
16096W        W32170   0.093   7.721  11.945 -0.1309  0.3176  0.1409
16097W        W32171   4.429  11.143   0.078 -0.0099  0.1980 -0.1490
16098W        W32172   6.047   2.174  14.116 -0.1061  0.2288 -0.1297
16099W        W32173   2.313   9.001   0.282 -0.1455 -0.3098 -0.1310
16100W        W32174  13.749   1.583  11.655 -0.2098  0.1479  0.1932
16101W        W32175   4.043   4.033  11.279  0.0263 -0.2369 -0.0549
16102W        W32176   3.256   2.230   0.103 -0.1122  0.4690 -0.3204
16103W        W32177  14.064   5.835   5.641  0.2432 -0.2092  0.1765
16104W        W32178   8.810  14.994  13.197 -0.2279  0.2202 -0.1703
16105W        W32179   3.629  16.655  13.393  0.0562  0.1077 -0.2482
16106W        W32180   8.312   2.420   1.572  0.3126 -0.0651  0.3311
16107W        W32181  10.127   9.160  15.400 -0.1796  0.1256 -0.1677
16108W        W32182   6.993  18.025  13.288  0.1743 -0.1462  0.0217
16109W        W32183   1.231   3.627   3.633  0.1602 -0.0189 -0.1492
16110W        W32184  12.261   2.939  14.149  0.2385 -0.1180  0.2121
16111W        W32185   9.940  18.093   3.049 -0.1583 -0.1130  0.1145
16112W        W32186  11.077  17.303   2.967 -0.1558  0.0804 -0.2396
16113W        W32187  10.203   7.092   4.252 -0.4959  0.1224  0.3314
16114W        W32188   6.435  12.333   6.392  0.1258  0.0526 -0.0430
16115W        W32189  18.115  13.273  13.639  0.1479 -0.5307 -0.2624
16116W        W32190  13.856   3.278  15.023  0.0910 -0.1947 -0.3275
16117W        W32191   1.581   2.583  11.242  0.0160 -0.2234 -0.2412
16118W        W32192   0.991  17.964   0.448  0.4240  0.2315 -0.0256
16119W        W32193  14.270   9.193   1.968  0.0722  0.1067  0.3504
16120W        W32194   6.347   8.468  11.727 -0.0566 -0.1406 -0.1300
16121W        W32195   5.117   9.520   2.791  0.0788 -0.1154  0.2937
16122W        W32196   1.121   4.384   0.905  0.2097 -0.4325  0.0406
16123W        W32197  14.041  16.183   5.706  0.1919 -0.1417 -0.0145
16124W        W32198  14.371  17.108  15.434 -0.3316  0.0621  0.1422
16125W        W32199   0.079   6.879   2.552 -0.0898 -0.2662 -0.1548
16126W        W32200  18.039  17.681   2.375 -0.3125  0.0603  0.0939
16127W        W32201  16.550   4.495   5.105  0.5036 -0.2091  0.1000
16128W        W32202   1.935   9.630   5.196 -0.1046 -0.0594  0.1331
16129W        W32203   7.129  15.121   0.127  0.3710  0.0623  0.2787
16130W        W32204  12.302   7.711  14.070 -0.2623  0.1537  0.0487
16131W        W32205  13.485  13.193  15.910 -0.0795 -0.0927  0.1124
16132W        W32206  14.819   9.899   1.677 -0.0306 -0.3047  0.0050
16133W        W32207   5.152  13.314   4.235 -0.0448 -0.1358  0.2471
16134W        W32208   8.159   2.012   5.530 -0.2410 -0.3242  0.3821
16135W        W32209   8.073  12.325   2.383  0.1825  0.3477  0.0460
16136W        W32210   3.837  10.790   3.545 -0.0262 -0.2459  0.1021
16137W        W32211  13.864  15.751  14.124 -0.2529  0.1751 -0.1053
16138W        W32212  16.461   9.766  16.119 -0.2070  0.0267 -0.1718
16139W        W32213  15.923   2.136  15.656  0.0485  0.1853  0.1920
16140W        W32214  11.684  18.154   5.684  0.1706 -0.0129 -0.0331
16141W        W32215   5.553  16.345   0.058 -0.0397  0.0218  0.2042
16142W        W32216  15.477   6.891  14.118  0.0798  0.0362  0.1565
16143W        W32217  14.807   0.724  12.394 -0.4188 -0.2168  0.2061
16144W        W32218   5.894   6.067  12.281 -0.0581  0.2002  0.4381
16145W        W32219  16.863   4.980   3.558  0.3077  0.1803  0.2549
16146W        W32220  12.285   7.689   1.546  0.2776 -0.0386 -0.1131
16147W        W32221  12.085   9.643  11.753  0.2301 -0.3237  0.0374
16148W        W32222   2.743   7.865   1.662  0.1178 -0.1291 -0.1422
16149W        W32223  14.114  18.183   3.768  0.2335 -0.1980  0.3039
16150W        W32224   4.614  12.663  11.849 -0.0317 -0.2417  0.0454
16151W        W32225  15.434   8.786   4.228 -0.2543 -0.1635 -0.1617
16152W        W32226   8.025   4.801   1.094  0.2677 -0.1639  0.1283
16153W        W32227   2.330  10.536  11.900  0.1339 -0.4525 -0.1844
16154W        W32228  10.686   3.860   5.364 -0.1413  0.0644  0.0466
16155W        W32229   7.980   6.550  14.681  0.3792  0.1999 -0.1490
16156W        W32230   3.369   1.482  15.749  0.0923  0.0336  0.1177
16157W        W32231   4.396  17.605  14.724  0.0773  0.0374 -0.2298
16158W        W32232  14.106   4.805  14.570 -0.3124  0.2229 -0.0167
16159W        W32233   1.419  15.687   2.992 -0.4872  0.0976  0.1060
16160W        W32234   9.414   7.079   3.513  0.1653 -0.1768  0.2167
16161W        W32235   7.582  16.582   5.621  0.0831  0.0505 -0.1930
16162W        W32236  10.047  18.048  15.437 -0.1927 -0.0304 -0.3150
16163W        W32237  17.434  12.721  16.310  0.2448 -0.0043  0.1272
16164W        W32238   5.009   8.529  12.099 -0.0158 -0.0952  0.0458
16165W        W32239  18.092   0.552  14.235 -0.1943  0.5049  0.0985
16166W        W32240   6.095  11.611   3.017 -0.1280 -0.0776  0.1401
16167W        W32241   3.117   6.271  14.724  0.2341 -0.0937  0.0482
16168W        W32242  11.209   3.077   0.975  0.2831 -0.0964 -0.0544
16169W        W32243  12.771   1.118  10.779 -0.0823  0.0885 -0.1467
16170W        W32244  13.429  16.256  15.176 -0.3516  0.0004  0.2636
16171W        W32245   7.932  11.523   2.811  0.1037  0.1503 -0.0558
16172W        W32246  17.140  11.588   0.351 -0.2007 -0.2876  0.1762
16173W        W32247  14.905  14.751  15.834 -0.1239  0.0695  0.0602
16174W        W32248  15.317   2.905  16.033  0.1430  0.2580 -0.1869
16175W        W32249   7.679  16.502   2.240 -0.1454 -0.0864  0.2841
16176W        W32250   6.045  16.964  11.281 -0.2165  0.1663 -0.0471
16177W        W32251   3.194   3.447  12.797  0.2182  0.0787 -0.0432
16178W        W32252  16.410   5.122   1.367 -0.4488 -0.0564  0.1774
16179W        W32253  12.237   9.623   1.713 -0.1116  0.2985 -0.1047
16180W        W32254  11.319   0.188  12.786 -0.0585 -0.1710 -0.1025
16181W        W32255   3.256   6.693  14.529 -0.2787 -0.2807  0.1153
16182W        W32256  16.014   2.991   3.587 -0.0018 -0.2853 -0.0951
16183W        W32257  14.946  15.142  11.372 -0.0896 -0.1270  0.3776
16184W        W32258  11.908  10.002  12.595 -0.3693  0.0218  0.2308
16185W        W32259   1.445  13.555  13.611 -0.4021 -0.1344  0.0732
16186W        W32260  17.815   5.270   5.671  0.0920 -0.0529 -0.0968
16187W        W32261   4.786   5.696  13.542  0.0876  0.0887  0.5139
16188W        W32262  13.260  15.884   2.385 -0.0219 -0.0675 -0.1309
16189W        W32263  14.737  17.270  13.060  0.1564  0.0052  0.3218
16190W        W32264  11.839  10.217   0.291 -0.2368  0.1655 -0.0589
16191W        W32265   3.656   0.746  14.942  0.1060 -0.0645 -0.1587
16192W        W32266  10.917  10.579   5.639  0.0194  0.0328 -0.1987
16193W        W32267  11.039  18.081   4.880  0.0575 -0.2199 -0.4082
16194W        W32268  15.216  11.116   1.912  0.0304  0.2492 -0.1963
16195W        W32269   5.774   3.582  15.600  0.1520 -0.0055 -0.2868
16196W        W32270  12.512   6.007  11.413  0.1073 -0.1677 -0.2815
16197W        W32271  14.205  16.379   1.126  0.2273  0.0444  0.3935
16198W        W32272  17.854   6.979   2.718 -0.3507 -0.0150  0.1528
16199W        W32273   1.827  13.915  16.550 -0.0151 -0.0847  0.2249
16200W        W32274   6.009   8.330  15.389  0.0031 -0.2710 -0.0475
16201W        W32275  17.161  16.624  11.257  0.2924  0.1104  0.1677
16202W        W32276  11.337   0.538   2.473 -0.1681 -0.1118 -0.2597
16203W        W32277   7.208  15.482   1.648  0.0925  0.0605 -0.0976
16204W        W32278  14.556   2.749   3.434 -0.1884 -0.0275  0.2732
16205W        W32279   5.593   7.440   4.523 -0.1188 -0.3587  0.0177
16206W        W32280  14.752   5.163   2.926  0.0015 -0.2002  0.1921
16207W        W32281  11.916   0.228   3.669 -0.2229  0.1551  0.0854
16208W        W32282  15.398  17.922   2.442  0.1643 -0.1347  0.2109
16209W        W32283   0.078   8.995  14.273  0.1593  0.2957  0.0746
16210W        W32284  10.706  11.340  11.993 -0.1326  0.2014  0.0980
16211W        W32285  13.725  16.971  13.415 -0.1132  0.0895 -0.1914
16212W        W32286   3.923  13.740   4.711 -0.2563  0.0720 -0.0417
16213W        W32287  16.541   2.510   2.957 -0.0748 -0.1501  0.0668
16214W        W32288  14.167   1.192  12.925  0.0059  0.1280 -0.0302
16215W        W32289   6.365  10.384   2.531 -0.0166  0.1017  0.1497
16216W        W32290   1.422   4.967   2.076 -0.1876  0.1776  0.0067
16217W        W32291   0.541   1.488   4.249 -0.2218  0.1788 -0.2113
16218W        W32292   3.498   8.157  12.208 -0.1558  0.0752 -0.1922
16219W        W32293   1.009   7.707  14.780  0.0503 -0.1464  0.0350
16220W        W32294  14.647   9.516  15.575 -0.0123 -0.0755 -0.0473
16221W        W32295   6.938   5.314  15.088 -0.0515  0.0620  0.2741
16222W        W32296   8.572  13.475  14.329  0.1162  0.1149 -0.0446
16223W        W32297  14.645  11.541  15.609  0.0703 -0.0093 -0.0335
16224W        W32298  11.795   7.552  11.496  0.0514 -0.2279 -0.2270
16225W        W32299  12.935  10.560  15.640 -0.2250  0.0573 -0.0937
16226W        W32300   8.206   1.004  12.871 -0.1379 -0.0676 -0.2172
16227W        W32301  13.872   6.312   5.565 -0.0059 -0.2452  0.2814
16228W        W32302  14.100   0.741   3.075 -0.2807  0.0649  0.2685
16229W        W32303  16.641  14.205   0.639 -0.1936  0.0928 -0.0456
16230W        W32304  13.873   4.335  16.088 -0.2590  0.0582  0.0640
16231W        W32305  10.557  11.782  12.793  0.2965  0.3479 -0.0933
16232W        W32306   8.287   8.232  15.572  0.0680  0.0889 -0.2451
16233W        W32307  11.002   9.272  13.586  0.0580 -0.0229  0.5599
16234W        W32308  10.863  10.836   3.235  0.0741 -0.1600  0.1444
16235W        W32309  14.998  11.193   2.824  0.2896 -0.0758  0.0300
16236W        W32310  16.707  14.578   2.557 -0.2885  0.2568 -0.2347
16237W        W32311   9.457  15.855   6.113  0.2396 -0.0605  0.3368
16238W        W32312   5.019   6.268   1.425 -0.1456 -0.2001 -0.0542
16239W        W32313   1.348  17.629  14.670 -0.0514 -0.0004 -0.1359
16240W        W32314   4.003  17.723   2.493  0.0204 -0.1775 -0.0107
16241W        W32315   7.508   6.623   3.465  0.0863 -0.1582 -0.0821
16242W        W32316  12.885  17.568  12.280  0.3394 -0.3187 -0.1135
16243W        W32317  12.396  11.284   2.486 -0.0329 -0.1240 -0.0431
16244W        W32318  18.009   7.912  15.551  0.0404  0.1108 -0.1005
16245W        W32319   3.600   1.226  14.804  0.2506 -0.1359 -0.0175
16246W        W32320  14.283   8.066  12.508  0.4489  0.0072  0.1600
16247W        W32321   9.616   8.108  14.016  0.0556 -0.0741  0.4284
16248W        W32322  17.654  12.268   5.827  0.0590 -0.0474 -0.1681
16249W        W32323   9.053   9.690   1.735 -0.1961 -0.2758  0.1389
16250W        W32324  16.198   4.118  14.661  0.1101 -0.0269  0.2114
16251W        W32325  15.094   5.815   3.620 -0.1825  0.0535  0.0059
16252W        W32326  15.786  16.202  12.623 -0.1464  0.2278  0.0477
16253W        W32327   9.912  16.866  13.362  0.0825 -0.0817 -0.2297
16254W        W32328   6.304  15.926  14.207 -0.2484  0.0809  0.1199
16255W        W32329   9.484   4.720  14.052  0.3012  0.0657  0.1915
16256W        W32330   4.422   8.362   0.500  0.1752  0.2073  0.3521
16257W        W32331   2.213  13.521   0.071  0.0270  0.0044  0.2064
16258W        W32332   5.552   0.200  12.350 -0.2494  0.2804  0.3817
16259W        W32333  15.084   9.612   1.236 -0.1190 -0.1625  0.0837
16260W        W32334  16.596   7.194  12.555  0.1172 -0.1943  0.0080
16261W        W32335  13.415   8.933   1.503  0.1132  0.0176 -0.0025
16262W        W32336  14.770  14.750  13.578 -0.2934  0.0237  0.0858
16263W        W32337  17.440   0.070  10.941  0.3351 -0.2027  0.0477
16264W        W32338  12.037   7.216   1.670  0.0467 -0.1035  0.0805
16265W        W32339  10.183  14.492  14.011 -0.0444 -0.1520  0.0399
16266W        W32340   8.912   0.129  13.908 -0.0189 -0.0286  0.0180
16267W        W32341   5.491   3.402   1.324  0.1663 -0.0571 -0.0268
16268W        W32342   6.064  15.602  15.136  0.0211 -0.1251  0.1445
16269W        W32343  14.450  16.038   4.703  0.0910  0.1123 -0.0103
16270W        W32344  13.574   4.020   3.204  0.3140 -0.0704 -0.4371
16271W        W32345   1.119   6.375  11.629 -0.0167  0.1465 -0.4090
16272W        W32346   5.830  15.029  11.775  0.7731 -0.1656  0.3413
16273W        W32347   9.225  10.010   6.647  0.1409  0.0388 -0.2188
16274W        W32348  14.692   8.700  16.237  0.0728  0.3083  0.1337
16275W        W32349  13.954   8.962   0.265 -0.0217  0.0017  0.0933
16276W        W32350  13.714  10.010  14.412 -0.1605 -0.0360  0.1191
16277W        W32351   4.937   1.620  13.397  0.0969  0.1498 -0.1477
16278W        W32352  13.169   4.346   5.909  0.0311  0.1581  0.0531
16279W        W32353  10.156  11.094  16.413 -0.1100 -0.0543 -0.1734
16280W        W32354  13.367  17.765   4.194  0.3600  0.1025  0.1832
16281W        W32355  15.341   0.831   4.310  0.1555  0.0332  0.1433
16282W        W32356  12.831  11.880   2.923 -0.1453 -0.1658  0.0122
16283W        W32357   4.086   6.366  15.021  0.0732 -0.4175  0.2585
16284W        W32358   1.828   3.256   3.828  0.0277  0.0417 -0.0100
16285W        W32359   9.952  15.986   1.326 -0.0577  0.0011 -0.0620
16286W        W32360   1.035  18.023   3.824  0.2072 -0.1013 -0.1404
16287W        W32361   6.430   9.363   4.243 -0.1010  0.2498 -0.0833
16288W        W32362  10.001   9.591  14.545  0.3796 -0.0781 -0.0025
16289W        W32363  10.488  14.178  15.249 -0.0709 -0.2284  0.1335
16290W        W32364   9.529   3.016  15.467 -0.0143  0.0460 -0.1429
16291W        W32365  15.128  15.019   0.639  0.1725  0.2642  0.0115
16292W        W32366   2.656   4.637   0.439  0.0184  0.0211 -0.0970
16293W        W32367   5.666  13.355  15.562 -0.1541 -0.0849 -0.2915
16294W        W32368  14.465  13.503   3.721  0.0793  0.0790 -0.1881
16295W        W32369   1.766  13.688  13.958 -0.0909  0.0174 -0.0277
16296W        W32370   9.412   7.274   1.594  0.3009 -0.0551 -0.0829
16297W        W32371   1.412  11.800   5.144  0.1760  0.1892 -0.2971
16298W        W32372   5.028  15.205  13.044  0.1262  0.0243 -0.0284
16299W        W32373   5.197   3.879   1.025  0.0558 -0.0311 -0.3704
16300W        W32374  16.809  12.082   2.061 -0.0236 -0.2237 -0.1083
16301W        W32375  17.770   9.042   1.119 -0.4706 -0.3414 -0.1096
16302W        W32376  16.355   7.801  14.020  0.0770 -0.1179  0.0294
16303W        W32377  11.730   0.457  15.463 -0.1059  0.4539 -0.4817
16304W        W32378   7.771  15.854   2.930 -0.1802  0.0590 -0.1964
16305W        W32379  10.937   0.308  15.728  0.0114 -0.2977  0.1168
16306W        W32380   5.692  11.823   5.577  0.2395  0.4291  0.1181
16307W        W32381   8.296  12.739   5.924  0.1318 -0.2188 -0.1640
16308W        W32382   8.996  15.306   2.108  0.1658 -0.0472  0.1285
16309W        W32383   5.377   3.706  15.359 -0.2300  0.1790  0.0317
16310W        W32384  18.211  10.541   3.002 -0.1555 -0.1156 -0.1530
16311W        W32385   3.514  15.069   5.090  0.0321  0.0134  0.1276
16312W        W32386   2.988  14.078   0.112 -0.1021  0.1421  0.1687
16313W        W32387  17.123  14.300   2.447  0.0279  0.0013  0.0828
16314W        W32388   4.250  14.042   5.000  0.0334 -0.1510 -0.2046
16315W        W32389  15.017   3.216  15.774  0.0084  0.2464  0.0550
16316W        W32390  10.869  10.887  13.850 -0.2193  0.4674  0.1781
16317W        W32391  10.346  17.068  11.341  0.1115  0.3190 -0.0802
16318W        W32392   6.940   8.591  12.312  0.1387  0.0616 -0.1841
16319W        W32393   1.744  14.371  13.369  0.0505 -0.0770  0.1622
16320W        W32394   5.018   2.874   0.437 -0.2443  0.1312  0.0802
16321W        W32395  16.258  13.647  12.497  0.0477  0.0296 -0.2229
16322W        W32396  12.083  18.116   1.072  0.0278  0.1816  0.0341
16323W        W32397   7.523  10.884   1.005  0.0277 -0.1916 -0.2660
16324W        W32398  12.747   1.594  11.899 -0.1290 -0.1470 -0.0522
16325W        W32399  14.361   4.718   3.601 -0.2849  0.1269 -0.0011
16326W        W32400   5.464   0.453  16.051  0.2302 -0.3914 -0.2684
16327W        W32401  12.521   0.710   4.293  0.2814  0.2242 -0.1492
16328W        W32402   6.951   5.586  14.145 -0.1517  0.2728 -0.0793
16329W        W32403  12.597  15.354   4.047  0.2548  0.0899  0.4427
16330W        W32404  15.433   3.785  13.502 -0.2356 -0.1119  0.0379
16331W        W32405   2.604   3.702   0.823 -0.1444  0.2745  0.0308
16332W        W32406   9.499   7.564  15.509  0.0386  0.3046  0.1976
16333W        W32407  14.916  15.547   3.963  0.1323  0.0448 -0.0393
16334W        W32408   2.774  14.119   0.621  0.1272 -0.1581  0.2024
16335W        W32409   9.313  10.688   3.735 -0.2723  0.1148  0.0349
16336W        W32410   3.521   7.057  15.463 -0.1431  0.0606 -0.2225
16337W        W32411  11.939  10.224  16.225 -0.0130 -0.0636  0.4340
16338W        W32412   8.550  10.275   1.155 -0.2843 -0.4127 -0.0522
16339W        W32413   2.621   1.255   4.543  0.1946  0.0346 -0.0886
16340W        W32414   8.974   8.785   3.300  0.0861 -0.2435  0.1300
16341W        W32415  10.725  17.578   0.456 -0.3628  0.0104  0.0587
16342W        W32416  14.296   9.987  16.391 -0.0313 -0.0490  0.0668
16343W        W32417  11.724  11.448   3.893  0.4147  0.2295 -0.0793
16344W        W32418   1.923   0.741   5.893  0.2281  0.2687  0.0970
16345W        W32419   1.936  17.447  13.664  0.3476 -0.0840  0.2797
16346W        W32420   1.485   5.874  16.253  0.0359  0.2703 -0.2879
16347W        W32421  16.514  10.929  12.768 -0.0121 -0.0800  0.4101
16348W        W32422  12.337   5.422   5.357 -0.2051  0.4062 -0.0138
16349W        W32423  15.875  11.667   5.311  0.2552  0.2172  0.0120
16350W        W32424  10.161   1.798   6.538 -0.2181 -0.0085 -0.1585
16351W        W32425  18.152   7.648   2.007 -0.1244  0.0033 -0.1233
16352W        W32426   8.843  16.799  14.256 -0.4639  0.2676  0.0588
16353W        W32427   7.512   6.204  13.007  0.0465 -0.0904  0.0424
16354W        W32428   6.405  15.126  15.690 -0.2045  0.4917 -0.0066
16355W        W32429   9.439   0.357  11.724 -0.0713 -0.1797 -0.4217
16356W        W32430   6.916   8.870   2.885 -0.0799  0.0416  0.2305
16357W        W32431   7.531   5.301   3.544 -0.0445  0.0746  0.1041
16358W        W32432  15.741   6.297   5.036  0.1089 -0.0350  0.1287
16359W        W32433  10.821   7.256   4.864 -0.0708  0.1088 -0.1236
16360W        W32434  11.306  16.978  11.976  0.1103 -0.1047  0.0131
16361W        W32435  16.152   5.040   1.917 -0.0674 -0.2619 -0.3730
16362W        W32436   5.384  13.138   1.097 -0.2510  0.0063  0.2267
16363W        W32437   4.329   3.303  13.150  0.0040 -0.3345  0.1021
16364W        W32438   8.606   1.448   4.903 -0.0942 -0.2689  0.0949
16365W        W32439   8.527  16.657   2.201  0.1760 -0.1199  0.0654
16366W        W32440   1.769  14.057   1.466 -0.0462  0.1289 -0.1951
16367W        W32441   3.580  16.454   0.016  0.5145  0.0000  0.1371
16368W        W32442   8.143   4.524  15.299 -0.1044  0.1765  0.0583
16369W        W32443   5.279  13.188   2.446 -0.1345  0.0661 -0.3645
16370W        W32444   4.018   4.618   5.782 -0.0349 -0.0060  0.0922
16371W        W32445   7.940   7.367   4.212  0.6550 -0.0824  0.0366
16372W        W32446  11.556  15.656   0.894 -0.2581 -0.0753  0.2320
16373W        W32447   7.337   7.431  15.998 -0.3897 -0.1917  0.0787
16374W        W32448   9.149   2.715   3.872  0.0213  0.1435  0.0318
16375W        W32449   1.168   9.206  11.988  0.0704 -0.1281 -0.0943
16376W        W32450  15.457   0.738  13.326 -0.1548  0.2402  0.1044
16377W        W32451  16.580   3.725   2.010  0.0897 -0.2741  0.2383
16378W        W32452  18.212  15.723   2.663 -0.3547  0.4151 -0.0234
16379W        W32453   9.629  11.029   5.852 -0.1480 -0.2411  0.1563
16380W        W32454  15.198   1.213  15.323 -0.1141 -0.0504 -0.0212
16381W        W32455  15.153  17.537  13.843 -0.1773  0.1357  0.1147
16382W        W32456   1.595   4.477   2.132  0.1873  0.1277  0.2473
16383W        W32457   7.879   3.879  11.608  0.2862 -0.0882 -0.3249
16384W        W32458  18.200  16.117   0.347  0.2291  0.0402 -0.2006
16385W        W32459  15.526  17.031  14.769  0.4488  0.0286  0.0129
16386W        W32460  14.772  12.526  13.944 -0.3069  0.0993  0.2543
16387W        W32461  15.278  16.998   1.194  0.0232  0.2246  0.1011
16388W        W32462  12.666  12.767  16.390 -0.2182 -0.1553  0.0070
16389W        W32463   3.128   7.978  10.906 -0.0350 -0.0647  0.1757
16390W        W32464   1.303  10.954  13.522 -0.0637 -0.3967  0.1354
16391W        W32465  11.103   7.698   0.019  0.1576 -0.1750  0.1713
16392W        W32466   9.654   8.491  15.011  0.1600 -0.3045  0.1599
16393W        W32467   0.761   1.940   0.582  0.3221 -0.1263 -0.1850
16394W        W32468   3.145  13.270   1.660  0.0001 -0.0109  0.2276
16395W        W32469   6.172  18.091  16.023  0.1993  0.0207 -0.0392
16396W        W32470  11.262   5.480   3.839 -0.0606 -0.0095  0.1780
16397W        W32471   5.723  11.110   2.922  0.1506  0.0454 -0.2827
16398W        W32472   9.410  14.687  15.410 -0.0564 -0.0824  0.3566
16399W        W32473  12.103   0.855  12.913  0.3030 -0.1487  0.1469
16400W        W32474   9.842   1.951  13.350 -0.0222 -0.0254 -0.4282
16401W        W32475   3.580   2.885  12.100  0.2996  0.3004 -0.1123
16402W        W32476  15.416   6.408   5.899 -0.1048  0.1754  0.3197
16403W        W32477   3.917  12.201  10.932  0.0587 -0.2580 -0.0540
16404W        W32478  14.729   9.209   3.663 -0.0206  0.0529 -0.0914
16405W        W32479  10.133   5.432   4.956  0.0787  0.1042 -0.1743
16406W        W32480  10.160  11.125   3.421  0.1859  0.4517  0.2065
16407W        W32481   4.906  13.961   5.495 -0.0227  0.1122  0.0698
16408W        W32482  14.190  17.878   4.438 -0.0433  0.0059 -0.1379
16409W        W32483   5.922   9.557  13.968  0.3703  0.1308 -0.1863
16410W        W32484   9.430   1.325  16.521 -0.2104 -0.2301  0.2453
16411W        W32485  16.380   3.220  10.722  0.0472 -0.2983  0.1254
16412W        W32486  15.017  16.011  16.466  0.0101  0.0135  0.0219
16413W        W32487   9.393   0.476  13.224 -0.1030  0.1999 -0.4141
16414W        W32488   8.532   9.188  14.571 -0.0484 -0.2294 -0.3215
16415W        W32489   6.996   3.181   2.259 -0.0213 -0.0454 -0.0316
16416W        W32490  10.147   5.153   4.371  0.0568 -0.3820  0.0824
16417W        W32491   2.739   7.205   4.197 -0.0472 -0.0958  0.2970
16418W        W32492  17.690  17.353  10.072 -0.1589  0.0528 -0.1096
16419W        W32493   1.545   6.340   5.551  0.1394  0.1641 -0.1941
16420W        W32494   3.920  14.114   4.029 -0.0134  0.1586  0.1467
16421W        W32495   5.250   0.740   1.993  0.1847  0.1374 -0.2337
16422W        W32496   9.761  17.423  15.883  0.0219 -0.1160  0.0592
16423W        W32497  12.868  15.569  11.969 -0.1547  0.2467  0.3932
16424W        W32498   5.324  15.839  13.728  0.0798  0.1995  0.0926
16425W        W32499  14.793  11.908  15.132 -0.2863 -0.1180 -0.2665
16426W        W32500   7.365  15.621   4.483 -0.3725 -0.2205  0.0039
16427W        W32501  12.793  14.696   2.256  0.1023  0.0568  0.1318
16428W        W32502  17.025   2.557  10.994  0.1226  0.1967  0.1542
16429W        W32503  14.194   3.421  16.237 -0.0624  0.0208 -0.1145
16430W        W32504  17.067  10.222  13.183  0.0414  0.4493 -0.0022
16431W        W32505   6.621  11.857  12.188 -0.1383 -0.0213 -0.1053
16432W        W32506  15.838   3.897  11.588  0.1210  0.0226  0.1690
16433W        W32507  10.922  16.805  15.833  0.4368 -0.0217  0.0822
16434W        W32508   7.784  11.226  14.894  0.1141 -0.1923  0.0348
16435W        W32509   4.117  10.643   1.815 -0.2177 -0.3337  0.0090
16436W        W32510  17.992  11.566  12.265  0.0206  0.2425 -0.1006
16437W        W32511   5.436   7.540  11.897  0.2658  0.0417 -0.0006
16438W        W32512   6.635  12.772   5.082  0.2012 -0.1030  0.0613
16439W        W32513   3.561   1.464   2.366 -0.0191  0.2707  0.0853
16440W        W32514  10.298   2.564  12.770  0.1866 -0.0247 -0.0283
16441W        W32515  14.252   7.631   0.418  0.0338 -0.3267 -0.2302
16442W        W32516  12.106   1.567   5.316 -0.1307 -0.0429 -0.1894
16443W        W32517   9.106   7.789  11.855 -0.0095  0.1322  0.1542
16444W        W32518  15.015   9.895  15.595 -0.2262  0.0018 -0.1801
16445W        W32519  12.178   0.167   5.718  0.0859 -0.1951 -0.0911
16446W        W32520   8.645  12.884  15.767 -0.1626  0.3660 -0.1698
16447W        W32521   5.214   9.193   5.447 -0.0988  0.0370  0.1021
16448W        W32522  15.329  12.119  14.636  0.1699 -0.0851  0.0661
16449W        W32523   9.666  16.945  15.296 -0.1485  0.0110  0.1027
16450W        W32524   0.996  13.736  16.327  0.1524 -0.2200  0.0256
16451W        W32525   8.978  10.898  13.362 -0.0952 -0.2196 -0.0792
16452W        W32526  11.547   4.148   1.702  0.1753  0.0449 -0.1472
16453W        W32527  15.533  10.855   2.222 -0.0624 -0.4060  0.1916
16454W        W32528  14.947  11.216   0.781  0.3456 -0.0074  0.1657
16455W        W32529  10.670  10.769   1.831  0.0027  0.3671 -0.1095
16456W        W32530  14.547   4.370  12.170  0.0439  0.1443 -0.1199
16457W        W32531   1.275  15.066  14.516 -0.1230 -0.2158 -0.0378
16458W        W32532  11.148   5.269  14.104  0.0501  0.0075  0.3578
16459W        W32533   5.327  11.945   3.614 -0.0292  0.3791 -0.2444
16460W        W32534   2.687  13.325   5.900  0.0146  0.0846  0.2603
16461W        W32535  13.384   4.672   0.300  0.2376 -0.0793 -0.1376
16462W        W32536   7.663   0.098  16.145 -0.3173 -0.1624  0.1620
16463W        W32537   0.059   5.378  10.971 -0.0138  0.0477  0.1886
16464W        W32538  13.282   5.824  15.921  0.0028  0.3347  0.1062
16465W        W32539  16.681   1.486  11.432  0.0670  0.1018  0.3904
16466W        W32540  12.708  10.016  14.365  0.1225 -0.1121 -0.1649
16467W        W32541  15.332  13.855  14.224 -0.1493 -0.0060 -0.0975
16468W        W32542   4.137   6.553   6.106 -0.1464  0.0191 -0.0924
16469W        W32543  10.960   7.813   4.887 -0.0492  0.0748  0.1311
16470W        W32544   6.349   1.690   0.529 -0.0870  0.0833 -0.0972
16471W        W32545   3.980  16.145   4.274  0.3643 -0.2587  0.4593
16472W        W32546  11.856  16.244  13.276 -0.0218 -0.2075  0.3864
16473W        W32547   4.331  15.219  14.619 -0.1573  0.2943 -0.0834
16474W        W32548   4.306  13.941   2.657 -0.0289 -0.0733  0.2202
16475W        W32549  17.744   4.829   3.915  0.0617  0.1751  0.0779
16476W        W32550  16.784  16.768   1.370 -0.1325 -0.0783 -0.0807
16477W        W32551  13.375  14.240   0.810 -0.0340  0.0168 -0.0236
16478W        W32552  15.453  15.869  12.820  0.1635  0.1523  0.0318
16479W        W32553   0.462  12.473   3.039 -0.0174 -0.4011 -0.1919
16480W        W32554   0.781   0.085  15.877  0.0684  0.0326  0.1371
16481W        W32555  16.578   6.264  16.114  0.0327  0.3420 -0.4639
16482W        W32556   6.498   0.339  13.977 -0.1469 -0.1212 -0.2746
16483W        W32557  18.030   3.208  14.933  0.0270 -0.0448 -0.1228
16484W        W32558  15.768   6.439   4.545 -0.1103 -0.0262 -0.0538
16485W        W32559   4.431   4.480   1.984  0.0435 -0.2720  0.0076
16486W        W32560   8.286   2.712  15.778  0.1192 -0.2550  0.2232
16487W        W32561  11.762   0.992   2.910 -0.2053 -0.0557 -0.2118
16488W        W32562   2.972   3.513  16.377  0.2031  0.2677  0.2120
16489W        W32563  11.050  16.564   0.629  0.0958  0.4435  0.3737
16490W        W32564  13.819   9.927  16.171 -0.1701  0.2845 -0.1203
16491W        W32565  12.606  18.150  15.469  0.0114  0.1865 -0.1281
16492W        W32566   0.279   2.636  16.519 -0.1826 -0.1081 -0.1110
16493W        W32567   4.543  14.975   4.575 -0.1227  0.1197  0.0771
16494W        W32568   7.078  10.651  15.149  0.0719  0.0891  0.0282
16495W        W32569   6.334   5.188  12.059  0.0287 -0.1889  0.1571
16496W        W32570   3.171   5.220  12.640  0.4265  0.0552 -0.3352
16497W        W32571  17.633   1.971  12.718 -0.1932  0.2760 -0.1252
16498W        W32572  11.571  17.862   2.094 -0.2555  0.0186 -0.0837
16499W        W32573   1.738  10.997  14.806 -0.0344 -0.0292 -0.1506
16500W        W32574  17.380  12.109  15.582  0.0916  0.1767  0.1111
16501W        W32575   4.533  17.809  13.194  0.1313  0.0813 -0.1787
16502W        W32576   3.261   1.348  14.430 -0.1201  0.0016 -0.1547
16503W        W32577   1.388   9.684   1.121 -0.0110 -0.4813  0.2758
16504W        W32578   3.834   8.889  11.567 -0.4186 -0.1693 -0.0011
16505W        W32579  10.166   5.935   4.863  0.1887 -0.1574 -0.1206
16506W        W32580  12.786  17.526   2.577  0.2641  0.0854 -0.4715
16507W        W32581   7.520  15.886   4.865 -0.2399  0.2842  0.2066
16508W        W32582   8.121  14.776  14.344 -0.2089 -0.3560  0.1091
16509W        W32583   5.224  13.948   2.749 -0.1503  0.1802  0.3144
16510W        W32584  14.012   5.433   3.814  0.1406 -0.1869  0.0151
16511W        W32585   8.726   3.915  15.147 -0.1852  0.3377  0.0184
16512W        W32586  17.051  13.392  11.132 -0.3422 -0.2637 -0.1308
16513W        W32587   3.974  13.627  16.491  0.4690 -0.1479 -0.0811
16514W        W32588  10.555  17.298  13.477 -0.2264 -0.1168 -0.1025
16515W        W32589   6.086  17.054  14.642 -0.3058  0.1411  0.2117
16516W        W32590   4.786   1.071  13.285  0.1375  0.3399 -0.1016
16517W        W32591  11.022   3.953   3.492  0.5340  0.0378  0.2411
16518W        W32592   4.320  18.047   3.209  0.5546  0.1040  0.0652
16519W        W32593   1.014   7.845   2.337 -0.0108  0.2603  0.0585
16520W        W32594   2.736   0.160  15.818 -0.0222  0.1252  0.0553
16521W        W32595   5.713  14.651  12.016  0.2569  0.1317 -0.3544
16522W        W32596   4.313  16.885   3.817  0.2090 -0.0687 -0.0514
16523W        W32597   1.549   1.894  14.732  0.2472  0.2457 -0.0104
16524W        W32598   4.752   5.333  16.521 -0.2724  0.1883  0.1203
16525W        W32599   9.163  15.627   1.588 -0.0142  0.0827 -0.2573
16526W        W32600  11.220  11.249  13.823  0.0135  0.2327 -0.1736
16527W        W32601   2.333   0.315  14.346  0.0247  0.1261 -0.0310
16528W        W32602  12.102   2.773  12.295 -0.0420  0.1766 -0.0887
16529W        W32603   9.433  12.353   0.161  0.0190  0.1001 -0.1780
16530W        W32604   8.421  16.787   4.933  0.1538  0.0922  0.0331
16531W        W32605  15.701  16.951  14.302  0.3725  0.1576 -0.1010
16532W        W32606  17.511  17.758  13.147 -0.0584 -0.1668 -0.0026
16533W        W32607   5.451  11.478  11.997  0.0602 -0.1710  0.0380
16534W        W32608   1.788   4.449   3.680 -0.0421 -0.1516  0.0056
16535W        W32609  13.586   7.611   5.972 -0.0446 -0.3932  0.0774
16536W        W32610  13.110  17.001   4.282 -0.0611 -0.4739  0.0187
16537W        W32611   8.859   9.215   1.137  0.3121 -0.0586 -0.0419
16538W        W32612  11.246   7.036   6.618  0.2865 -0.0402  0.0384
16539W        W32613   8.879   8.782   1.943  0.2487  0.1221  0.1922
16540W        W32614   5.549  12.167  15.784  0.1787 -0.0927 -0.5228
16541W        W32615  10.934   4.121   5.026  0.0719 -0.4110 -0.0036
16542W        W32616  10.009   5.225  14.776 -0.0824  0.1148 -0.0255
16543W        W32617   5.690   2.954  11.409  0.0507  0.2046 -0.1182
16544W        W32618  10.110   8.223  15.316 -0.1434  0.0380  0.0210
16545W        W32619   5.079   0.260   1.195  0.0265 -0.0512  0.3172
16546W        W32620  14.425   0.353   2.853  0.2668  0.2067 -0.2768
16547W        W32621   0.255  11.461  14.393 -0.1411  0.2833 -0.0308
16548W        W32622  12.477   2.776  13.272 -0.1089  0.1752  0.0632
16549W        W32623   6.841  12.957   4.300 -0.0933  0.0642  0.0937
16550W        W32624  18.060  11.486   2.233  0.1042 -0.2300  0.1548
16551W        W32625  15.011  17.996  12.416 -0.1451  0.2396  0.4943
16552W        W32626   2.932   9.943  11.577  0.3931 -0.0863 -0.1019
16553W        W32627  16.625   6.369   0.521  0.1824  0.0655 -0.1368
16554W        W32628   9.845  13.418   5.255 -0.0084  0.1258 -0.0386
16555W        W32629   9.524   6.782  11.506 -0.1802 -0.3986 -0.0777
16556W        W32630  17.653   4.654  12.076  0.0393  0.0280  0.0322
16557W        W32631  14.064   4.079   3.374 -0.0291 -0.0565  0.3352
16558W        W32632   7.251   4.388   1.964 -0.0579  0.0117  0.0591
16559W        W32633  17.821  10.869  14.565 -0.0457  0.0718  0.1326
16560W        W32634   1.075   0.338  16.237 -0.2936 -0.0245 -0.1088
16561W        W32635  12.241   5.917   5.456 -0.0658  0.1518 -0.0045
16562W        W32636   7.988   4.069   1.096 -0.2079  0.1449  0.3081
16563W        W32637   0.820   8.494  14.649 -0.1131  0.0776  0.0804
16564W        W32638   0.964  15.858  13.827 -0.2258  0.1860  0.3345
16565W        W32639   1.239   4.578   1.414 -0.0340 -0.1252 -0.3028
16566W        W32640   2.450   0.024  13.967 -0.1305 -0.0943  0.0789
16567W        W32641   9.760   6.748  13.764 -0.2507  0.1625  0.1542
16568W        W32642   1.293  10.745  14.002 -0.2858 -0.1281  0.0600
16569W        W32643   3.583   1.585   0.082 -0.0101 -0.0593  0.1254
16570W        W32644  13.701   3.295   0.626 -0.3256  0.1537  0.1679
16571W        W32645  12.529  13.330   1.174 -0.0709  0.1038 -0.0456
16572W        W32646  12.211  17.522   0.970 -0.1793  0.1356  0.1328
16573W        W32647  11.855   3.389  14.835 -0.1837 -0.3225  0.1565
16574W        W32648  15.245  15.204   3.735 -0.0052 -0.0485  0.0675
16575W        W32649  11.525   1.048   0.158  0.1302 -0.0418 -0.1811
16576W        W32650  14.821   6.706   1.459  0.2292 -0.2211 -0.1251
16577W        W32651  12.731  16.858   0.192 -0.0455 -0.0803  0.3592
16578W        W32652   2.153  17.245  11.506 -0.1835  0.2367 -0.5161
16579W        W32653   2.805   9.639   6.284  0.1420  0.1014 -0.1350
16580W        W32654   7.837   2.479  11.789 -0.2864  0.1793 -0.0048
16581W        W32655   0.828  10.641   1.919 -0.1519 -0.1493  0.0221
16582W        W32656   1.356  12.015  10.266  0.0955 -0.0763  0.1725
16583W        W32657  10.374   8.741  14.040  0.2033 -0.2119 -0.0620
16584W        W32658   5.465  12.883   0.166  0.2244  0.2541 -0.2425
16585W        W32659   4.971  12.833  15.125  0.3520  0.0487  0.1055
16586W        W32660   0.296   0.510   5.352 -0.1232 -0.1171 -0.0030
16587W        W32661   6.783   0.583  13.611  0.3101 -0.3002 -0.4675
16588W        W32662   2.286  13.164  13.282  0.1544  0.4032  0.1224
16589W        W32663  11.962  10.477  12.463 -0.1600  0.0756  0.3748
16590W        W32664  13.397  13.528   1.879  0.2682 -0.0672  0.0643
16591W        W32665  16.120  17.255  11.855  0.0172  0.4450  0.0857
16592W        W32666  11.133   9.213   3.754  0.1942  0.1630  0.3282
16593W        W32667  10.320  14.794   0.670  0.3202  0.0207  0.1349
16594W        W32668  12.373  12.741   0.510  0.1293 -0.1403 -0.0167
16595W        W32669   8.593   9.035   1.513 -0.0795  0.1313  0.4144
16596W        W32670  10.662   4.006  12.964  0.2805 -0.0344 -0.0603
16597W        W32671   0.837   9.949   3.337  0.0816  0.0860 -0.1242
16598W        W32672   2.978   4.925  11.328 -0.0184 -0.2358  0.1045
16599W        W32673  13.691  16.459  13.473  0.0443  0.0458  0.0097
16600W        W32674  12.042   3.327   0.623  0.0841 -0.0759 -0.2001
16601W        W32675  11.859  17.850   2.545  0.0864  0.0836 -0.0965
16602W        W32676   9.829   9.163  16.241  0.1250 -0.1124 -0.3433
16603W        W32677  12.624   2.340  15.787  0.0522 -0.0876 -0.2301
16604W        W32678  17.657   0.557   2.514 -0.1859 -0.0534  0.0637
16605W        W32679  15.281  14.058  12.580  0.3096 -0.1885  0.2443
16606W        W32680  14.406   0.725  15.518  0.2971  0.2745 -0.0340
16607W        W32681   8.330   1.238  14.421  0.6164 -0.0763  0.2498
16608W        W32682   2.645  13.899   1.885  0.0245 -0.1580  0.3230
16609W        W32683  14.684  13.824  15.574  0.3647  0.0352  0.3108
16610W        W32684  15.573  15.049   4.135 -0.0641  0.0222 -0.3108
16611W        W32685  16.297  15.608  13.885 -0.3675 -0.1473 -0.1837
16612W        W32686  16.179   3.394  12.880 -0.0262 -0.0743 -0.1721
16613W        W32687   6.862  16.051   2.596 -0.0596 -0.4532 -0.0995
16614W        W32688   8.649   7.421  14.713 -0.3144  0.2277 -0.0207
16615W        W32689   0.026   0.411  14.735 -0.0106 -0.2952  0.3345
16616W        W32690   5.327  10.995  11.807  0.1827  0.0378  0.3083
16617W        W32691   6.966   0.794   4.187  0.0532  0.0806  0.0946
16618W        W32692   1.340   4.269   1.764 -0.0644  0.0661  0.3392
16619W        W32693  15.525   0.169  12.030 -0.0023  0.1575 -0.3473
16620W        W32694  14.208   8.044  15.703 -0.0458 -0.0360  0.1130
16621W        W32695   1.762  17.898  13.226 -0.2439  0.1097  0.0633
16622W        W32696  16.163  17.441   1.773  0.0455 -0.0565 -0.2844
16623W        W32697   1.443  10.244  13.539 -0.1476 -0.0757  0.0758
16624W        W32698   7.369   4.853  15.041 -0.1325 -0.0412 -0.1830
16625W        W32699  15.173   1.378  16.497  0.0956 -0.3262 -0.0417
16626W        W32700  16.512  12.521   3.574 -0.0503 -0.0704 -0.1200
16627W        W32701   9.931   2.856   0.158 -0.1522  0.2465 -0.2067
16628W        W32702   2.386  15.210  12.405 -0.2100  0.0777 -0.0785
16629W        W32703  14.615   0.673  13.785  0.0836 -0.0183  0.0413
16630W        W32704  17.677   8.207  11.448  0.3514  0.2118 -0.2736
16631W        W32705  17.895  12.102  15.860 -0.2975  0.0718  0.2688
16632W        W32706  14.093   8.839   5.274 -0.2733 -0.1385  0.0524
16633W        W32707   9.606  10.275   2.571 -0.1172  0.2201  0.1926
16634W        W32708   5.930   0.672  11.570 -0.1934 -0.1735 -0.0121
16635W        W32709  15.646  16.145  11.647  0.4359  0.0535 -0.2005
16636W        W32710  16.042  10.755   4.959  0.1818 -0.1205 -0.1108
16637W        W32711   1.647   7.735   3.870  0.1415  0.0327  0.4096
16638W        W32712   7.027  12.039  15.356 -0.1183 -0.1857 -0.0262
16639W        W32713   0.387   0.492  15.591 -0.0765  0.2404 -0.0133
16640W        W32714   2.130  11.044  11.355  0.1465  0.0387 -0.1846
16641W        W32715  13.880   3.819  15.879  0.2322  0.1938 -0.1163
16642W        W32716  16.662  11.626   1.188  0.1039 -0.1101  0.1170
16643W        W32717  15.399  13.127  15.540  0.0308 -0.3052  0.2337
16644W        W32718  10.941  10.567  10.921 -0.1529  0.3025  0.1053
16645W        W32719  15.088  10.106   1.024  0.1874  0.0895 -0.1345
16646W        W32720   4.840   3.272   3.155  0.1530  0.0513 -0.0147
16647W        W32721   2.410  17.028  12.809  0.0107  0.1474  0.0514
16648W        W32722   8.618  10.284   4.757 -0.1159  0.1001 -0.0591
16649W        W32723   5.700   6.074   3.256 -0.0558  0.3370  0.2254
16650W        W32724   9.613  15.736  12.901  0.0180  0.1016  0.0638
16651W        W32725   9.163   0.678   4.150 -0.2544  0.1442 -0.0463
16652W        W32726  12.814  10.316  11.850 -0.1853  0.0375 -0.4004
16653W        W32727  10.649  13.686   4.672  0.5941  0.1622  0.0600
16654W        W32728   3.801  11.825   2.016  0.0033 -0.5550 -0.1426
16655W        W32729   9.132  13.863  15.056  0.0506 -0.0143 -0.0157
16656W        W32730   8.513   4.736  14.981  0.0844 -0.2980  0.0663
16657W        W32731  13.226   0.105  16.319 -0.0686  0.1063  0.1455
16658W        W32732   3.549   8.293   5.960  0.1034  0.1879  0.3122
16659W        W32733   4.483   5.802  16.100 -0.0700 -0.1503 -0.1847
16660W        W32734   5.842   9.564   3.634  0.0645  0.2219 -0.1661
16661W        W32735   0.959  18.052   2.943  0.0174 -0.4864  0.0544
16662W        W32736   3.582  17.967   0.673  0.0556 -0.2730 -0.0072
16663W        W32737  14.132   4.973   5.419  0.1086  0.2011  0.4340
16664W        W32738   8.975  16.995   4.211  0.0573 -0.0960  0.2866
16665W        W32739   1.604  11.769  14.967  0.0323  0.0113  0.1479
16666W        W32740  10.308   4.759   1.246 -0.2948 -0.0827  0.1372
16667W        W32741  13.178   8.651  13.821  0.1950 -0.0191 -0.2308
16668W        W32742   6.021   4.547   3.249 -0.3451 -0.1279  0.1140
16669W        W32743   1.521  13.512   2.278 -0.0316 -0.0551 -0.0872
16670W        W32744   9.669  11.188  16.256  0.0163  0.0412 -0.0101
16671W        W32745   9.797  16.237   0.444 -0.2388 -0.2436  0.5183
16672W        W32746   4.270  16.654  13.308  0.0061  0.0004  0.1351
16673W        W32747   6.826   6.785   2.846  0.0685  0.0722  0.3082
16674W        W32748  12.532   8.784  15.594  0.3633  0.1551 -0.1320
16675W        W32749   2.556  10.605  13.565 -0.1099 -0.2077 -0.1779
16676W        W32750  14.471   2.750   2.445 -0.2136  0.2854 -0.0059
16677W        W32751   0.684  16.119   3.003 -0.1180  0.0029 -0.1728
16678W        W32752  10.372  13.770  15.518  0.4526  0.1480 -0.0878
16679W        W32753   9.806  11.143   4.408 -0.0248 -0.0113 -0.1402
16680W        W32754   4.207  15.295  11.427 -0.0782 -0.2045  0.3018
16681W        W32755  14.253   2.969   1.408  0.1962 -0.0322  0.0913
16682W        W32756   2.043  12.266  12.262 -0.0891 -0.1788  0.0429
16683W        W32757  16.318  10.727  13.160  0.0411 -0.2587 -0.1926
16684W        W32758   5.994  18.093   2.661 -0.1647 -0.1624  0.2362
16685W        W32759  14.569   9.953   3.947 -0.2959 -0.2999  0.2503
16686W        W32760  17.005  16.000   5.548  0.0538 -0.1579  0.3391
16687W        W32761  17.329  17.721   1.592  0.2162  0.2032 -0.1308
16688W        W32762  17.384  16.815   4.021 -0.3393 -0.4469 -0.1406
16689W        W32763  17.874  12.293   3.020 -0.2250 -0.0900 -0.1431
16690W        W32764   9.783   6.679   2.065  0.2836 -0.0732  0.1897
16691W        W32765  11.279  10.623   4.600 -0.0307  0.0521  0.0768
16692W        W32766   6.263   4.169  13.487 -0.0931  0.1266 -0.0912
16693W        W32767  17.854   2.804  10.735  0.0871 -0.0556  0.0243
16694W        W32768   5.930  17.669   1.929  0.1408  0.2552  0.1623
16695W        W32769   7.700  13.379  12.798 -0.0055  0.0096  0.0047
16696W        W32770  12.914   7.677   1.569  0.3144  0.1365  0.0958
16697W        W32771   0.056   4.895  11.874  0.1154  0.0307  0.2018
16698W        W32772   0.067  16.196   5.794 -0.1614 -0.1901  0.0716
16699W        W32773   2.332   3.920   1.685  0.0311 -0.0123  0.0851
16700W        W32774  14.135   6.780   3.935  0.2218 -0.2503 -0.3497
16701W        W32775   7.941  10.977   5.652 -0.1793  0.4263  0.2878
16702W        W32776  14.410  13.925  15.962 -0.3349  0.1474 -0.1127
16703W        W32777  14.373  12.025  13.153  0.3541  0.0269 -0.0733
16704W        W32778  12.768   7.553  13.196 -0.0115  0.2744  0.1996
16705W        W32779   8.609   6.851  13.798 -0.1649 -0.1615  0.3396
16706W        W32780  17.258  10.764   4.715  0.2899  0.3766  0.1843
16707W        W32781   7.607   7.474  14.751 -0.1602 -0.0135  0.0540
16708W        W32782  10.248   3.727  13.814  0.1887 -0.2663 -0.2900
16709W        W32783   4.168  15.473  16.188  0.2947  0.4418 -0.1242
16710W        W32784  15.933   7.743   0.704 -0.1664  0.0606 -0.0063
16711W        W32785  12.892   4.484  12.773 -0.0188  0.0843 -0.1899
16712W        W32786   2.088   7.925  13.291  0.0202 -0.2300 -0.1171
16713W        W32787  12.864  17.478   2.092 -0.2306  0.2644 -0.1655
16714W        W32788  18.192   9.004   3.643  0.2950  0.3792  0.0980
16715W        W32789  14.865   8.193  14.968 -0.0930  0.0668  0.1089
16716W        W32790  13.535  16.099  16.310  0.2772  0.4886 -0.3701
16717W        W32791  10.338   8.815   1.538  0.2381 -0.0559 -0.1768
16718W        W32792   4.138   0.847  15.783  0.1782  0.0848  0.1188
16719W        W32793  11.513  17.754  12.126 -0.0413  0.0245 -0.0786
16720W        W32794   8.018   3.052  14.514 -0.1560  0.0272 -0.0491
16721W        W32795  17.694   0.944  13.084 -0.1378  0.0280 -0.0252
16722W        W32796  13.980   7.874  11.734 -0.0355 -0.1075  0.2992
16723W        W32797  10.375  16.930   2.787 -0.0656  0.2210  0.3268
16724W        W32798  15.549  14.585   2.617  0.2586  0.0102 -0.1088
16725W        W32799  12.658  16.273   5.982 -0.1962  0.0100  0.2587
16726W        W32800   6.342   5.859   3.696  0.2912 -0.0161 -0.1607
16727W        W32801   5.049   1.547   4.282  0.2258 -0.0442 -0.0131
16728W        W32802   4.850  11.379  12.816  0.1057  0.1109 -0.2227
16729W        W32803   3.642  13.782  14.248  0.1069 -0.1446  0.0392
16730W        W32804  16.459  16.708   3.689  0.0134 -0.1533  0.2840
16731W        W32805  13.550   0.686   3.224 -0.0307  0.2494 -0.0467
16732W        W32806   3.737  16.931   5.326 -0.2017  0.1400  0.1089
16733W        W32807  17.488   9.917   4.854 -0.0073 -0.0234 -0.1100
16734W        W32808  10.211  17.664   3.263  0.0307 -0.5627 -0.1096
16735W        W32809   5.507  17.912   2.863  0.0364  0.1702  0.1489
16736W        W32810   7.591   5.918   0.768 -0.1360  0.1528 -0.0418
16737W        W32811   6.306  10.211   2.020 -0.1082  0.0765  0.0224
16738W        W32812   1.465  15.229   4.775  0.0650 -0.0727 -0.3124
16739W        W32813  10.177  10.422   1.703  0.1038  0.0421 -0.1020
16740W        W32814   7.370   6.490   4.972  0.0462 -0.2577 -0.0842
16741W        W32815  15.792  12.995   2.423  0.0052 -0.5462 -0.0595
16742W        W32816   0.311   8.519  12.195  0.0634  0.3490 -0.3298
16743W        W32817  16.250  15.939   1.457 -0.0005  0.1546  0.2155
16744W        W32818   8.863   7.086   4.072 -0.0209  0.0402  0.0919
16745W        W32819   5.181   1.937   0.499 -0.1577 -0.1522  0.0447
16746W        W32820  13.050   4.097   3.951  0.2832  0.2547  0.0746
16747W        W32821  13.511  11.001  12.161 -0.2466  0.1257  0.1488
16748W        W32822   4.644   0.625   4.626  0.3344 -0.2000 -0.0501
16749W        W32823   5.014  14.655   0.709  0.0634 -0.0220  0.1598
16750W        W32824   0.734  17.458   1.412 -0.2681 -0.1597 -0.0042
16751W        W32825  11.066   8.120   2.144  0.0781 -0.1195  0.2328
16752W        W32826  11.431   9.125   2.056 -0.0557  0.0870 -0.0969
16753W        W32827  13.201  15.312  11.707 -0.4479 -0.0007  0.0717
16754W        W32828   5.320   2.372  15.815  0.0760 -0.0882  0.1582
16755W        W32829   6.473  12.832  15.974  0.0239 -0.0440  0.3344
16756W        W32830   9.508   2.957   0.456 -0.0940  0.2874  0.4346
16757W        W32831  17.194   7.934   4.700  0.0394 -0.1060  0.4554
16758W        W32832  16.230  10.189   1.530  0.0113  0.2990  0.1925
16759W        W32833  13.570  16.219  11.827 -0.3686  0.3129 -0.0030
16760W        W32834   4.852  10.036   2.985  0.2155 -0.2237 -0.1299
16761W        W32835  16.786  12.898   5.165 -0.0612 -0.3387  0.1032
16762W        W32836  13.072  10.646  13.382  0.0263  0.0328  0.3053
16763W        W32837  12.953   2.917   1.007 -0.1501 -0.0538 -0.1672
16764W        W32838   8.096  14.664   2.040  0.0995  0.1156 -0.0138
16765W        W32839   3.180  13.495  16.152  0.3805  0.0915  0.0201
16766W        W32840  11.422  17.151   4.323  0.1828 -0.0807 -0.0738
16767W        W32841   6.819   2.888   3.182  0.2946 -0.1739  0.3347
16768W        W32842   6.612   4.850   1.611 -0.0527 -0.0032  0.4345
16769W        W32843   2.640  15.658   1.756 -0.2477 -0.1775  0.2007
16770W        W32844  10.790   3.464  14.712 -0.0071 -0.0876  0.2834
16771W        W32845  16.121  12.187   5.093 -0.1564  0.1775  0.0333
16772W        W32846  18.003  13.657  16.295  0.0554 -0.0136  0.3190
16773W        W32847  14.549   7.572   3.972  0.1727  0.1578 -0.1152
16774W        W32848   6.533   3.241   4.878  0.0283 -0.1477  0.0696
16775W        W32849   2.639  14.079  13.273 -0.1487  0.4362 -0.1233
16776W        W32850   6.186   6.400  14.689 -0.1845  0.0713  0.2458
16777W        W32851  16.878  17.472  14.978  0.0358 -0.0253 -0.1270
16778W        W32852  12.489  17.847   0.628  0.3410  0.0422  0.0150
16779W        W32853  16.700   7.281  15.064  0.1225 -0.0930  0.1877
16780W        W32854   6.063   3.247  13.748 -0.0664  0.0487  0.1456
16781W        W32855  10.009  14.758   6.458  0.0473 -0.0168  0.0035
16782W        W32856  16.730   1.381   4.357 -0.0879 -0.0117 -0.0722
16783W        W32857  13.458   7.271   2.084  0.2002  0.0794 -0.0069
16784W        W32858  17.498   7.316   5.269  0.1688 -0.1135  0.3302
16785W        W32859   5.688  12.931  12.362 -0.1411 -0.0257  0.0082
16786W        W32860   5.630  11.472  13.503 -0.4306 -0.0524  0.3256
16787W        W32861  10.814  17.478  12.092 -0.0125 -0.3680  0.0401
16788W        W32862   0.116   9.639   2.890 -0.3408  0.0892  0.1405
16789W        W32863   8.110   7.875   1.793 -0.1195  0.2373  0.0289
16790W        W32864  13.184  16.749  14.487  0.2270 -0.1697  0.1615
16791W        W32865  10.386  16.059   4.601 -0.1059 -0.2900 -0.1429
16792W        W32866  13.875  10.493   3.360  0.0173  0.1429  0.0872
16793W        W32867  13.326  18.051  14.006 -0.1598  0.2049 -0.1137
16794W        W32868  17.584  16.473   5.127 -0.0884 -0.1004  0.3230
16795W        W32869  16.617   1.712   0.107 -0.2752  0.0256  0.0556
16796W        W32870   2.812  16.763   0.573 -0.1027 -0.2440 -0.0088
16797W        W32871   5.943  15.481   4.731  0.0949 -0.2346 -0.0341
16798W        W32872   6.593   9.400   4.820  0.3595 -0.0847  0.0104
16799W        W32873  10.837   7.371   5.462  0.0647 -0.0885 -0.1628
16800W        W32874  14.914  11.258   2.322  0.1980 -0.2297 -0.3115
16801W        W32875   4.105   0.421   3.915  0.4714  0.0273  0.2832
16802W        W32876  15.632   9.212   5.085 -0.0722  0.0745  0.1054
16803W        W32877   3.179  15.041   4.473  0.0979 -0.5047  0.3584
16804W        W32878   3.844   8.759  14.755 -0.2501 -0.0127 -0.4371
16805W        W32879  12.685  12.826   4.621 -0.2289  0.2595 -0.2249
16806W        W32880   0.900   9.980   5.937 -0.3475  0.1614  0.1238
16807W        W32881   2.379   6.522  13.148  0.0244 -0.0133  0.2625
16808W        W32882  13.181   0.397   1.800 -0.1398  0.0240 -0.0842
16809W        W32883   1.759  17.451   4.419  0.1728 -0.0419  0.1078
16810W        W32884  13.478   4.092  14.659  0.2962  0.1225 -0.1385
16811W        W32885   5.434  14.384   2.490 -0.0944  0.0702 -0.2783
16812W        W32886  11.128  17.990  11.860 -0.0299  0.1047  0.3000
16813W        W32887   8.617   4.433  15.356  0.1823  0.1067  0.0518
16814W        W32888  15.309  10.432  11.468  0.0571 -0.2713  0.2622
16815W        W32889   2.956  11.205  14.462  0.2591  0.1065  0.1646
16816W        W32890  17.125   5.445   4.605  0.0489 -0.1898  0.3205
16817W        W32891   6.879   3.691  11.904 -0.1280 -0.2799  0.3476
16818W        W32892  13.166  10.675   0.045  0.2428 -0.0555 -0.0581
16819W        W32893  11.883  16.110   0.029 -0.0910 -0.1144 -0.1804
16820W        W32894  17.314   7.292   1.189 -0.1160  0.0417 -0.1211
16821W        W32895   6.478  12.984   2.023 -0.0575  0.1925  0.1034
16822W        W32896   8.677  10.966  14.591 -0.1874  0.2467  0.4201
16823W        W32897  17.472   1.825  16.160  0.4382 -0.1130  0.0500
16824W        W32898  13.704  12.838   3.003 -0.0463  0.2276 -0.1726
16825W        W32899   1.210  12.498  12.735 -0.0515  0.0567  0.1371
16826W        W32900   4.403   8.177   4.840 -0.1332  0.1015  0.0819
16827W        W32901   2.071  13.611  11.184  0.0614 -0.0805 -0.1793
16828W        W32902   0.392   4.560   2.376  0.1352 -0.0861  0.0703
16829W        W32903  14.246  13.830   2.018  0.1486 -0.3722 -0.0224
16830W        W32904   2.952   5.611  13.880  0.2494  0.0436  0.0824
16831W        W32905   5.051  17.964   4.758  0.1908  0.2312 -0.1185
16832W        W32906   0.659  17.139  10.045 -0.0947  0.2786  0.1451
16833W        W32907   4.425   7.546   0.660  0.2558 -0.1262 -0.0650
16834W        W32908   6.415  18.184   4.041 -0.1256 -0.0503  0.1377
16835W        W32909  15.816   3.651  12.539 -0.4660 -0.0529  0.1482
16836W        W32910  12.826   0.434   2.770 -0.4161 -0.1933 -0.1046
16837W        W32911   8.235   1.512  12.787 -0.4577 -0.1669  0.0940
16838W        W32912  13.264   3.302   4.782  0.2234 -0.1453  0.0105
16839W        W32913  15.916   7.808   4.245  0.0171 -0.0704 -0.2376
16840W        W32914  10.959   8.769  16.040 -0.1855  0.0870 -0.0577
16841W        W32915   3.018   0.036  11.472  0.0771  0.2693  0.0422
16842W        W32916   4.161   6.666   1.497  0.1045 -0.1185 -0.0317
16843W        W32917   8.840  13.557  11.931  0.0571  0.0458 -0.0222
16844W        W32918   5.600   7.658   5.066  0.0552  0.0794  0.0563
16845W        W32919   8.524   9.166  15.054 -0.0600 -0.1371  0.0399
16846W        W32920   8.942  17.078   0.064  0.2105 -0.0649  0.0955
16847W        W32921  16.061  10.207  13.095 -0.0404 -0.1624 -0.4943
16848W        W32922   1.805   6.149   0.028  0.0167 -0.0967 -0.2403
16849W        W32923   5.821  15.504   4.159  0.1880 -0.1125 -0.2246
16850W        W32924  14.544  16.945  14.389 -0.1827  0.0481 -0.2333
16851W        W32925   9.988   0.809   2.395 -0.0165 -0.4397  0.1367
16852W        W32926   2.569  14.379   1.015 -0.0669 -0.0517 -0.1016
16853W        W32927  15.913   1.519   4.769  0.0371  0.1338 -0.0086
16854W        W32928   3.356   6.179   1.478 -0.1569  0.5705 -0.0506
16855W        W32929   8.619   3.075  12.887  0.1381  0.2853  0.2982
16856W        W32930   8.735   3.489  11.595 -0.0847 -0.2421  0.0811
16857W        W32931   4.609  11.159   3.850  0.2921 -0.1472  0.0959
16858W        W32932  12.045   0.756   4.313  0.0546 -0.1223  0.1470
16859W        W32933  13.389   2.994  14.808 -0.1899  0.3059  0.1365
16860W        W32934  14.693   3.045   1.596 -0.0967  0.0404  0.3382
16861W        W32935  16.602   6.658   1.077 -0.0760  0.1268 -0.0501
16862W        W32936   6.485   8.260   0.747  0.2618  0.1090  0.1866
16863W        W32937   5.235  14.625   3.605  0.1646  0.3674  0.0549
16864W        W32938   8.246   4.667   5.314  0.1148  0.0194  0.2425
16865W        W32939   6.026   1.511   4.540 -0.1264 -0.2033  0.2431
16866W        W32940   5.752   4.095  15.551 -0.1472  0.6186 -0.1281
16867W        W32941   8.601  16.587  13.701 -0.1709  0.1990 -0.1041
16868W        W32942   0.088  11.688  11.829 -0.1341 -0.3451  0.3164
16869W        W32943  11.361   8.549  16.330  0.0308 -0.1944  0.1229
16870W        W32944  11.623   6.545   3.907  0.0156 -0.2351  0.1472
16871W        W32945   2.190  11.667  12.654 -0.0198 -0.4049 -0.1208
16872W        W32946  16.066   0.238   5.571  0.0680 -0.1990  0.1055
16873W        W32947   3.560  16.029  14.286  0.1434  0.1942  0.1394
16874W        W32948  11.586   3.303   1.232 -0.1353  0.2122 -0.1889
16875W        W32949   5.969  12.601  14.900 -0.1143  0.2191  0.1167
16876W        W32950  10.580   2.941  14.993  0.2541 -0.1384 -0.0501
16877W        W32951  13.330   8.390   0.980 -0.4101  0.1442  0.0864
16878W        W32952  13.000  10.386   2.353 -0.0090  0.1366 -0.2017
16879W        W32953  17.957   1.690  14.761  0.1529 -0.2482 -0.0229
16880W        W32954   4.768  14.429  12.437 -0.0708 -0.0372  0.0348
16881W        W32955  17.339  12.183   5.009  0.0603  0.2926 -0.2938
16882W        W32956   2.170   5.914  14.295 -0.3176  0.1357  0.0127
16883W        W32957  10.809   7.568  11.824  0.0626  0.0563 -0.2456
16884W        W32958  12.156   4.301  15.236 -0.3815 -0.1923 -0.0844
16885W        W32959  14.755   9.999   2.263  0.0577  0.1768  0.1638
16886W        W32960  12.389  15.399   2.453 -0.1280  0.0650 -0.3346
16887W        W32961   8.519   0.108  16.536  0.1892  0.0256  0.0246
16888W        W32962   5.826   6.072   0.698 -0.1158  0.3815  0.2544
16889W        W32963   0.632  13.829   1.841  0.0383  0.0426 -0.1499
16890W        W32964  13.248  17.990  15.895 -0.1339 -0.0421  0.1096
16891W        W32965   1.655   5.069   0.577 -0.0025  0.1040 -0.2566
16892W        W32966  17.417   1.183   0.211 -0.5009 -0.0574  0.0696
16893W        W32967   6.434   8.871   4.000 -0.0703  0.0312  0.2521
16894W        W32968  10.087   7.738   2.469 -0.0939 -0.0580  0.1300
16895W        W32969  16.676   3.834  11.028  0.1119 -0.0587 -0.2296
16896W        W32970   8.419   3.276   5.410 -0.0704  0.2810  0.4755
16897W        W32971  11.853   3.334   2.426  0.0280 -0.3342 -0.1516
16898W        W32972  17.705   8.540  12.899 -0.0437  0.0263 -0.0690
16899W        W32973   8.137  14.475   0.416 -0.2861 -0.0438 -0.2535
16900W        W32974  12.167   6.451  11.780  0.0388  0.0362  0.0303
16901W        W32975  11.878  13.735  13.055 -0.1126 -0.1123  0.0132
16902W        W32976  17.714  12.163  14.618 -0.0180  0.1066  0.2375
16903W        W32977   7.513  12.244   3.273  0.1732 -0.1521  0.0101
16904W        W32978   0.057   6.208   1.581 -0.0656  0.1823  0.0410
16905W        W32979   2.597  11.676  13.505  0.5008 -0.0778 -0.3283
16906W        W32980   7.508  17.803   5.497 -0.0785  0.0507  0.2898
16907W        W32981   8.520   7.174   3.350  0.1093 -0.2899  0.0281
16908W        W32982  14.395  12.294   4.354  0.3342  0.0928 -0.2848
16909W        W32983   6.376   0.440   2.053 -0.3133 -0.0186  0.1520
16910W        W32984  11.197   8.994  16.374 -0.0247  0.0734 -0.0797
16911W        W32985  17.474   9.831   2.867 -0.2778 -0.0387 -0.0493
16912W        W32986  14.860   0.738  15.170  0.1463 -0.1772 -0.3573
16913W        W32987  14.592   4.878   2.471  0.0270  0.0925  0.0654
16914W        W32988   3.990   9.176   3.617  0.1042 -0.1107  0.1484
16915W        W32989   9.044   8.713   1.100  0.1788  0.0091  0.0816
16916W        W32990   8.415   8.945   4.537  0.3498 -0.2550  0.0815
16917W        W32991   7.406   3.495   0.892  0.2662  0.1613 -0.0303
16918W        W32992   4.297  10.575   0.955  0.1098  0.0446  0.3178
16919W        W32993   3.452   7.162   1.678 -0.2717  0.0583  0.1456
16920W        W32994   1.764   7.578   6.109 -0.0691 -0.1907 -0.5139
16921W        W32995   9.106  17.569   4.905 -0.1635 -0.2959  0.1080
16922W        W32996   6.719  16.350   0.083 -0.0103  0.1081 -0.3735
16923W        W32997   6.440   0.799   4.127  0.0793 -0.2798  0.1468
16924W        W32998   0.844   5.781  15.660 -0.0593  0.0816 -0.0209
16925W        W32999  17.308  11.679  15.153 -0.3103 -0.0104 -0.3205
16926W        W33000   3.271  16.347  11.689  0.0082 -0.0957 -0.2591
16927W        W33001   4.436   5.968  13.758  0.0416  0.0294 -0.0051
16928W        W33002  11.947   3.584  15.949 -0.1480  0.0858 -0.2580
16929W        W33003  12.092   6.975   2.088 -0.0044  0.0894  0.2035
16930W        W33004   7.070   9.394  11.502  0.0944 -0.0310  0.0181
16931W        W33005  15.231  15.552   2.190  0.1734  0.1753  0.0670
16932W        W33006   6.523  10.006  16.116 -0.3983  0.2296 -0.1591
16933W        W33007   0.912   4.534  13.390 -0.2587 -0.1291 -0.2769
16934W        W33008  11.533   2.920  13.034  0.0252  0.2693  0.0880
16935W        W33009   6.582   3.101   1.843 -0.1380  0.0017  0.0693
16936W        W33010   6.216   4.946   2.505 -0.1587  0.0253  0.1701
16937W        W33011   5.543   7.162   6.358  0.0156 -0.1470  0.1474
16938W        W33012  12.832   9.787  13.505  0.3787 -0.3858 -0.0385
16939W        W33013  12.218   0.337  11.797 -0.0366 -0.4059  0.0071
16940W        W33014  11.799  12.025  13.539  0.0426  0.2777 -0.1777
16941W        W33015  15.163  17.623   4.520  0.3446 -0.1028 -0.0111
16942W        W33016  16.009   9.958  15.795 -0.0051  0.0108 -0.3381
16943W        W33017  15.319  13.923  12.058  0.1674 -0.0070 -0.2873
16944W        W33018  11.941   7.855  13.571 -0.0335  0.0018 -0.0829
16945W        W33019   3.013   1.160  13.493  0.1338  0.1648 -0.1959
16946W        W33020   9.161  17.710  12.323  0.2491  0.1670  0.0990
16947W        W33021  15.040  14.015   1.366  0.0387  0.1420 -0.2332
16948W        W33022   1.737  12.552  14.686 -0.0447 -0.2514 -0.0054
16949W        W33023   3.789  12.905  11.497 -0.0884 -0.2673  0.0421
16950W        W33024  11.973  16.093   3.027 -0.1288  0.0730  0.1125
16951W        W33025  11.596   9.098  11.928  0.1417  0.0837  0.0469
16952W        W33026  10.383  16.507  14.637  0.0789 -0.0028  0.1386
16953W        W33027  15.838  13.301   1.661 -0.3203 -0.0136 -0.1510
16954W        W33028  15.695   9.983   3.982  0.0130  0.3193  0.0524
16955W        W33029   2.009   5.846   0.675 -0.0136  0.1323 -0.1155
16956W        W33030  10.302   9.020  16.291  0.2109  0.1793 -0.0829
16957W        W33031  15.577  10.067  15.216  0.0938  0.1071  0.0833
16958W        W33032   7.558  12.341   6.356 -0.1703  0.1139 -0.1068
16959W        W33033   1.186   7.566   3.648  0.1185 -0.1514  0.0550
16960W        W33034   6.611   8.411  16.402 -0.1039  0.0191  0.4703
16961W        W33035  11.720  10.818   3.252 -0.0493  0.0119 -0.1907
16962W        W33036  11.171   2.809   3.170 -0.0091  0.1523 -0.1339
16963W        W33037   8.491  10.018   5.133 -0.0535 -0.1400  0.1084
16964W        W33038  15.609  16.030   5.757 -0.1549 -0.4115 -0.2285
16965W        W33039   8.307   1.944   0.025 -0.0142  0.0974 -0.1478
16966W        W33040  11.669   8.442   2.407  0.0356  0.0964 -0.1143
16967W        W33041   9.074   9.877   0.698 -0.2725 -0.0397 -0.0051
16968W        W33042  12.800  13.463   5.475 -0.1503  0.0015  0.0238
16969W        W33043   0.477   6.586   1.309  0.2600  0.0025  0.2318
16970W        W33044   7.210  17.317  12.791  0.1946  0.2116 -0.1449
16971W        W33045   5.681   0.049   3.272  0.0990 -0.4824  0.2895
16972W        W33046  15.030   0.554   1.308  0.0644  0.1704  0.2314
16973W        W33047   4.653   3.022  16.139  0.0037  0.3173 -0.1226
16974W        W33048  14.169   6.429   2.934  0.1298  0.0765 -0.1018
16975W        W33049   7.323  13.165  15.418  0.0181 -0.0703 -0.0419
16976W        W33050   0.291  10.508   3.381  0.0210 -0.0078 -0.1219
16977W        W33051   7.696  16.510   1.032 -0.0856 -0.0025 -0.0882
16978W        W33052   1.452  11.647   6.068 -0.1485 -0.0390  0.0995
16979W        W33053  11.539   9.499   3.697 -0.0203 -0.2843 -0.0283
16980W        W33054   9.686   6.038  13.056 -0.2808 -0.3981  0.0680
16981W        W33055   7.966  10.439   5.931 -0.0968  0.2444 -0.3054
16982W        W33056  17.475   7.980  14.796  0.1923 -0.3104  0.1120
16983W        W33057   9.064   4.787  12.139 -0.1917 -0.1538  0.1452
16984W        W33058  17.423  10.906  16.184 -0.1966 -0.0993 -0.6339
16985W        W33059   0.619   6.539   0.689  0.1119 -0.3085 -0.0660
16986W        W33060   9.325   0.278   4.532  0.0460 -0.1601  0.0608
16987W        W33061   3.479  12.739  12.546 -0.0422 -0.0748  0.1911
16988W        W33062   4.039   5.497  16.047 -0.2413  0.0612 -0.0176
16989W        W33063  11.162   8.252  15.302 -0.4231 -0.3693  0.0512
16990W        W33064  15.197  13.763   3.389 -0.1357 -0.0203  0.0566
16991W        W33065   1.805   3.791   3.209  0.1476 -0.0814  0.0743
16992W        W33066   2.078   9.200  15.107 -0.1903  0.0547 -0.1501
16993W        W33067   1.807  13.719   1.839  0.0178 -0.0258 -0.0532
16994W        W33068  12.946   6.357  12.244  0.1234  0.0075  0.1120
16995W        W33069   0.953   4.028  13.585  0.2258 -0.2331  0.1105
16996W        W33070   7.754   3.824   3.454 -0.3493 -0.2199  0.1611
16997W        W33071  11.863   8.724  11.701 -0.1140  0.1640  0.0059
16998W        W33072   5.951   1.527  13.371  0.0124 -0.3761  0.1878
16999W        W33073   0.122  15.027   3.568  0.2596 -0.1318  0.1149
17000W        W33074  10.669   5.442  13.530 -0.0103 -0.1970  0.1344
17001W        W33075   3.524   6.900   4.704 -0.0655 -0.0050 -0.1135
17002W        W33076   3.685   0.523   1.495  0.3154 -0.2619  0.1517
17003W        W33077   3.096  12.961   2.586  0.1336 -0.1383 -0.0163
17004W        W33078   9.031   9.206   1.621  0.0455 -0.2451 -0.0325
17005W        W33079  11.106  15.990   0.648 -0.2175  0.3924 -0.2550
17006W        W33080   6.521  13.879  14.188  0.0411  0.0202  0.0473
17007W        W33081   1.307   4.329  12.036 -0.1054  0.0892  0.2693
17008W        W33082  14.905   3.978  13.552 -0.1532 -0.1438  0.1986
17009W        W33083   9.794  12.150   4.568 -0.1533 -0.2954 -0.0015
17010W        W33084  17.297   9.945  14.536 -0.0373  0.0282  0.1205
17011W        W33085   8.290   7.789   3.958 -0.1396 -0.1834  0.4729
17012W        W33086   8.301   8.464   0.603 -0.1022  0.0038 -0.1967
17013W        W33087   1.075  10.920   1.332  0.0315  0.1336  0.0172
17014W        W33088  13.420  16.762   4.612  0.0192  0.0194  0.1291
17015W        W33089   5.129   7.285  13.262  0.3130  0.3483 -0.3118
17016W        W33090   4.529   1.757  11.598  0.0842 -0.2602 -0.0671
17017W        W33091   0.300   9.354  13.988  0.0771 -0.0001  0.3360
17018W        W33092   8.009  10.983  13.603  0.2295 -0.1605  0.0149
17019W        W33093   2.905  16.583   1.431 -0.0297 -0.0651 -0.0446
17020W        W33094   5.871   9.350   4.123  0.3241 -0.0203 -0.1893
17021W        W33095   9.794  11.064   4.935  0.1738  0.3794 -0.0056
17022W        W33096   7.904   8.150   0.403 -0.1956 -0.0100 -0.1922
17023W        W33097  13.932   9.985  15.362  0.2944 -0.2458 -0.1730
17024W        W33098   8.228  13.775   4.036 -0.1475  0.0468  0.1952
17025W        W33099  15.341  14.972  13.647 -0.3333  0.0223  0.2554
17026W        W33100  13.948  16.224  13.042  0.0639  0.0176  0.0213
17027W        W33101  11.134   1.978   2.933 -0.2488 -0.1681 -0.2479
17028W        W33102  17.863  16.308  15.451 -0.0161 -0.1833  0.2516
17029W        W33103  14.266   5.534   4.783 -0.3078  0.2630 -0.2705
17030W        W33104  10.852  15.554  14.112 -0.1940 -0.2858  0.0691
17031W        W33105   4.423   2.474   1.551  0.0234 -0.0208 -0.3055
17032W        W33106  11.286  12.674  12.372 -0.0651 -0.1986 -0.4791
17033W        W33107   1.050   7.694   4.880 -0.0488 -0.1523 -0.0209
17034W        W33108  14.915  15.272   1.121 -0.0250 -0.2907  0.0575
17035W        W33109  17.333  11.354   6.129  0.0155  0.0255 -0.2635
17036W        W33110   0.906  17.520   2.790 -0.0340 -0.2292 -0.2157
17037W        W33111  14.988   2.652   2.586  0.1378  0.1867  0.3660
17038W        W33112  17.360  18.031   3.267 -0.2309 -0.1128 -0.1832
17039W        W33113   5.197   3.197   5.664  0.0480 -0.0503  0.1617
17040W        W33114   1.666   4.852  14.978 -0.1508 -0.2342 -0.2520
17041W        W33115   0.469   7.991  14.736 -0.0297 -0.0727 -0.2194
17042W        W33116   2.559  16.273   5.699 -0.0665  0.0066 -0.1651
17043W        W33117   0.923   4.471  13.959 -0.1801 -0.1149 -0.0172
17044W        W33118   9.895   4.762   4.603  0.1322  0.2066 -0.0398
17045W        W33119   2.021   2.495   0.742 -0.3603  0.2657  0.0210
17046W        W33120   6.062  17.842  14.985 -0.0258  0.1658 -0.2438
17047W        W33121  14.430   1.673   0.548 -0.3386  0.0824  0.0671
17048W        W33122  15.733   5.885  12.011 -0.2183 -0.1296 -0.0215
17049W        W33123  13.386  14.491  15.466 -0.0746  0.2063 -0.1521
17050W        W33124   7.059   9.822   0.766 -0.0636  0.2104  0.4170
17051W        W33125   6.904   9.674   1.246  0.1172  0.0024  0.0459
17052W        W33126   0.116   7.988  16.057  0.0851  0.1779  0.2762
17053W        W33127  17.616  13.883   3.509 -0.0632 -0.1371 -0.1443
17054W        W33128   6.264   3.680  12.801  0.1027 -0.0378 -0.2547
17055W        W33129   4.204   8.030  14.259  0.0123  0.1556  0.1328
17056W        W33130  16.460   0.236   0.846 -0.2623  0.0699  0.1058
17057W        W33131  16.380   6.218   4.362  0.4286 -0.4230 -0.2765
17058W        W33132   8.104  11.606   0.418  0.0994 -0.0560 -0.1220
17059W        W33133  10.647   1.618  15.086  0.0735  0.1652 -0.3486
17060W        W33134  18.224   9.222   3.161  0.0835 -0.3112 -0.0106
17061W        W33135  10.075  10.509  14.718 -0.0605  0.0795  0.0842
17062W        W33136  10.521  12.848   2.377  0.1141  0.3589 -0.3651
17063W        W33137   1.565  16.867   5.021 -0.2597 -0.2323 -0.0111
17064W        W33138   5.631   3.260   4.840  0.0616  0.1585  0.0105
17065W        W33139   9.135  10.633   1.698  0.1781  0.5595  0.0209
17066W        W33140   0.588   0.126   2.982 -0.0702  0.0275 -0.3762
17067W        W33141  11.623  15.780   3.865 -0.0217 -0.1171  0.0883
17068W        W33142  12.421   1.869   0.084 -0.0849  0.5481 -0.2427
17069W        W33143   8.988   1.778  11.733  0.0060 -0.0350 -0.2711
17070W        W33144  14.318   3.604  14.909  0.0650  0.1377 -0.1255
17071W        W33145   5.003  17.917  13.118  0.0732  0.0471  0.2740
17072W        W33146  11.535   0.916  11.693  0.1901  0.2119 -0.2126
17073W        W33147  15.947   2.625   4.674  0.1002 -0.0620  0.0933
17074W        W33148   7.484  10.722  13.496  0.1677  0.2322  0.2586
17075W        W33149   2.504  16.998  15.430 -0.1455  0.0470 -0.2273
17076W        W33150   8.625  11.584   1.708 -0.2189  0.0603 -0.0501
17077W        W33151   9.881   4.815   3.992 -0.0642 -0.1182 -0.2089
17078W        W33152   0.462  18.146   3.810  0.2783  0.0518  0.0303
17079W        W33153  12.831  10.540  12.868  0.0476  0.2923  0.0550
17080W        W33154   8.876  15.405  15.482  0.2328 -0.0861 -0.0808
17081W        W33155   0.831  10.984  15.188  0.1884  0.1079 -0.1658
17082W        W33156  16.025   3.737  13.381 -0.2448  0.0956  0.0169
17083W        W33157   4.142   2.393   4.276 -0.1741  0.0710  0.0811
17084W        W33158   3.809  16.309  15.309  0.1907  0.1954  0.1927
17085W        W33159   1.844   5.343  15.953  0.1747  0.0530  0.2840
17086W        W33160  11.839   7.864  14.155  0.0039 -0.1336 -0.3579
17087W        W33161  15.134   2.669  15.548  0.0914  0.1134  0.0634
17088W        W33162  14.359   2.082   0.864 -0.2872 -0.1053  0.4254
17089W        W33163  15.815   9.277   3.522 -0.1294 -0.1778  0.1685
17090W        W33164   1.989  16.078   0.701  0.1246  0.2554 -0.2752
17091W        W33165  10.668   7.461   1.307  0.0265  0.0015  0.1650
17092W        W33166   7.861   4.088   3.871  0.1882 -0.1740  0.0480
17093W        W33167  17.478  14.163   2.797  0.1893 -0.2288 -0.0086
17094W        W33168  17.927   5.342   0.894 -0.0968 -0.1378 -0.1376
17095W        W33169   6.950   7.714  11.332  0.1089  0.0495  0.1656
17096W        W33170  15.437  14.747  11.441  0.1434 -0.3816  0.0112
17097W        W33171  12.011   8.836  15.641  0.0487  0.0066  0.0748
17098W        W33172   5.182   1.658  15.277  0.0701  0.3017  0.2879
17099W        W33173  17.637  10.763   4.337  0.0969 -0.1102  0.1709
17100W        W33174   4.845  13.361  14.420 -0.2085  0.1004 -0.2043
17101W        W33175   4.851  10.245  16.416 -0.2558 -0.3760  0.1287
17102W        W33176   7.291  12.124   3.765 -0.0973  0.0347  0.3359
17103W        W33177  10.116   8.849   6.050 -0.3425  0.0020 -0.0967
17104W        W33178  11.235  16.623  11.607  0.1526 -0.0632 -0.1437
17105W        W33179  14.825   4.338  16.025  0.5105 -0.2440 -0.1910
17106W        W33180  16.229  12.417  13.079 -0.0513  0.1192 -0.1937
17107W        W33181   5.140  16.669  13.144 -0.1970 -0.1013  0.0241
17108W        W33182  17.271   4.281   0.706  0.1239 -0.2418  0.1362
17109W        W33183  12.395  16.733   2.351  0.0188  0.3477 -0.0712
17110W        W33184   5.467  17.294  12.549  0.1037  0.0185  0.2089
17111W        W33185  17.020   2.128   0.046  0.1627  0.2594  0.2123
17112W        W33186   3.105   0.375   5.181 -0.1229 -0.0085 -0.0306
17113W        W33187  12.838  13.633  12.205 -0.1607 -0.1653  0.0835
17114W        W33188   8.189   0.684   0.580 -0.1360  0.2537 -0.0737
17115W        W33189   4.819   0.449   2.281  0.1161  0.0971 -0.1684
17116W        W33190   3.731   7.634   0.880  0.0197  0.2381 -0.1134
17117W        W33191  10.828   9.990  12.278  0.0756 -0.2118  0.0867
17118W        W33192   1.275  16.263  14.844  0.1042  0.0221 -0.0151
17119W        W33193  14.472   4.988  13.492 -0.0135 -0.0833  0.0846
17120W        W33194  10.506   6.691  15.125 -0.1071 -0.0192  0.0012
17121W        W33195   1.598   9.842  15.738 -0.0223 -0.0901  0.0226
17122W        W33196   2.638  17.796   5.280 -0.3286 -0.0464  0.0516
17123W        W33197   4.553  10.541  12.946 -0.1929 -0.1632 -0.1511
17124W        W33198  12.149   0.032   0.568  0.1260 -0.2099 -0.0701
17125W        W33199  15.545  17.374   1.980  0.2399 -0.3288 -0.0346
17126W        W33200   0.795  12.748   3.451 -0.2426  0.1062 -0.1350
17127W        W33201  13.214   9.696   5.655  0.1921  0.2338 -0.0197
17128W        W33202   9.214  17.656  15.166 -0.1168 -0.1043 -0.0022
17129W        W33203  12.159  10.566   5.287  0.1016  0.0732  0.0112
17130W        W33204  15.744   8.585  15.620 -0.2356  0.2328  0.0630
17131W        W33205   8.965   3.496   3.341  0.2500  0.1069 -0.0648
17132W        W33206   6.451   3.107  12.657 -0.2049 -0.1116  0.2023
17133W        W33207   9.482  14.447   2.332 -0.2460 -0.2008  0.4410
17134W        W33208  13.188  15.285  12.769 -0.2251 -0.0251 -0.0229
17135W        W33209  12.533  13.386  15.970  0.0408 -0.2292 -0.0930
17136W        W33210  11.434   6.370  14.027 -0.0137 -0.0530 -0.1973
17137W        W33211   3.828   4.413   2.135 -0.4260  0.0283  0.0298
17138W        W33212  17.626  16.174  13.704  0.1939 -0.1141  0.0504
17139W        W33213  12.614   0.373  13.618  0.3673  0.0121 -0.1188
17140W        W33214  11.796   1.387   1.124  0.0983 -0.0745 -0.0538
17141W        W33215  17.585   9.531  11.835  0.1314  0.0946 -0.2572
17142W        W33216   8.320  17.019   0.649 -0.2121  0.1923 -0.0272
17143W        W33217  14.243   7.779   2.158  0.2179  0.1425  0.1637
17144W        W33218   5.007   1.146   0.091  0.1289 -0.1680 -0.0533
17145W        W33219   0.501   3.293  12.480 -0.0226  0.3060  0.0012
17146W        W33220   9.273   6.220   2.548  0.3383  0.0407 -0.0643
17147W        W33221   5.662  17.034  11.772  0.2553 -0.0991 -0.1019
17148W        W33222  17.346   6.453  10.701  0.1793  0.1485 -0.0033
17149W        W33223   9.446  13.957  12.577 -0.1267 -0.0767 -0.1576
17150W        W33224   0.890   2.130  14.009  0.0681  0.1890 -0.2388
17151W        W33225   7.651   4.360  13.410 -0.0442 -0.5517  0.0146
17152W        W33226  17.332  11.276   4.417  0.0735  0.2107  0.0767
17153W        W33227   8.004   0.012  15.799 -0.3109  0.0007  0.0957
17154W        W33228   4.546   8.965   4.545  0.1143 -0.0767  0.0632
17155W        W33229  18.066   2.715  12.680  0.2134 -0.2227 -0.0628
17156W        W33230  13.923   5.303  16.491 -0.0969 -0.0214  0.2244
17157W        W33231   8.144   1.017  15.536 -0.1501  0.0598 -0.2729
17158W        W33232   8.291   2.654  12.001  0.1098 -0.0362  0.3539
17159W        W33233   2.155  14.959   4.053 -0.0941 -0.0883 -0.0213
17160W        W33234  17.298   1.152   3.574 -0.2441 -0.0645 -0.0235
17161W        W33235  17.749  14.869  12.426  0.1051  0.3800  0.1350
17162W        W33236   1.028   2.273   3.701 -0.0590 -0.2876 -0.1350
17163W        W33237  12.111  12.801  13.318  0.1558 -0.2371  0.1179
17164W        W33238  13.329   3.498  15.798 -0.0450 -0.0126 -0.2429
17165W        W33239   3.278   1.447  11.665 -0.1143 -0.2080  0.0827
17166W        W33240  15.120   5.164   6.329 -0.0755 -0.0928 -0.0165
17167W        W33241   6.415  13.199   3.062 -0.4474  0.2910 -0.2555
17168W        W33242   0.805  12.065   4.494 -0.0535 -0.1473  0.0671
17169W        W33243  16.224   7.388  13.618 -0.1594  0.3216  0.0503
17170W        W33244   5.359  13.542   4.716  0.1915 -0.1614  0.1611
17171W        W33245   7.161  10.012  15.520 -0.2414 -0.1257  0.2305
17172W        W33246   3.555  11.863  12.087  0.2375  0.1185 -0.0333
17173W        W33247   1.280   0.194  12.628  0.4703 -0.2581 -0.3674
17174W        W33248  10.911  14.352   0.019 -0.1855 -0.0604 -0.3433
17175W        W33249   7.757  12.985   3.842 -0.1186  0.0952 -0.1445
17176W        W33250  16.740  12.125   4.275 -0.0079  0.0894 -0.2856
17177W        W33251  15.030  12.095   4.293  0.0066 -0.2151  0.1055
17178W        W33252   4.749  15.071   2.350  0.1443  0.0293  0.1447
17179W        W33253  18.123   6.156  14.252  0.1889  0.0032  0.0542
17180W        W33254   0.282  15.517   0.870 -0.0370  0.1007  0.1507
17181W        W33255   1.126  13.807  11.929  0.0122  0.1891  0.1711
17182W        W33256  16.082   7.648  13.103 -0.1685  0.1496  0.0308
17183W        W33257  18.206   0.701  15.971  0.1375 -0.1868  0.0056
17184W        W33258   5.639   4.714  12.546  0.1597 -0.0885 -0.1369
17185W        W33259  16.346   4.421   4.088  0.2444  0.1048  0.0439
17186W        W33260   9.903   8.535   1.655  0.0833 -0.0660  0.2169
17187W        W33261   2.322   8.437   0.199 -0.1853  0.4317  0.2379
17188W        W33262   8.304   2.804   5.332  0.0925  0.0473  0.2802
17189W        W33263   7.410  13.215   2.933  0.0115  0.0887 -0.1387
17190W        W33264  12.681   3.828   0.616 -0.3072  0.0702  0.0963
17191W        W33265   2.498  10.509   2.147 -0.2296 -0.1678  0.2041
17192W        W33266  12.843  10.852  12.469  0.0346 -0.0518  0.4469
17193W        W33267   2.854  12.120   2.366  0.0515  0.1138 -0.3851
17194W        W33268   9.530  15.522   2.057  0.1727  0.0316  0.1598
17195W        W33269  17.108   6.235   0.429  0.0902  0.2553 -0.1747
17196W        W33270   6.123   2.313   5.725  0.1433  0.1402 -0.0773
17197W        W33271  10.228   6.487   5.883  0.0878  0.2145  0.3221
17198W        W33272  12.448  13.746   3.451  0.0546 -0.2562  0.0698
17199W        W33273   8.573  18.139   2.754 -0.1180 -0.1394 -0.1107
17200W        W33274   2.576  11.605  15.150 -0.2380  0.2150  0.0953
17201W        W33275  17.167   1.071  16.350 -0.2273 -0.3390  0.0165
17202W        W33276  15.939   1.239  11.468 -0.1464 -0.3803  0.3350
17203W        W33277  11.384   2.788  16.544  0.0974  0.0447  0.0112
17204W        W33278  13.492   9.208   0.160  0.2612  0.0444  0.0282
17205W        W33279  18.185  12.743  11.963  0.0384  0.1233 -0.1829
17206W        W33280   2.546   9.814   0.539  0.1170  0.1255  0.2695
17207W        W33281  13.057   9.886  11.646  0.1161  0.3256 -0.0437
17208W        W33282  13.324   7.580  14.257 -0.1592 -0.1883 -0.0807
17209W        W33283   2.165   8.203   3.015  0.0337 -0.1015  0.0624
17210W        W33284   3.333  14.240  16.330 -0.1453 -0.0202  0.1223
17211W        W33285   7.860  15.513   4.749 -0.2949  0.1399  0.0127
17212W        W33286  14.576   0.864  11.669 -0.1048  0.1093  0.2529
17213W        W33287   7.367   3.934  14.939 -0.0251  0.1261 -0.1788
17214W        W33288   9.467  12.028   3.135  0.3212 -0.0541 -0.0023
17215W        W33289  13.186   5.426   2.612  0.4363 -0.1332  0.0389
17216W        W33290  15.573   2.772   3.861  0.1433 -0.1139 -0.0992
17217W        W33291  10.589  17.188  15.725  0.0036  0.0677  0.2365
17218W        W33292   8.759  11.654  14.045 -0.1742 -0.1020 -0.2328
17219W        W33293   9.671   7.069  15.112  0.2270  0.1541 -0.2409
17220W        W33294  16.267  16.860   5.790  0.0748  0.0786  0.0332
17221W        W33295   3.334   7.965   0.911  0.2529  0.0523 -0.1688
17222W        W33296  16.356  13.054  14.023 -0.2520  0.1546 -0.0118
17223W        W33297   1.992   9.679  15.510 -0.0910  0.1824 -0.1053
17224W        W33298  12.888   3.737   1.111  0.0061 -0.3437 -0.2820
17225W        W33299   7.196   1.774  15.295  0.3566 -0.2090  0.0797
17226W        W33300   6.652  10.774   2.791  0.2328 -0.4291  0.0156
17227W        W33301  17.357   8.682   3.917 -0.0208 -0.0218  0.2550
17228W        W33302   9.078   7.681   4.873 -0.1026  0.0019 -0.0128
17229W        W33303  16.519  11.680   3.910 -0.2002 -0.4113 -0.4120
17230W        W33304   1.599  12.951   0.836  0.1175 -0.1301  0.2450
17231W        W33305   9.671   7.076  15.643 -0.0668  0.0701  0.0490
17232W        W33306   1.384  15.010  12.158  0.1495  0.1057 -0.1118
17233W        W33307   5.196   1.517  13.799  0.0119 -0.0832  0.2511
17234W        W33308   5.357   9.218  12.704 -0.0089  0.1798 -0.0044
17235W        W33309   5.918  10.051   1.743 -0.2286  0.0287 -0.1051
17236W        W33310  17.723  14.866  11.159 -0.1759  0.0041 -0.0465
17237W        W33311  16.691   8.584   2.355 -0.0656  0.0121 -0.0601
17238W        W33312   9.478   6.125   3.497  0.4408 -0.1808  0.1953
17239W        W33313   2.095  15.630   0.417 -0.2745 -0.1755 -0.0525
17240W        W33314   7.899   7.706   5.023  0.2758 -0.0672  0.2714
17241W        W33315   4.038  17.016  13.076 -0.3262 -0.4760 -0.1511
17242W        W33316   8.829   4.241   5.898  0.1648 -0.1197  0.3633
17243W        W33317  13.807  10.819   2.957  0.2883  0.2769 -0.1457
17244W        W33318  17.902  18.156   3.361 -0.0109  0.2256  0.2037
17245W        W33319   2.363  11.091   4.566 -0.0286  0.1825  0.0885
17246W        W33320   1.097  16.589  14.409  0.0450 -0.1264  0.2567
17247W        W33321   2.604   0.084   5.390 -0.2653 -0.1378 -0.0584
17248W        W33322  12.890   7.526  15.175 -0.0659  0.0647 -0.1694
17249W        W33323   9.789   8.561  13.113  0.1441 -0.1972 -0.2136
17250W        W33324   4.494  16.548  15.459  0.2092  0.0235 -0.2753
17251W        W33325   4.606   6.940   0.142 -0.1013  0.3240 -0.0677
17252W        W33326   1.015  15.473   4.947 -0.3221 -0.0955 -0.2881
17253W        W33327  10.747  10.209   3.836 -0.0099 -0.0710 -0.2475
17254W        W33328   0.142   9.204   5.320  0.1589 -0.0274  0.2235
17255W        W33329  10.562   0.919   0.613  0.1530  0.2486 -0.0802
17256W        W33330  16.025  11.822  15.352  0.2327  0.1798  0.0630
17257W        W33331   0.562  10.460  13.170  0.1925 -0.0623 -0.0888
17258W        W33332  13.066  11.896   5.768  0.0062 -0.0543  0.1313
17259W        W33333   4.302  15.932  12.236  0.2811  0.2156  0.0105
17260W        W33334  16.010   0.442   1.621 -0.0746 -0.0170  0.1249
17261W        W33335  13.383  10.625   4.730 -0.2812 -0.1716  0.0125
17262W        W33336  14.099  11.065  14.288  0.1177  0.2119  0.1403
17263W        W33337  12.393  11.959   4.307 -0.0878 -0.1444 -0.0932
17264W        W33338  18.165   5.407  15.378  0.1790 -0.1528  0.2055
17265W        W33339   2.451   5.238  14.667 -0.0256 -0.0901 -0.1213
17266W        W33340   4.243  16.724  13.921  0.1672 -0.2109 -0.0267
17267W        W33341   0.761  11.291  11.618  0.0031 -0.0473  0.0128
17268W        W33342  14.421   3.586  13.241  0.2226  0.1166  0.1677
17269W        W33343  17.653  15.723   1.916 -0.0211  0.4002 -0.0111
17270W        W33344   9.885   6.353   4.920 -0.2743 -0.0534  0.0044
17271W        W33345   4.756  16.672  11.318 -0.1398  0.2371 -0.1270
17272W        W33346   4.479   5.657  12.236  0.4136 -0.3436  0.0365
17273W        W33347   1.945   6.229   3.617  0.0309 -0.1579 -0.0004
17274W        W33348   4.944  15.131   1.002 -0.0709 -0.0367 -0.1149
17275W        W33349  16.908  13.745  13.643  0.3101  0.2550 -0.1380
17276W        W33350  12.724  10.061  16.510 -0.0690 -0.0335  0.0844
17277W        W33351   7.847   2.870   1.712 -0.1201  0.2052 -0.1281
17278W        W33352  17.603   1.108  13.645 -0.1234 -0.1830 -0.0346
17279W        W33353   1.189   1.113  16.523 -0.0386  0.0661  0.0471
17280W        W33354   0.797  12.934   0.358 -0.0072  0.0605 -0.2979
17281W        W33355   7.367   6.661   3.991  0.0756  0.1822 -0.1206
17282W        W33356   7.986   9.299  14.009 -0.1685  0.3434  0.1801
17283W        W33357   3.017   8.387  11.767 -0.0684  0.0775 -0.0761
17284W        W33358   4.237  10.323   5.288  0.0470  0.0143 -0.1227
17285W        W33359  12.797   2.814  14.792  0.1885 -0.2619  0.1304
17286W        W33360  13.377   2.505  14.682  0.1064 -0.0594 -0.1701
17287W        W33361   4.426  12.458   4.821  0.1256  0.2345 -0.1877
17288W        W33362   9.235  13.111  12.590  0.0275 -0.1846  0.2415
17289W        W33363   5.020   1.593  11.835 -0.2530  0.1209  0.0558
17290W        W33364  13.220   9.034   5.594  0.2686  0.1222 -0.2007
17291W        W33365  15.198  17.220   4.124 -0.0252  0.1686 -0.0471
17292W        W33366  16.583   4.918  13.876 -0.1028  0.3028 -0.5780
17293W        W33367   1.931   7.847   1.173  0.0852 -0.1554  0.0412
17294W        W33368  15.262   2.614  12.635 -0.0406  0.2554 -0.0468
17295W        W33369   1.057   5.697   4.039 -0.0088 -0.0210  0.4211
17296W        W33370   3.129  14.962  10.895 -0.0560  0.1777 -0.2066
17297W        W33371   8.419  13.196   2.396  0.0388  0.1108  0.1030
17298W        W33372  16.170   1.343   2.261  0.5899 -0.1261  0.0818
17299W        W33373   5.736  16.518  14.160 -0.3147 -0.0422  0.0558
17300W        W33374   9.136   5.667  15.428 -0.0112 -0.0175  0.2609
17301W        W33375  16.256   1.756   1.998  0.0036  0.0845 -0.2089
17302W        W33376   4.295  14.063  13.631 -0.0747  0.2732 -0.0629
17303W        W33377  13.797  13.021  14.955  0.0434  0.2168 -0.0686
17304W        W33378   2.867   2.889   4.259 -0.0732  0.2482 -0.3368
17305W        W33379  13.281   6.608   4.203 -0.4232  0.3437 -0.1239
17306W        W33380  15.303  17.134   4.775  0.0725 -0.0010  0.2094
17307W        W33381  10.926  12.491  13.669  0.2753  0.0558  0.1640
17308W        W33382  10.834   3.369  12.317 -0.1363  0.0907  0.0041
17309W        W33383   6.446   9.176  15.298 -0.1258  0.0464 -0.0778
17310W        W33384  14.767   3.575  11.370  0.1705 -0.0312 -0.3585
17311W        W33385  15.530   6.636   1.482 -0.0578  0.1578  0.3386
17312W        W33386   8.166   9.181  13.573  0.1696 -0.2827 -0.1825
17313W        W33387  13.389   9.286   6.073  0.2772  0.4333  0.4179
17314W        W33388  10.094  16.762  12.403  0.0908  0.1281 -0.1956
17315W        W33389  17.615   8.204   2.377 -0.1880 -0.0336 -0.1137
17316W        W33390  15.297  17.552   3.288  0.2310  0.2442 -0.0719
17317W        W33391   0.327   4.087  14.366  0.0939 -0.1296 -0.1434
17318W        W33392   1.550   3.557  12.185 -0.0454  0.0738  0.2348
17319W        W33393   4.506   1.147  14.764 -0.0741  0.0740 -0.0348
17320W        W33394   2.575  16.854  13.412  0.0133 -0.2515  0.1375
17321W        W33395   1.107   1.546   0.757  0.1648 -0.1574 -0.2348
17322W        W33396   2.426  11.338   1.935  0.1149 -0.0801  0.1800
17323W        W33397   1.330   7.571  15.790  0.3184 -0.2565 -0.0427
17324W        W33398  12.466   9.459   2.609 -0.0914  0.3853  0.1275
17325W        W33399  10.163   7.327  14.944 -0.0919 -0.1919 -0.0014
17326W        W33400  13.095  14.604   5.210  0.1441  0.0099 -0.2273
17327W        W33401  15.626   3.636   4.447  0.3239 -0.0145  0.0734
17328W        W33402   7.742   1.351   3.647 -0.5094  0.0059 -0.3114
17329W        W33403   7.719  14.276   1.891 -0.1399  0.0516 -0.0982
17330W        W33404  14.359  18.156   1.118 -0.0728 -0.0206 -0.1217
17331W        W33405   7.636   7.901  12.188 -0.0518  0.0924  0.0070
17332W        W33406  15.851  16.800  16.289 -0.1261  0.1860 -0.0887
17333W        W33407   7.150   6.890   5.206 -0.2511 -0.0787 -0.0150
17334W        W33408   3.143   0.553  15.438  0.0626  0.4088  0.0203
17335W        W33409   7.377  14.090   2.550  0.1106 -0.5166  0.1100
17336W        W33410  10.987  13.563   5.793 -0.1374 -0.1128 -0.4056
17337W        W33411   6.394   0.844  13.934 -0.0330  0.1532 -0.3738
17338W        W33412  15.004  15.395   2.663 -0.0295  0.2620 -0.4714
17339W        W33413   6.538  18.211   3.568 -0.0357 -0.1284 -0.3836
17340W        W33414  17.096  10.774  15.245  0.3485  0.0519  0.3914
17341W        W33415   7.134  10.090   3.311 -0.0567 -0.1754 -0.3075
17342W        W33416   5.612  16.588  15.324 -0.1573  0.1932 -0.0389
17343W        W33417   4.458   9.850   6.270  0.4296 -0.3560 -0.1109
17344W        W33418   8.438   5.238   3.463 -0.0728  0.1397 -0.0558
17345W        W33419   7.357  13.812   5.204  0.0551  0.0375  0.1031
17346W        W33420   6.239  15.529   2.838 -0.1432  0.1200  0.1413
17347W        W33421  16.803   5.219   3.115 -0.2467 -0.0003 -0.1872
17348W        W33422   5.243  10.334   3.405 -0.0546 -0.1377 -0.0788
17349W        W33423  16.876   2.645  13.423 -0.1605  0.6776  0.3057
17350W        W33424   3.849  12.360  14.426 -0.1889  0.0611  0.0729
17351W        W33425   8.840  15.930  11.778 -0.0533  0.1278  0.0742
17352W        W33426   2.840   8.534  13.152 -0.0862 -0.1032  0.2382
17353W        W33427  15.132   3.013   0.031 -0.0121  0.2402 -0.2017
17354W        W33428   0.886   7.808   0.186 -0.2660  0.0581 -0.1838
17355W        W33429   3.478   4.913  14.841 -0.0741 -0.0214 -0.4327
17356W        W33430  17.656  13.684  10.061  0.2757 -0.1345  0.3185
17357W        W33431  14.248   7.070   0.393 -0.0179 -0.1379 -0.2688
17358W        W33432   9.192   2.121   2.677  0.1528 -0.1304  0.0347
17359W        W33433   0.687  15.516   2.304  0.1846  0.0695  0.0348
17360W        W33434  13.804   6.255   4.722 -0.1660  0.0914  0.1306
17361W        W33435   2.700   6.572  14.645 -0.2451 -0.0874  0.0166
17362W        W33436  12.433   8.201   0.385  0.1564 -0.0927 -0.2415
17363W        W33437  14.698  11.535   5.649 -0.0445 -0.2368 -0.0682
17364W        W33438   0.287  13.657   4.931 -0.3238 -0.1437  0.1324
17365W        W33439   4.321   6.912   3.055 -0.1332 -0.0030  0.0310
17366W        W33440   6.767  10.992  12.099 -0.1277 -0.2852  0.1285
17367W        W33441   3.229   7.012  12.145  0.0462 -0.0515  0.0457
17368W        W33442   9.846   7.548   0.606 -0.0837 -0.1220 -0.0460
17369W        W33443   9.468  10.820  14.023 -0.1336 -0.1643 -0.2349
17370W        W33444   9.559   8.652   2.560 -0.0310  0.0093 -0.0859
17371W        W33445  12.539  16.660   4.915  0.0840  0.2228 -0.3611
17372W        W33446   6.678  17.154  15.868 -0.2999  0.1212 -0.0245
17373W        W33447   4.360  16.780  16.023  0.0270  0.0661  0.1256
17374W        W33448   1.311  12.160  11.256 -0.2904  0.4099  0.2272
17375W        W33449  17.869   7.098   3.606 -0.0238 -0.1548 -0.0380
17376W        W33450   7.090   9.821  13.280  0.2848  0.0612 -0.0940
17377W        W33451  17.688  15.578   4.851  0.0950  0.0143  0.0085
17378W        W33452   2.655   4.349  14.341  0.0605  0.0379  0.2914
17379W        W33453   7.485  16.425   2.934 -0.0406  0.2757  0.1806
17380W        W33454   2.165  13.023   3.770 -0.0862  0.0364  0.1863
17381W        W33455   5.052   2.180  16.425  0.0493  0.2822  0.2033
17382W        W33456   9.856   1.627   3.477 -0.0541 -0.0067  0.0118
17383W        W33457   1.260   5.313   5.371 -0.0523  0.1273 -0.0491
17384W        W33458   4.702  15.089   1.442 -0.0092  0.2375 -0.4009
17385W        W33459   6.327  14.209   0.817 -0.0625  0.4130 -0.3745
17386W        W33460  11.917  18.000   1.618 -0.0145 -0.2336 -0.1423
17387W        W33461   2.138   4.733   3.832  0.1274  0.0401 -0.1240
17388W        W33462  17.915  13.824   0.397 -0.1213 -0.2077  0.0919
17389W        W33463   0.045   3.371   1.890  0.0597  0.0872  0.1812
17390W        W33464   6.664   9.279   2.084  0.2262 -0.2131  0.2861
17391W        W33465   4.347  17.115  14.216  0.1115 -0.0571 -0.2722
17392W        W33466  14.641  15.860  12.674  0.0954  0.0477  0.1115
17393W        W33467   2.040  15.182   5.421  0.2005  0.3057  0.0659
17394W        W33468  16.812   4.385   0.960 -0.0014 -0.0665 -0.1822
17395W        W33469   5.648  14.656  15.487 -0.2645  0.0843  0.0158
17396W        W33470  11.328  15.502   3.629  0.0006  0.3403 -0.2509
17397W        W33471   4.690   6.119  11.784 -0.0636 -0.2127  0.0657
17398W        W33472   7.162   9.347   1.528  0.0115  0.0779 -0.0237
17399W        W33473  11.792   3.039  13.426 -0.0429  0.1196  0.1074
17400W        W33474   5.058  10.225   4.909 -0.2056 -0.2223  0.4868
17401W        W33475  10.826  14.653   1.431  0.0468  0.0336 -0.1141
17402W        W33476   3.718   7.367   3.488  0.1709  0.2127 -0.2303
17403W        W33477   3.350   7.916   2.615 -0.1355  0.0808  0.1281
17404W        W33478   0.644  14.391  11.239  0.1137  0.0191 -0.1391
17405W        W33479  15.563   2.802   6.117 -0.0188  0.1555  0.1949
17406W        W33480  15.659  10.882   0.941 -0.1685 -0.1137  0.1607
17407W        W33481  18.104  15.117  12.775  0.2928 -0.0810  0.2235
17408W        W33482   0.173   2.943  15.617 -0.3510  0.5390 -0.3068
17409W        W33483   9.162   7.426  14.350 -0.0588  0.1663  0.2927
17410W        W33484   7.934   1.991   3.909 -0.4212 -0.0114 -0.1497
17411W        W33485   5.104   3.959   2.998  0.0211 -0.0657  0.1342
17412W        W33486   5.526   4.165  12.607 -0.1910 -0.1194  0.2146
17413W        W33487   1.867   9.409  13.170  0.2615 -0.1921 -0.1546
17414W        W33488  16.939   4.347  11.519 -0.1950 -0.0340 -0.2378
17415W        W33489  17.386  14.981   2.385 -0.0245  0.0342  0.1375
17416W        W33490  17.851   5.807  14.514  0.2074  0.1809  0.3398
17417W        W33491   1.807   0.619   1.011  0.0405 -0.0299  0.0327
17418W        W33492  10.104  12.110   5.145 -0.0655  0.3006  0.1659
17419W        W33493   6.569  11.197   2.354 -0.1667 -0.0004 -0.0128
17420W        W33494   6.220  17.393  15.209 -0.2249 -0.2247  0.1171
17421W        W33495   1.423   7.779  11.637  0.0250 -0.1467  0.1261
17422W        W33496  11.075   1.330   1.723  0.0147 -0.0188 -0.3879
17423W        W33497   7.597   7.179   1.773 -0.0611  0.0242 -0.3610
17424W        W33498   9.041  17.037   2.811 -0.1624  0.1331  0.1487
17425W        W33499   0.728   1.203   0.753  0.1230  0.2329  0.3715
17426W        W33500  16.472   8.822   0.913 -0.2202  0.2468 -0.2138
17427W        W33501   2.253  17.503  12.603 -0.2965  0.0407  0.0100
17428W        W33502   9.440  14.637   1.780 -0.2536  0.1071  0.0576
17429W        W33503  11.299  11.668   2.036  0.1433 -0.0155  0.0699
17430W        W33504   5.707  13.142   6.035  0.0153  0.1408  0.0533
17431W        W33505  10.267  12.860  14.820  0.1677  0.1803 -0.0183
17432W        W33506   1.185   5.267   0.681  0.0446 -0.2778  0.2817
17433W        W33507  17.451  10.265   2.602 -0.0954 -0.0774 -0.2722
17434W        W33508   3.605   6.391   5.818 -0.3621 -0.0384 -0.2802
17435W        W33509  17.393   9.402   3.511 -0.0883  0.0268  0.2362
17436W        W33510   6.883   5.563  12.860 -0.1062 -0.0034 -0.2651
17437W        W33511  11.157  13.507  14.228 -0.0845  0.6301 -0.0525
17438W        W33512   0.174  12.766  10.711  0.1217  0.1993 -0.0197
17439W        W33513  12.024   5.200   1.710 -0.2368 -0.3973  0.0026
17440W        W33514   1.313  10.185  14.830  0.0006  0.0523 -0.0043
17441W        W33515  13.513   3.305   0.167  0.2761  0.3652 -0.3200
17442W        W33516   3.467  16.864  12.817 -0.0806 -0.2768  0.2092
17443W        W33517   1.664   5.004   5.341 -0.1787  0.1500 -0.1071
17444W        W33518  15.416  11.833   4.500  0.0788 -0.2881  0.4111
17445W        W33519   1.075   7.143   2.897 -0.0738  0.4870  0.0057
17446W        W33520   8.194   3.571  11.867  0.0153 -0.1166 -0.0771
17447W        W33521  13.637  10.899   1.994  0.0652 -0.0469 -0.0033
17448W        W33522   6.501  13.841  13.653  0.0709 -0.1088  0.1239
17449W        W33523  10.908   9.810  15.812 -0.3072  0.3064 -0.1096
17450W        W33524   6.108   7.029  15.822 -0.2378  0.0311 -0.1019
17451W        W33525   8.199   7.775   3.292  0.0281 -0.1018 -0.0681
17452W        W33526  16.151   6.584  11.060 -0.5831  0.0349 -0.0648
17453W        W33527  16.327   9.948  12.718 -0.0172  0.1492  0.1510
17454W        W33528   9.209  12.399  13.697 -0.2416 -0.4072  0.3091
17455W        W33529   5.271   3.114   2.365 -0.2870  0.2972 -0.0158
17456W        W33530   8.371  15.951   4.153 -0.3180 -0.0372 -0.1641
17457W        W33531  13.772  12.682  12.967  0.0004 -0.0631  0.1291
17458W        W33532   6.601   3.325  14.904 -0.0295 -0.0942  0.0411
17459W        W33533  14.812   3.593   3.735  0.0855 -0.2116 -0.1369
17460W        W33534   7.511  14.831  13.371  0.2053  0.2851  0.2503
17461W        W33535  14.702   9.458   4.175  0.0366 -0.0914  0.0536
17462W        W33536   2.565  12.953  14.528  0.0158 -0.0739  0.1532
17463W        W33537  14.245  13.172  13.971  0.2066  0.0385 -0.0029
17464W        W33538  17.582   1.853  11.627 -0.0271  0.1228 -0.1328
17465W        W33539  11.144   7.571  16.033 -0.0123 -0.0658  0.2459
17466W        W33540   2.771   9.740  15.597 -0.2403 -0.2200 -0.2419
17467W        W33541   4.617   4.016  11.998  0.4378  0.1700 -0.2444
17468W        W33542  16.243   3.374  12.357  0.0069  0.1425 -0.2904
17469W        W33543   3.363  10.553  15.535 -0.2132 -0.1145 -0.1029
17470W        W33544  14.573   8.142   3.586  0.2874 -0.0089  0.1259
17471W        W33545  11.652   4.921   2.773 -0.0490 -0.0929 -0.0144
17472W        W33546   9.327   0.820  14.943 -0.0997 -0.1135 -0.2789
17473W        W33547   2.859   3.071   5.403 -0.3909  0.0651 -0.2298
17474W        W33548   4.719  11.351  14.527 -0.0972 -0.1548  0.1896
17475W        W33549   8.039   8.952   0.974 -0.2725 -0.1021 -0.0271
17476W        W33550   0.278   1.677   3.812  0.0931 -0.1084 -0.1160
17477W        W33551  11.635   7.928   3.573 -0.0546 -0.0097  0.2171
17478W        W33552   3.385   0.320  15.820  0.1397  0.1247 -0.0377
17479W        W33553   3.228   0.698   4.366  0.0884 -0.0197  0.0566
17480W        W33554  10.115  11.170  14.599  0.0587 -0.2766  0.0805
17481W        W33555  11.076  17.265  15.485 -0.1446  0.0564  0.1272
17482W        W33556   5.858  13.438   0.839  0.1769  0.1352 -0.0788
17483W        W33557  13.645   2.005  15.624  0.0672  0.1877  0.1644
17484W        W33558   3.643  15.836   4.010 -0.0976 -0.2064  0.0518
17485W        W33559   8.375  17.796   3.712  0.0892 -0.2433  0.2146
17486W        W33560   2.823  13.105  11.295  0.0091  0.1740  0.2645
17487W        W33561  12.408  13.654  11.884 -0.1819 -0.1158  0.1419
17488W        W33562   6.757  13.750   1.543  0.1081  0.2181 -0.0923
17489W        W33563   3.915  14.421  15.049  0.2124 -0.1092  0.2792
17490W        W33564  10.267   1.314   5.558 -0.2643 -0.1355  0.3452
17491W        W33565   7.825   6.571  16.067 -0.0295 -0.1136 -0.0685
17492W        W33566   1.225  10.088   0.847 -0.1544  0.0127 -0.4011
17493W        W33567  17.269   2.280  16.095  0.2240  0.0826  0.1595
17494W        W33568  17.140   9.588  12.675  0.1831  0.0904 -0.0024
17495W        W33569   0.309  14.411  13.390 -0.1432 -0.4817  0.3914
17496W        W33570   0.063  13.203   0.443  0.0151  0.1255  0.0490
17497W        W33571   7.995  15.522   1.167 -0.0962  0.1474  0.0955
17498W        W33572   3.799   6.887  11.654 -0.0641  0.0243 -0.0104
17499W        W33573   8.520  14.522  14.459 -0.1142 -0.0646 -0.0759
17500W        W33574  17.791   3.920   4.026  0.0291  0.3302 -0.3581
17501W        W33575  17.435   9.195  13.974  0.2770 -0.2834 -0.0460
17502W        W33576   3.771   3.744   3.838 -0.1196 -0.5455  0.0299
17503W        W33577  16.528   9.163  14.838  0.5598  0.2445  0.1174
17504W        W33578  16.504  15.179   3.326 -0.0628  0.1912  0.2998
17505W        W33579  11.067   0.766  15.936 -0.1786 -0.1820  0.0389
17506W        W33580   5.273   5.721   2.140  0.0104  0.0843  0.0224
17507W        W33581  13.616   7.123   2.568 -0.2712 -0.4668 -0.0333
17508W        W33582  17.907  15.404  16.513 -0.0846 -0.3405 -0.2023
17509W        W33583  10.646   9.276  11.603 -0.0952  0.0948 -0.2803
17510W        W33584  15.866   1.464  13.151 -0.0187 -0.0920  0.1574
17511W        W33585  10.986   6.198   0.738  0.0970  0.1205  0.2283
17512W        W33586  12.165  11.204   5.041 -0.1089 -0.1859  0.0274
17513W        W33587  10.211  14.035   2.138 -0.2005  0.2578  0.0251
17514W        W33588  14.210   2.224   3.169  0.0191  0.1400 -0.3729
17515W        W33589   6.520  14.852   5.056 -0.0508 -0.0265  0.1086
17516W        W33590   4.397  10.071  16.511 -0.1667 -0.1083 -0.1401
17517W        W33591  10.683  16.831  14.264 -0.1835  0.2970  0.1874
17518W        W33592  16.836  15.102   0.411 -0.0843  0.0593 -0.0065
17519W        W33593  12.963  16.508  14.918  0.0453  0.1815 -0.0045
17520W        W33594  12.922   9.741  12.160  0.0563 -0.1201  0.1586
17521W        W33595   1.140  12.517   1.560 -0.0451 -0.0104 -0.1668
17522W        W33596  13.853   8.734   4.011  0.4094 -0.0289  0.1364
17523W        W33597   3.975   4.596  12.294 -0.0059 -0.0025  0.0248
17524W        W33598   6.561  11.270  14.180 -0.0394  0.1046 -0.1171
17525W        W33599   1.328  18.078  13.012 -0.0850  0.1136  0.1819
17526W        W33600  15.650   0.926  16.167 -0.3026  0.0006  0.3133
17527W        W33601   8.377  10.043  14.869 -0.1988  0.0509 -0.2273
17528W        W33602   3.260   6.215  11.266  0.2786 -0.3035  0.0120
17529W        W33603   1.331   7.596   2.652 -0.2092  0.1314 -0.3156
17530W        W33604  14.774  17.052   3.066 -0.0178 -0.1740  0.0928
17531W        W33605   8.899  15.786   1.967  0.1408 -0.3064 -0.0329
17532W        W33606  13.570  14.437  14.009 -0.0055  0.1009  0.1123
17533W        W33607  14.085  17.897   2.165  0.2622  0.0582 -0.0646
17534W        W33608  13.744   0.019   4.476 -0.0763 -0.0249 -0.1432
17535W        W33609   2.629   0.158   3.052 -0.2211  0.1054  0.2137
17536W        W33610  11.883  15.014  14.794 -0.3375 -0.0262 -0.2720
17537W        W33611  11.339  15.176  14.917  0.0573 -0.0372 -0.0367
17538W        W33612  14.030  17.620  12.390  0.1016  0.2314  0.1462
17539W        W33613   3.178   7.289   0.185  0.0954 -0.2184 -0.0709
17540W        W33614  18.199   3.675  10.611 -0.0659  0.0362  0.2270
17541W        W33615  16.303   1.642   4.330  0.2345 -0.0429 -0.1509
17542W        W33616  13.580  15.099  15.242  0.1189 -0.2850 -0.1801
17543W        W33617  13.375  10.553  12.289  0.0733  0.0392 -0.1882
17544W        W33618  17.183   5.565  14.985  0.1219  0.1360  0.1430
17545W        W33619   4.562   5.297  16.042 -0.2493  0.0157 -0.0007
17546W        W33620  12.271  13.205   3.440  0.3036 -0.1402  0.0897
17547W        W33621   6.742   2.627  14.952 -0.0833  0.0430  0.1939
17548W        W33622   8.611  17.247  11.587 -0.4576 -0.0088  0.2497
17549W        W33623  15.536   6.267  12.685 -0.0855 -0.0984 -0.2057
17550W        W33624  11.069   0.455  13.719 -0.1445  0.0322  0.1936
17551W        W33625   6.488   8.816  12.127  0.3708 -0.1512  0.2471
17552W        W33626  10.167   4.452   4.866 -0.1505 -0.0151  0.0702
17553W        W33627  14.324   9.127   1.044 -0.4177  0.2373 -0.1312
17554W        W33628  10.823   1.912   4.328 -0.1897  0.0643 -0.1487
17555W        W33629   7.013  17.822  14.968  0.2151  0.1555  0.0385
17556W        W33630   5.749   9.008  11.762 -0.0311 -0.0516 -0.0197
17557W        W33631  17.797   4.076   3.056  0.2821 -0.1615  0.1198
17558W        W33632  10.263   9.115   2.973 -0.0112 -0.0547 -0.0065
17559W        W33633  14.886   6.249  13.042 -0.1497  0.1094  0.1705
17560W        W33634   0.412  16.536   2.903 -0.2125  0.1018  0.1333
17561W        W33635  14.875  13.309  15.634 -0.1064 -0.0908  0.1667
17562W        W33636   3.760   4.708   2.574 -0.2055  0.3992 -0.1548
17563W        W33637   0.772   9.658  16.387  0.0718 -0.0587  0.1465
17564W        W33638  18.139  14.493  16.481 -0.0904  0.0447  0.0669
17565W        W33639  11.981   7.070  11.646  0.2188 -0.0233 -0.0783
17566W        W33640   3.198   1.649   1.445  0.2781 -0.0701  0.0926
17567W        W33641  14.389   0.341   5.718 -0.3178  0.0318  0.2382
17568W        W33642  11.484  13.785   5.932 -0.1877  0.0924 -0.0861
17569W        W33643   5.331   6.572   4.210 -0.2769 -0.2693  0.0363
17570W        W33644  15.596   6.600   5.402 -0.1158 -0.1384 -0.1685
17571W        W33645   0.343  11.301   3.807  0.0104  0.1325  0.2133
17572W        W33646  12.713   4.077  12.994  0.2401 -0.0520  0.0155
17573W        W33647  14.601  16.752  12.269 -0.3227  0.0862  0.2629
17574W        W33648   3.532  17.390  11.357 -0.0424 -0.1548 -0.1561
17575W        W33649  17.422   2.793   1.625  0.1240 -0.2985 -0.1077
17576W        W33650   8.488   7.318  13.772  0.1172  0.2662  0.0929
17577W        W33651  10.544   1.794  11.094  0.1609 -0.0532 -0.1218
17578W        W33652  14.399  16.614  15.781 -0.1713 -0.1898 -0.1539
17579W        W33653   9.432   7.621  13.904  0.0663 -0.1019  0.3563
17580W        W33654  10.064   2.827   3.292 -0.2207 -0.1578  0.0869
17581W        W33655   8.626   8.154   3.787 -0.0999  0.0114 -0.0093
17582W        W33656   0.993   2.572  16.468 -0.0346  0.0937 -0.2539
17583W        W33657   1.844   3.486  15.115  0.2883 -0.0319 -0.0206
17584W        W33658   8.468  10.514   5.195 -0.0187 -0.1168  0.0328
17585W        W33659  13.360   8.469   4.015  0.1027 -0.3689  0.2439
17586W        W33660  16.516  11.302   5.666  0.0212  0.0476 -0.2076
17587W        W33661   7.374  17.484   1.684  0.0255 -0.1202  0.2042
17588W        W33662  11.735  15.898   5.042 -0.1016  0.0123 -0.1301
17589W        W33663   8.153   3.654  15.846 -0.0015  0.1871  0.2278
17590W        W33664  18.022   1.255  13.319 -0.1715  0.2429  0.1917
17591W        W33665  14.705   7.349   4.460 -0.2114 -0.0246 -0.1688
17592W        W33666   4.249   5.921  14.319  0.2894 -0.1144 -0.0385
17593W        W33667   2.243  12.984  11.951  0.0936 -0.0501 -0.0454
17594W        W33668   7.652   8.317   4.271 -0.0144 -0.1536 -0.0448
17595W        W33669   0.333   0.518  12.953  0.1934 -0.1886  0.0319
17596W        W33670   6.119   9.336   2.797 -0.1920  0.0888  0.1442
17597W        W33671   6.521   5.509   0.587  0.2489 -0.0575  0.0899
17598W        W33672   7.210  16.066  16.357  0.0882  0.0125  0.1162
17599W        W33673   6.839  15.868   0.090  0.0359 -0.1070  0.2123
17600W        W33674  15.138   4.754  15.521  0.4220 -0.0790  0.0625
17601W        W33675   8.619   9.170  12.395 -0.1226  0.4511  0.1002
17602W        W33676  12.889  17.084  13.702  0.0382 -0.3585  0.3539
17603W        W33677  11.519  16.251   1.413  0.1888 -0.2999 -0.0224
17604W        W33678  17.400   6.440  12.874  0.0846  0.0482 -0.2673
17605W        W33679  10.956   5.788   3.416 -0.0452  0.1215  0.0405
17606W        W33680  11.894   6.440   0.396  0.2682 -0.0375 -0.1396
17607W        W33681   8.211  12.790   3.902  0.2826  0.0008  0.2420
17608W        W33682   4.393   2.036   1.161  0.0988 -0.0886 -0.3068
17609W        W33683  12.329  11.116   0.826  0.0025  0.1251 -0.1993
17610W        W33684  17.556   0.641   3.861 -0.1262  0.0857  0.0836
17611W        W33685  14.444  17.289   5.079  0.2373 -0.0506 -0.1529
17612W        W33686  13.227  15.861  15.619 -0.1237 -0.1699 -0.1284
17613W        W33687   7.903   0.258   2.386  0.1699  0.0795  0.0470
17614W        W33688  10.120   8.214  14.849 -0.1064 -0.0061  0.0645
17615W        W33689   2.184   2.992   3.305  0.0854 -0.1454 -0.0864
17616W        W33690   0.306  17.682   3.948  0.2730 -0.2808 -0.0667
17617W        W33691  17.625  11.479   2.968  0.0046  0.0725 -0.0627
17618W        W33692  15.829  11.416  15.805  0.0733 -0.4838 -0.0819
17619W        W33693   0.926   2.973  12.381 -0.2516 -0.2567 -0.1667
17620W        W33694   4.306   6.871   5.699 -0.2811  0.0062  0.1055
17621W        W33695  14.226   0.314   1.401  0.2796 -0.2700 -0.2662
17622W        W33696   0.584   4.803  14.828  0.1923 -0.1462 -0.0712
17623W        W33697  14.429  14.577   0.792  0.0478  0.2477 -0.0989
17624W        W33698  14.756  12.597   2.342 -0.0906  0.1898 -0.1205
17625W        W33699  16.458  16.122  16.014 -0.2027 -0.0040  0.4177
17626W        W33700   5.100  17.241   0.979  0.2367 -0.0771  0.0869
17627W        W33701   1.481  16.111  16.144 -0.2886 -0.2378  0.0266
17628W        W33702   8.650   5.648   2.980  0.3976 -0.2429 -0.1709
17629W        W33703  15.501  11.286  15.095  0.0903  0.1797  0.1795
17630W        W33704  12.394   8.395  14.843 -0.0357  0.1909 -0.2097
17631W        W33705  18.071  14.635   1.749  0.1241  0.2271 -0.4119
17632W        W33706   0.477   6.988  14.028 -0.2861  0.1777 -0.1805
17633W        W33707   5.477  13.017   2.898  0.0279  0.1132 -0.0660
17634W        W33708   2.264   3.789   0.360  0.0401 -0.1508 -0.5164
17635W        W33709   6.953   7.660  13.372 -0.1027  0.1782 -0.1839
17636W        W33710  17.485  17.959  13.868  0.0944  0.1941  0.1094
17637W        W33711   6.245  13.884   1.586 -0.1139 -0.0921  0.1648
17638W        W33712   8.724  14.544   3.665 -0.3773 -0.0579  0.1771
17639W        W33713  11.276  14.643   2.143 -0.2537 -0.1507 -0.0822
17640W        W33714   5.201   0.233  11.856  0.0798  0.1535 -0.1832
17641W        W33715  16.761   1.999   3.303  0.2117  0.0134 -0.1332
17642W        W33716  15.400  11.513   3.099  0.2556 -0.0341  0.2753
17643W        W33717   3.857   2.790   4.181 -0.0456  0.1445 -0.0466
17644W        W33718   9.804  15.775   5.705 -0.1497 -0.4497  0.1951
17645W        W33719   2.322   9.283  13.860  0.1051 -0.1418 -0.4163
17646W        W33720   5.236   3.283   1.861 -0.0089  0.2035  0.0181
17647W        W33721   7.216   4.974   3.674 -0.3803 -0.1418 -0.0625
17648W        W33722  11.894  12.706   5.155 -0.2244 -0.0611  0.2799
17649W        W33723  14.343   2.662   0.664 -0.1689 -0.0310  0.2186
17650W        W33724   5.742  15.870   3.537  0.3472  0.2941 -0.1401
17651W        W33725   4.161   7.765   4.616 -0.0198 -0.1706 -0.4061
17652W        W33726  16.486   5.675   1.500 -0.0705  0.2129 -0.3581
17653W        W33727   7.290   1.752   2.802  0.0923 -0.1762  0.0367
17654W        W33728  13.683  10.631   1.118  0.0573  0.0763  0.1054
17655W        W33729  15.817  16.885   1.042  0.1266  0.2393 -0.0777
17656W        W33730   9.306  16.870  16.343  0.1098 -0.0982 -0.0195
17657W        W33731  15.480   8.121   0.442 -0.0137  0.0916  0.0597
17658W        W33732   9.216  11.968   4.202 -0.0449 -0.1921  0.1280
17659W        W33733  16.301   0.697  12.452  0.2599 -0.1556 -0.2651
17660W        W33734   1.528  16.351   1.863 -0.0090 -0.2523 -0.0662
17661W        W33735  15.210  15.009   5.085  0.0942 -0.0397  0.2644
17662W        W33736   5.056  16.997   1.449  0.1465  0.1721 -0.0486
17663W        W33737   9.734  16.524  13.654 -0.2129 -0.1210  0.0340
17664W        W33738  16.769  18.029  15.659  0.1049 -0.1654 -0.1443
17665W        W33739  10.419   1.748   0.714  0.2346  0.0780  0.1802
17666W        W33740  16.563  16.916  16.432  0.2692  0.1559  0.1543
17667W        W33741   3.501   8.555  12.517 -0.0523  0.1931 -0.2082
17668W        W33742   3.035  13.926  12.152 -0.2200  0.0684  0.0024
17669W        W33743   3.900  11.694  13.291 -0.2944 -0.3087 -0.2166
17670W        W33744   2.209  14.871  14.516 -0.1549 -0.0110  0.0261
17671W        W33745  17.375   7.382  11.363 -0.1246  0.4729 -0.0560
17672W        W33746   1.969   6.724  13.388 -0.0190 -0.2399  0.2155
17673W        W33747   0.752   9.502   5.969  0.2736 -0.0391 -0.1765
17674W        W33748  17.454  11.249  14.698  0.2555 -0.4310 -0.1263
17675W        W33749  14.591   6.156   0.604  0.2344 -0.2378 -0.1216
17676W        W33750   7.668  15.235   4.301  0.1449 -0.3287 -0.0488
17677W        W33751   3.433   9.868   1.526 -0.0931  0.0607 -0.2059
17678W        W33752  13.062  16.174   5.497  0.3180  0.0493  0.0253
17679W        W33753  12.358  16.386  13.024 -0.0285 -0.1099  0.4152
17680W        W33754   6.269   2.767  12.113  0.0360 -0.1362  0.0028
17681W        W33755  12.706   9.680   5.721  0.4185 -0.2858  0.2222
17682W        W33756   3.710   7.687   3.883  0.2301 -0.0864 -0.1493
17683W        W33757  16.948   7.067   0.874 -0.1864 -0.0365 -0.1570
17684W        W33758   7.002   7.026  16.550 -0.1175 -0.0762  0.1917
17685W        W33759   9.318   4.912   3.398 -0.3220  0.0002 -0.0806
17686W        W33760   7.451   5.081   1.384 -0.5636 -0.1994 -0.1890
17687W        W33761   8.493  13.010   3.564 -0.1413  0.0446 -0.0777
17688W        W33762   7.483  16.924  13.030  0.2837 -0.1247  0.0288
17689W        W33763   1.046  15.184  11.468  0.0929 -0.1316  0.0693
17690W        W33764   8.481   9.655  14.428  0.1380 -0.0362 -0.2007
17691W        W33765  11.492   6.284   3.227 -0.0881 -0.0266 -0.1201
17692W        W33766   1.946  12.498  11.810 -0.1729  0.3787 -0.1666
17693W        W33767  12.635  13.882  15.760  0.1858  0.0821  0.1072
17694W        W33768   6.836  15.253  11.512 -0.3332 -0.1141  0.0722
17695W        W33769  11.818   9.636   5.940  0.0033  0.1305 -0.0091
17696W        W33770   4.878  16.006   0.586 -0.1746  0.0032  0.0548
17697W        W33771  10.285   7.266  15.740 -0.3433 -0.0299  0.0812
17698W        W33772  12.897   5.897   2.658  0.0412 -0.3560  0.1471
17699W        W33773   2.728  16.735  12.390  0.0939  0.1483  0.2438
17700W        W33774  10.713   0.853   1.385  0.2929 -0.1924  0.3860
17701W        W33775  13.693   4.696   3.727  0.2116  0.1325 -0.0379
17702W        W33776  14.657  18.102   2.883 -0.0816  0.1155  0.1368
17703W        W33777  15.121   7.923  15.928 -0.1176  0.1409  0.5901
17704W        W33778   3.893   0.390  11.503  0.2205  0.0930 -0.4640
17705W        W33779   8.214   5.225   1.138 -0.0661  0.3804  0.1968
17706W        W33780   1.928   9.611  11.060  0.0407 -0.2411  0.1065
17707W        W33781  16.060   2.234  12.946  0.1782  0.0024 -0.0651
17708W        W33782   5.444   1.303  14.970 -0.0246  0.1357  0.1355
17709W        W33783   1.552  16.794   4.056  0.0306  0.0321 -0.2538
17710W        W33784  15.253   5.116  15.080  0.0455  0.0653 -0.2249
17711W        W33785   7.833   5.700  14.932  0.0801  0.2078  0.0536
17712W        W33786   8.014  11.329   3.499  0.2510 -0.1019  0.4463
17713W        W33787   7.635   9.640   2.116  0.4284  0.1206 -0.1685
17714W        W33788  16.957  16.892  12.492 -0.0160 -0.1220 -0.1480
17715W        W33789   4.774   2.273   1.887 -0.0319 -0.1334  0.1892
17716W        W33790  11.592  16.200   5.976 -0.1915  0.1347  0.0431
17717W        W33791  17.975   4.461  13.655 -0.0975  0.3019  0.1261
17718W        W33792  11.342   2.342   0.839 -0.0872 -0.0780  0.0584
17719W        W33793  11.573   8.771   4.603  0.0750 -0.0873 -0.1644
17720W        W33794  14.428   8.594   2.849 -0.0800  0.2412  0.0182
17721W        W33795   5.285   9.526   0.280 -0.0023  0.0656  0.1628
17722W        W33796  17.458   9.208   2.533 -0.4437  0.1669  0.2183
17723W        W33797   6.803   9.630   3.311 -0.0412 -0.0657 -0.3308
17724W        W33798  14.398   6.156   3.331 -0.1411 -0.3316  0.2798
17725W        W33799   7.067   0.675   0.023  0.1776 -0.0810  0.1499
17726W        W33800   3.062   6.882   1.360 -0.1993  0.1294  0.1423
17727W        W33801  13.528  17.618  15.704 -0.1588 -0.0261  0.2344
17728W        W33802  15.129   3.823  15.315 -0.1794  0.1813  0.2498
17729W        W33803  12.697  10.350  13.561 -0.1137 -0.0496  0.1691
17730W        W33804  11.470  12.821  11.884 -0.2370 -0.2090  0.0348
17731W        W33805  17.019  12.191  13.218  0.0360  0.1818 -0.1517
17732W        W33806  11.106   5.426   2.863  0.2342  0.0636  0.1101
17733W        W33807   7.259  15.402   4.060  0.2899  0.1236  0.2118
17734W        W33808  13.102   1.202   5.508  0.3694 -0.1365  0.0767
17735W        W33809  12.607  14.920   2.637 -0.1729  0.0046 -0.0443
17736W        W33810   8.760  16.875   0.498 -0.1658 -0.1746 -0.0719
17737W        W33811   1.709   2.626  14.519  0.1722 -0.2089  0.2278
17738W        W33812   4.269   8.231   3.663  0.1360 -0.0887  0.1942
17739W        W33813  10.648   7.264  13.725 -0.2012  0.1530  0.1077
17740W        W33814  10.904  11.667   3.056  0.0559  0.0216 -0.0608
17741W        W33815   2.643   0.302   0.646 -0.2554 -0.2215  0.1209
17742W        W33816  12.168  16.828  15.064  0.2116  0.0395  0.1170
17743W        W33817   0.510  13.413   1.293 -0.2240  0.1655  0.1277
17744W        W33818  10.449   2.543   4.401  0.1052  0.0374  0.0060
17745W        W33819  12.587   5.031   5.636 -0.0663 -0.3604 -0.0999
17746W        W33820  15.761  13.449  13.736  0.3012  0.1362 -0.0904
17747W        W33821   0.477  18.086   2.114  0.2531  0.0505 -0.1425
17748W        W33822   4.298   2.345   2.067 -0.1081  0.3993 -0.1392
17749W        W33823   0.840   9.385  14.693 -0.2757 -0.0288 -0.0899
17750W        W33824  15.094   6.137  15.490  0.1342 -0.4223  0.0127
17751W        W33825  17.032   0.111  11.843  0.0871  0.0351 -0.0713
17752W        W33826  12.552   6.497   1.206 -0.1343 -0.0074 -0.1666
17753W        W33827  11.826   8.956   2.306  0.0986 -0.1380  0.0149
17754W        W33828   3.136   0.202  16.262  0.1406 -0.1345  0.0737
17755W        W33829  13.060   7.788  12.249  0.0885 -0.2472 -0.1344
17756W        W33830   1.231  11.349   3.838 -0.1919 -0.3045 -0.0942
17757W        W33831  13.922   5.002  13.355  0.0105  0.0101  0.4011
17758W        W33832  18.065   9.268   0.024  0.0260  0.0621 -0.0271
17759W        W33833   9.864   5.310   0.851  0.0625 -0.1483  0.1708
17760W        W33834   6.303  15.051   2.736 -0.0734 -0.4031  0.2529
17761W        W33835   7.706   4.567   5.309 -0.0962  0.0596 -0.0842
17762W        W33836  13.539   2.029  11.726 -0.5975  0.1379  0.2536
17763W        W33837   3.213   4.700   2.172 -0.0102  0.0379 -0.2379
17764W        W33838   0.192   6.514   0.416  0.1807 -0.0778 -0.1481
17765W        W33839  18.065  11.303   3.947 -0.2190 -0.2228 -0.0151
17766W        W33840   2.917   2.977   1.627 -0.0876  0.1668  0.0150
17767W        W33841  11.943   7.979   2.285 -0.0449 -0.1010 -0.4165
17768W        W33842  12.773  17.966   3.384 -0.4623 -0.0045  0.0227
17769W        W33843  10.816  16.224  12.436 -0.0533 -0.0599 -0.3527
17770W        W33844   3.049   9.296   1.403 -0.4097  0.3922 -0.3746
17771W        W33845  14.572   9.390   4.717  0.4174  0.0138 -0.1833
17772W        W33846   8.367   9.920   4.526 -0.0493 -0.0485  0.4376
17773W        W33847  13.922   0.336   3.544  0.0496  0.2731  0.2121
17774W        W33848   3.467   5.338  15.399 -0.1560  0.0084 -0.0342
17775W        W33849  10.725  12.094  16.455 -0.1964  0.2835  0.1697
17776W        W33850  15.769   4.622  15.836 -0.1884 -0.2703  0.0946
17777W        W33851   7.536   3.531   4.252  0.0917  0.3680 -0.1184
17778W        W33852   5.753   2.949  11.967  0.2352  0.1775 -0.1503
17779W        W33853  13.897   6.951   3.532  0.1430  0.2422 -0.0796
17780W        W33854   3.020   5.883   1.276 -0.0987  0.0723 -0.1387
17781W        W33855  13.348   4.051  16.379 -0.2578 -0.0301  0.2311
17782W        W33856   0.976   6.710   5.137  0.2509  0.1957 -0.0027
17783W        W33857  11.458   4.943  15.857  0.0095 -0.0640  0.1344
17784W        W33858  17.287  14.091  16.513 -0.3728 -0.0335 -0.0191
17785W        W33859  11.038  13.962   5.432 -0.1403  0.1568 -0.1020
17786W        W33860   6.674  13.801   5.197 -0.0266  0.1111 -0.2532
17787W        W33861  15.795   4.012  12.098 -0.0160  0.1247 -0.2824
17788W        W33862   7.066   6.386   3.355  0.3712  0.0995  0.1688
17789W        W33863   9.910  12.130   2.430  0.1735 -0.0370 -0.1373
17790W        W33864   6.301  17.873  14.017  0.1658 -0.0258 -0.1007
17791W        W33865   0.466   0.879  15.902  0.1870  0.2272  0.1926
17792W        W33866   8.273  12.602  15.967  0.0345 -0.1964 -0.2941
17793W        W33867   5.031   8.523  14.979 -0.0299 -0.1086  0.0141
17794W        W33868   1.681   9.940   4.857 -0.1632 -0.0079 -0.4187
17795W        W33869  16.183   0.700   4.126  0.1069 -0.1419 -0.1295
17796W        W33870  14.156   4.004   5.275  0.3478  0.1157  0.2979
17797W        W33871   9.140   3.993   3.263 -0.1078 -0.1130  0.2315
17798W        W33872  12.424   6.618  15.511 -0.0712 -0.4496 -0.1123
17799W        W33873   2.129   5.591   0.267  0.0232  0.1313  0.1376
17800W        W33874   8.780   4.507   3.673 -0.1239 -0.1284  0.0976
17801W        W33875  10.857   4.026  12.447 -0.1975  0.1050  0.0838
17802W        W33876  18.148  11.980  14.352  0.2188  0.1200  0.0418
17803W        W33877   0.920   7.271  14.036 -0.1129 -0.3271 -0.4348
17804W        W33878   0.373  13.300   5.488 -0.1640 -0.1494  0.0182
17805W        W33879   5.639  12.469   3.761  0.0867 -0.1708  0.0775
17806W        W33880   6.445   6.683  12.576 -0.3164  0.5233 -0.1209
17807W        W33881  17.878   1.173   3.730  0.1520 -0.1426  0.0763
17808W        W33882  18.045  12.769   5.230  0.2299 -0.1449 -0.0230
17809W        W33883   3.274  10.134   4.283 -0.0267 -0.1653 -0.1352
17810W        W33884  11.406   6.753   4.971  0.1102  0.3189  0.1077
17811W        W33885   3.069  11.205  13.979 -0.0408  0.0494 -0.1736
17812W        W33886  10.618  13.999   5.676  0.1562  0.1941 -0.0994
17813W        W33887  12.020   2.079   1.810 -0.0296  0.0270  0.1671
17814W        W33888   5.422   5.672   3.113 -0.1730 -0.2193 -0.0826
17815W        W33889   2.700   1.861  16.477  0.3206  0.0540  0.2888
17816W        W33890  11.501   7.611  16.360 -0.3785  0.1676 -0.0527
17817W        W33891   2.114  14.036   2.794 -0.0674  0.2394 -0.0473
17818W        W33892  12.477   2.746   1.235  0.3227 -0.2168 -0.2641
17819W        W33893  13.014   0.649   4.069  0.1044 -0.0777 -0.1966
17820W        W33894   0.314  11.777   0.475 -0.0698  0.0776 -0.0080
17821W        W33895   9.769   2.598   2.265  0.0952 -0.1330  0.0029
17822W        W33896  14.620   4.209   5.417  0.0544 -0.2438 -0.6341
17823W        W33897   8.888   6.073   2.800  0.0626  0.4185 -0.1834
17824W        W33898   2.205  13.043  15.560 -0.3605 -0.1588 -0.3307
17825W        W33899   6.196  14.669  13.836  0.0879 -0.1044  0.0513
17826W        W33900  14.233   6.267  14.641  0.1917  0.1569 -0.0887
17827W        W33901   6.230   0.401   3.854 -0.3465  0.0811  0.0475
17828W        W33902   3.923   3.553  13.378  0.1470  0.3964 -0.1049
17829W        W33903   7.177  10.098  12.856 -0.0702 -0.2581  0.0480
17830W        W33904   3.279  15.629  15.039  0.0867 -0.0535 -0.0902
17831W        W33905   0.554  18.216  13.782  0.0211 -0.1369 -0.1413
17832W        W33906  17.853   1.452  12.074 -0.1515 -0.1666  0.2206
17833W        W33907   0.236  16.715   4.648  0.1858 -0.0378  0.2977
17834W        W33908   7.320   5.200  16.372 -0.1477  0.1998 -0.1759
17835W        W33909   7.080   3.702  13.748 -0.0350  0.0932  0.0124
17836W        W33910   7.233   2.038   5.227 -0.0032 -0.1086  0.0400
17837W        W33911  17.555  17.054  11.901 -0.1063 -0.3674  0.1646
17838W        W33912  15.782   7.336  11.989  0.2350 -0.0483  0.0783
17839W        W33913   0.509  10.572   5.410  0.2657  0.1254 -0.1617
17840W        W33914  15.846  12.633  12.103  0.3904  0.2464  0.1030
17841W        W33915  13.001  15.758  12.525  0.0659  0.1882  0.2586
17842W        W33916  14.044  18.227  14.325 -0.1091  0.2436 -0.2006
17843W        W33917  11.795   3.834   2.034 -0.1073  0.1155 -0.0646
17844W        W33918  13.379   3.494   3.212 -0.0502 -0.2408 -0.0229
17845W        W33919   9.625  15.176  13.770 -0.2581 -0.0460  0.0748
17846W        W33920  11.473   6.127  12.211 -0.0378  0.3741  0.0517
17847W        W33921   4.674  14.422  13.626  0.2505 -0.0402  0.2409
17848W        W33922   5.526  13.217   3.842 -0.0001 -0.0860  0.1969
17849W        W33923  14.290   6.646  11.821  0.2406 -0.0656 -0.1490
17850W        W33924  12.744   5.861  12.957  0.3091 -0.0354  0.1834
17851W        W33925  15.529   8.768  13.479 -0.3440 -0.0339  0.3868
17852W        W33926   2.217   3.983  15.941 -0.1951  0.2378 -0.0142
17853W        W33927   4.629   0.355  12.632 -0.0984  0.4272  0.0288
17854W        W33928   5.317  14.861   2.840  0.4104  0.1734 -0.2959
17855W        W33929  14.758   1.522  12.404  0.0960  0.5729  0.0039
17856W        W33930   9.599   6.008   6.371 -0.1807 -0.0594  0.1023
17857W        W33931   1.171   5.324   3.612 -0.2955  0.0067 -0.2513
17858W        W33932  11.559   3.341   0.708  0.1014 -0.1920 -0.2117
17859W        W33933  16.411   7.750   4.131 -0.0360  0.0063 -0.0324
17860W        W33934   2.914  16.241   2.290 -0.0060 -0.0319  0.2640
17861W        W33935   3.211  15.471   5.262 -0.4300 -0.1306 -0.1161
17862W        W33936  14.759   5.341   4.870  0.0147 -0.2976 -0.0604
17863W        W33937  11.490  17.197   4.977  0.0750  0.0672  0.1008
17864W        W33938   2.547   2.508  13.850  0.4588  0.2671 -0.0438
17865W        W33939  16.569   8.399   0.693  0.2912  0.0731 -0.2562
17866W        W33940   2.631  12.616   4.560  0.2643 -0.0924  0.0277
17867W        W33941  13.985  14.616   5.001  0.0051 -0.1985  0.1719
17868W        W33942  12.384   4.882  15.855 -0.2618  0.1504  0.4669
17869W        W33943   1.258   8.541   5.022  0.1128  0.2447 -0.1228
17870W        W33944   6.782   5.715   2.439  0.1163  0.0698  0.0611
17871W        W33945   4.958   7.464  14.568  0.1673  0.2871 -0.2870
17872W        W33946   7.999   9.503  11.792  0.1941 -0.0175 -0.1680
17873W        W33947   7.345   7.293   5.547 -0.0567  0.1089 -0.1499
17874W        W33948   4.289  16.301  13.651  0.1380 -0.3457 -0.1558
17875W        W33949  13.095  16.621   3.771 -0.0286 -0.0193  0.5024
17876W        W33950  14.156   4.280   1.494  0.3092  0.3541 -0.1581
17877W        W33951  12.709  13.800   1.071 -0.0411 -0.2839  0.0828
17878W        W33952   8.657   5.634   3.823  0.3785  0.1898  0.0568
17879W        W33953   0.004   0.191  11.524  0.1001 -0.0405  0.4383
17880W        W33954   8.378   1.167   3.995  0.0942 -0.0722 -0.0268
17881W        W33955  10.054  11.893  15.015  0.0373  0.1551 -0.1371
17882W        W33956  17.586  14.053  13.015 -0.0017  0.0479  0.1664
17883W        W33957   1.807   0.567  16.290  0.1198 -0.1394 -0.2343
17884W        W33958  10.652  15.971   4.060  0.0048 -0.0479 -0.2934
17885W        W33959   3.431   5.941   6.056 -0.0200  0.0272  0.0004
17886W        W33960   7.173   5.912   1.303 -0.1982 -0.1161  0.0808
17887W        W33961   8.859   3.555  12.752 -0.1001 -0.0948 -0.0481
17888W        W33962   6.162  13.054  13.686  0.0028 -0.1055  0.1835
17889W        W33963  17.238  12.524   5.847  0.0553 -0.5395 -0.1181
17890W        W33964  14.599   4.873  14.611 -0.1355 -0.2299 -0.0074
17891W        W33965  14.028   3.884   4.009  0.0296 -0.0181  0.1235
17892W        W33966  13.972  10.472   3.837  0.0591  0.0330 -0.0907
17893W        W33967   6.451   2.799  15.977 -0.1191  0.2355  0.0819
17894W        W33968  15.583   3.325   3.618  0.1033  0.0053 -0.1567
17895W        W33969   6.855  14.542  14.083  0.2299  0.0027 -0.0931
17896W        W33970   6.873  17.554   3.513  0.0215  0.0146  0.0312
17897W        W33971   4.043   6.153   2.289 -0.0912  0.0916 -0.2877
17898W        W33972   2.336  14.855  11.612 -0.1668 -0.3341 -0.2071
17899W        W33973   8.332   5.510  11.877 -0.2590  0.2457 -0.0621
17900W        W33974   7.796   8.406  14.114 -0.1252  0.4950  0.0535
17901W        W33975   4.834   4.870   3.128  0.0080 -0.1116  0.0066
17902W        W33976   6.993   4.055  12.945 -0.1974  0.1007  0.1336
17903W        W33977   3.596  15.019  16.410 -0.0018 -0.1128  0.2994
17904W        W33978   2.031  10.965  11.874 -0.2368 -0.1205 -0.0584
17905W        W33979  15.624  17.444   4.496 -0.0801 -0.1286 -0.1063
17906W        W33980  10.596   2.413  14.870 -0.0976  0.2903  0.2704
17907W        W33981  10.066   2.338   4.093  0.2947 -0.1738 -0.1177
17908W        W33982   6.278  12.516   2.568 -0.0226  0.2193 -0.0260
17909W        W33983  17.908  17.284  13.933  0.3847  0.1568 -0.3533
17910W        W33984   6.028  13.128  15.202 -0.1147 -0.0921 -0.1028
17911W        W33985  10.821   3.718   0.670  0.2521  0.3077  0.0318
17912W        W33986   4.350  16.813   1.563 -0.0317 -0.0965 -0.3778
17913W        W33987  14.481  14.523  12.496 -0.0658 -0.4202 -0.3381
17914W        W33988   8.011  14.168   3.951  0.3104 -0.2255  0.2564
17915W        W33989   7.462  16.959   1.425 -0.1991  0.2875  0.0281
17916W        W33990   3.741  12.726   3.435  0.1127 -0.0466  0.1657
17917W        W33991  11.856   7.041   5.565 -0.0554 -0.0366  0.0428
17918W        W33992   8.367  16.548  12.273  0.0695  0.0284 -0.1774
17919W        W33993   5.614   5.581   6.066 -0.2797  0.1954 -0.1428
17920W        W33994  18.010   1.105   0.272  0.2696 -0.0381  0.0823
17921W        W33995   6.485  15.980  12.868 -0.0403 -0.0392  0.0414
17922W        W33996   9.483   0.535  15.401  0.0388 -0.4099 -0.3715
17923W        W33997   5.054  12.367  15.872 -0.0654  0.0639  0.2211
17924W        W33998   4.083   7.409  14.899  0.1587 -0.1431 -0.1453
17925W        W33999   8.190   9.661   4.902 -0.1195  0.0460 -0.1777
17926W        W34000  15.400   4.643  11.915 -0.0871 -0.0666 -0.1524
17927W        W34001   9.721  17.296   5.529 -0.0040 -0.0210  0.0159
17928W        W34002  17.164  16.035  13.885 -0.2263  0.1868 -0.0020
17929W        W34003   9.235  13.310   6.337 -0.3934 -0.1769 -0.0293
17930W        W34004  11.758  16.780  12.378 -0.0072  0.0196 -0.0214
17931W        W34005  12.449   7.172  16.379 -0.2690 -0.1837 -0.2682
17932W        W34006   1.798  17.494  11.747 -0.0340  0.1078 -0.0386
17933W        W34007  11.232   8.684   2.071 -0.1420 -0.3031  0.2244
17934W        W34008   2.427  15.155  10.972 -0.0024 -0.0532  0.1208
17935W        W34009   6.730   2.045   1.911 -0.4434 -0.2097 -0.1254
17936W        W34010   8.051   9.167   0.085 -0.0557 -0.4587  0.0611
17937W        W34011  13.195   0.055   2.549 -0.2085  0.0166  0.1165
17938W        W34012   1.317  13.828   1.708 -0.0954  0.3270 -0.1633
17939W        W34013   3.545   1.974   3.714 -0.0486  0.1848 -0.0002
17940W        W34014   3.439   5.632  16.051  0.2481 -0.0187 -0.1062
17941W        W34015   3.736   5.269   4.377  0.3819  0.1847  0.4380
17942W        W34016   9.751   1.227  12.848 -0.1985 -0.1833  0.1919
17943W        W34017  10.043   7.087   0.184 -0.4328  0.0530 -0.3514
17944W        W34018   2.216   5.648  14.766  0.1769 -0.1457  0.3149
17945W        W34019  14.590  10.988  12.577 -0.1965  0.2832  0.2323
17946W        W34020  17.068   5.036  12.923  0.1577 -0.4080 -0.2036
17947W        W34021  10.237   8.590  14.515 -0.0505 -0.1657  0.1935
17948W        W34022   4.742   0.878   2.575  0.2232 -0.1403  0.2514
17949W        W34023   9.730  15.774  14.389 -0.1681  0.0510 -0.0816
17950W        W34024   6.370   4.815  16.410 -0.0848 -0.1986  0.0331
17951W        W34025   8.873   7.786   4.065  0.3229  0.0311 -0.1900
17952W        W34026  15.925  16.734  13.295 -0.1134  0.1260 -0.1891
17953W        W34027   8.808   1.071  14.156  0.0654  0.2720  0.0830
17954W        W34028   3.926  17.284   4.917 -0.1451  0.0017  0.3479
17955W        W34029   5.665   0.590   5.827 -0.3220  0.0761  0.0751
17956W        W34030   5.835   1.869   0.330  0.0973 -0.0347 -0.2076
17957W        W34031  16.348  10.803  12.236  0.1671 -0.1761 -0.2279
17958W        W34032   1.484  14.801  11.400 -0.2361 -0.0682 -0.2974
17959W        W34033  18.086   9.866   1.939 -0.0290  0.2330 -0.0159
17960W        W34034  18.066  12.890  12.888 -0.2351  0.2477 -0.1648
17961W        W34035   5.318   9.557  15.932  0.1134  0.3162  0.2121
17962W        W34036  16.818  13.498   4.013  0.0130  0.0477  0.1285
17963W        W34037   0.518  17.795  11.120 -0.0908 -0.4728 -0.1720
17964W        W34038  13.320   9.188  12.276 -0.0880  0.0511  0.1737
17965W        W34039  12.035  17.602   5.394 -0.0515  0.0579 -0.0785
17966W        W34040  13.414   5.815   4.846  0.0086  0.2535 -0.3364
17967W        W34041  16.918  16.912  15.504  0.1408 -0.0743  0.0628
17968W        W34042  17.276  14.196   4.334  0.2195 -0.0188  0.1323
17969W        W34043  16.473   9.315   4.191 -0.0474  0.0015 -0.1466
17970W        W34044   7.366  11.631   3.985 -0.0572  0.0801  0.5617
17971W        W34045  10.670  14.572  14.380  0.0613  0.0438 -0.0841
17972W        W34046  12.636   0.846  15.523 -0.0232 -0.0167 -0.4734
17973W        W34047   6.842  11.836   0.475 -0.1181 -0.0937  0.1187
17974W        W34048   4.742   8.213  16.077 -0.0125 -0.4584 -0.0485
17975W        W34049  12.638  10.757  16.358 -0.0046  0.1749 -0.1790
17976W        W34050   7.028   3.140  14.296  0.4369 -0.2732  0.1913
17977W        W34051  13.077   9.653  16.548 -0.0899  0.0288 -0.1826
17978W        W34052   3.662   9.669   4.937 -0.0350 -0.0613  0.0047
17979W        W34053   1.657   1.434  12.377  0.1661 -0.1514  0.1008
17980W        W34054  15.720   1.857  12.118  0.2072 -0.4479 -0.0824
17981W        W34055   0.172  10.175   1.648 -0.2095  0.0764 -0.2676
17982W        W34056   5.374   3.676  12.562 -0.1860  0.0129 -0.1087
17983W        W34057   7.730  14.481   5.055  0.1945 -0.1144  0.3670
17984W        W34058  12.510   2.820   3.752  0.0052  0.0471  0.0551
17985W        W34059  15.692  12.914  13.930 -0.1783 -0.4031  0.1435
17986W        W34060   7.817   1.187  11.872  0.0851 -0.0675 -0.1635
17987W        W34061  10.968   2.815  16.220  0.3214  0.2639 -0.2355
17988W        W34062  11.057   0.857   4.445 -0.0037 -0.3515 -0.3298
17989W        W34063  12.861   5.807  13.793  0.0413 -0.2389 -0.1318
17990W        W34064  16.588   4.798   0.668 -0.1430 -0.1935 -0.0849
17991W        W34065  11.286   3.099   2.763 -0.1349  0.2446 -0.2187
17992W        W34066  17.901  11.540   4.732  0.3706 -0.1679  0.0347
17993W        W34067   2.178  18.064   3.138  0.3145 -0.3887  0.0572
17994W        W34068  13.515   2.182   4.831  0.1601  0.2587  0.0789
17995W        W34069   7.300   4.401   3.397  0.2663  0.3721 -0.0994
17996W        W34070   7.199   9.859   0.206  0.1486 -0.2286 -0.0186
17997W        W34071   2.756  11.980   5.307  0.2525 -0.3136 -0.1121
17998W        W34072  15.924   6.904  14.671 -0.0021 -0.3484 -0.0787
17999W        W34073  17.855  15.500  14.276 -0.0345  0.4268 -0.0809
18000W        W34074   8.944   0.289  12.014 -0.1267 -0.1408  0.0164
18001W        W34075  12.765   8.864  13.888  0.1064 -0.0001 -0.0805
18002W        W34076   4.975  16.029   5.507  0.1341  0.2977  0.0470
18003W        W34077   1.567   1.290   4.634  0.0294  0.0049  0.1663
18004W        W34078  17.290   7.501  14.633 -0.0627  0.1392 -0.2935
18005W        W34079   4.877  12.001   4.955 -0.1505  0.2393 -0.2068
18006W        W34080   2.020   4.376  14.913 -0.1325  0.0348 -0.3949
18007W        W34081   3.450  11.771   3.254  0.1100  0.1776 -0.5118
18008W        W34082  18.226  17.093   3.962  0.3656  0.3560 -0.4157
18009W        W34083  14.677   9.438   0.906 -0.0557 -0.2550  0.0140
18010W        W34084  11.860   8.730  12.490 -0.1314 -0.2257 -0.3488
18011W        W34085   3.780  14.906   1.415  0.1816 -0.0111 -0.0415
18012W        W34086  17.622   5.608   3.254 -0.0552  0.2600  0.0087
18013W        W34087  12.260  10.991  15.495 -0.0327  0.1120 -0.3075
18014W        W34088   7.582  14.764  14.868  0.1259 -0.2188 -0.0778
18015W        W34089   6.867   2.703  11.780 -0.0355 -0.1883  0.0723
18016W        W34090   2.172  12.726   5.143 -0.1240  0.3606 -0.1162
18017W        W34091   7.576  12.011   4.234  0.1543  0.1218  0.1489
18018W        W34092  16.629   5.437   2.712 -0.1471 -0.0692  0.1455
18019W        W34093   3.400   9.217   2.252  0.3499 -0.0854  0.0551
18020W        W34094  13.067   9.918   2.072  0.0407  0.1910 -0.0371
18021W        W34095   9.230   4.207   4.957  0.1648  0.3104 -0.0184
18022W        W34096   2.941   0.814   4.749 -0.0849 -0.1504  0.1610
18023W        W34097   9.860   2.406   3.191  0.2450 -0.0189  0.0881
18024W        W34098   6.838   4.710   1.991  0.2152  0.0795  0.0064
18025W        W34099   0.265   0.873  14.562 -0.3192  0.3337  0.1052
18026W        W34100   4.988  10.615   2.774 -0.0020 -0.0081  0.1285
18027W        W34101   9.820  13.780  16.291 -0.0246 -0.0604  0.0060
18028W        W34102   6.097   4.689   5.059  0.0915  0.0668 -0.0898
18029W        W34103   3.675   0.720  13.956  0.2373  0.1366  0.0869
18030W        W34104   2.006  15.636  11.745 -0.1134 -0.2643 -0.3027
18031W        W34105   7.099  11.408   5.666 -0.1244 -0.0870 -0.1312
18032W        W34106  15.233   5.244   1.922 -0.1150  0.3381 -0.2439
18033W        W34107   2.474  10.410  13.093 -0.3695  0.0111 -0.1037
18034W        W34108  14.990  17.473   1.068 -0.0603  0.2585 -0.2867
18035W        W34109   4.890   9.346  14.808  0.2583  0.1257 -0.1382
18036W        W34110  18.041  12.261   2.483  0.0006 -0.0810  0.1929
18037W        W34111   7.979   3.745   2.266  0.0219  0.1326  0.0712
18038W        W34112   7.691  15.474  12.790  0.0959 -0.1052 -0.1722
18039W        W34113   2.337   2.957  15.825  0.1806 -0.1571  0.4911
18040W        W34114  15.577  10.929   4.973  0.0759  0.0741 -0.1064
18041W        W34115   9.269   7.952   5.908 -0.1851 -0.1707 -0.5679
18042W        W34116   2.838  14.146   5.378 -0.0676 -0.3999  0.1677
18043W        W34117   9.177   3.003   4.456 -0.2896  0.1883  0.3003
18044W        W34118   9.748   8.517   2.106  0.1051  0.4537 -0.2757
18045W        W34119   2.699  15.321   2.102 -0.1575  0.1812  0.0592
18046W        W34120  16.316  10.906   5.360  0.2289  0.1116 -0.2014
18047W        W34121   4.878   5.314   3.899 -0.1110  0.1410  0.0498
18048W        W34122   2.472   7.149  14.147  0.0594  0.0757 -0.0036
18049W        W34123  12.738  17.687   5.294 -0.2016  0.1745 -0.2811
18050W        W34124  16.320   1.560   3.604  0.1163  0.2669 -0.2008
18051W        W34125   3.918  15.724   2.431 -0.3858 -0.1115  0.4688
18052W        W34126  16.173  10.514  12.665 -0.0681 -0.3120  0.5714
18053W        W34127  10.599   4.080   2.590 -0.3395  0.1053 -0.3580
18054W        W34128  14.380   5.265   3.375  0.1607 -0.3925  0.1826
18055W        W34129   6.244  17.836  11.891 -0.2941 -0.0174 -0.2330
18056W        W34130  14.651  10.816   4.763 -0.3898 -0.2039  0.0445
18057W        W34131   6.877   7.250   5.406  0.2922 -0.3112  0.0777
18058W        W34132   5.431   5.643   0.557  0.0893  0.0159  0.2768
18059W        W34133  13.224  17.833  12.620  0.0918 -0.1031 -0.1789
18060W        W34134  18.131  17.598   1.429  0.1955 -0.0544  0.0429
18061W        W34135   9.091  11.085  11.792 -0.1845 -0.0250  0.0515
18062W        W34136  11.802   4.730   1.876  0.0062  0.0188 -0.1843
18063W        W34137  17.764  18.048  11.295 -0.2548  0.2578  0.0098
18064W        W34138   0.483   5.723  13.043  0.1196  0.0612 -0.0850
18065W        W34139   2.959   8.359   3.666  0.2839 -0.0519  0.1780
18066W        W34140  17.506  18.072   5.117  0.1283 -0.1978 -0.0443
18067W        W34141   5.357   5.089   3.931 -0.0142  0.1630  0.1024
18068W        W34142   2.886   7.534   5.381  0.3541 -0.4591  0.0994
18069W        W34143  10.288   4.069   0.202 -0.0202  0.1595 -0.1649
18070W        W34144   9.630   1.430   2.037  0.0582  0.0570  0.1277
18071W        W34145   9.464   5.744   0.710  0.3867  0.0049  0.1558
18072W        W34146  13.092   7.415   0.852  0.2174 -0.0331  0.1897
18073W        W34147  10.172   2.231   1.465  0.2289  0.1652 -0.0210
18074W        W34148  14.445  18.140   4.818  0.3716  0.1845  0.4027
18075W        W34149   0.081   6.990  16.142 -0.0368  0.0998  0.1781
18076W        W34150   7.978  17.104  13.122  0.2636 -0.1396  0.5204
18077W        W34151   9.350   4.136   2.233 -0.1048 -0.0926 -0.1974
18078W        W34152   1.489   2.521  16.249 -0.0462 -0.0592  0.1247
18079W        W34153   8.046   6.128   0.741 -0.3830  0.0835 -0.1628
18080W        W34154  17.178   7.642   5.110 -0.3550  0.0071  0.0470
18081W        W34155   6.156  17.752  16.415  0.3138 -0.2145  0.2651
18082W        W34156   7.705  11.183  13.897 -0.2230  0.2061  0.0710
18083W        W34157   1.475  15.166  11.717 -0.1191 -0.2874 -0.4296
18084W        W34158   6.451   0.541   2.905 -0.0492 -0.0125 -0.0160
18085W        W34159   3.099   7.168  15.795 -0.0461 -0.1590  0.0528
18086W        W34160  15.711   3.979  15.825 -0.1603  0.0879 -0.6162
18087W        W34161   8.971   5.734   4.220 -0.0706 -0.4313  0.0131
18088W        W34162  15.411   8.193  15.023 -0.1377 -0.1710 -0.1672
18089W        W34163   7.727  15.975  11.938 -0.1647  0.3345 -0.0328
18090W        W34164   1.089   2.580   1.805 -0.0052  0.1805  0.0497
18091W        W34165  10.058   1.371  16.010  0.1763  0.2302  0.4040
18092W        W34166   2.506  15.981   4.667  0.0312  0.0092 -0.1500
18093W        W34167   8.329   8.635   3.529  0.3341 -0.2360  0.1875
18094W        W34168  10.354   9.833   1.563 -0.0392  0.1362 -0.1118
18095W        W34169  13.178  11.952  13.127  0.1130  0.1143 -0.1033
18096W        W34170  14.146  14.327   4.612  0.0150  0.3762  0.1323
18097W        W34171   8.373   5.211  14.968  0.0102  0.0213  0.3091
18098W        W34172  11.824  12.845  12.700  0.3227  0.0058 -0.0036
18099W        W34173  12.452  11.303  13.526 -0.2698 -0.2373 -0.5616
18100W        W34174  11.901   1.261  15.572 -0.1122  0.0401 -0.0107
18101W        W34175   4.831  10.023  12.036  0.2156  0.0106  0.1642
18102W        W34176  12.335   0.355   1.032  0.1292  0.3123  0.0611
18103W        W34177   3.848  15.537  12.335  0.3686  0.1426 -0.3137
18104W        W34178  13.895   8.823  15.829 -0.2207 -0.0223  0.0921
18105W        W34179  17.896   2.102   4.258  0.3935 -0.3307 -0.2452
18106W        W34180   2.640  17.516   5.809 -0.1254  0.2348  0.0395
18107W        W34181   9.466  12.052   2.588  0.1833 -0.1971 -0.0912
18108W        W34182  13.568   5.099   2.579  0.1232  0.2325 -0.3444
18109W        W34183  12.080  10.986  11.790 -0.0918  0.3835  0.0286
18110W        W34184  16.116   0.810  11.602  0.0911  0.1896 -0.1961
18111W        W34185   7.284   8.620  15.768 -0.1584 -0.1865  0.2453
18112W        W34186   2.591   2.713  15.430  0.5872 -0.0770  0.0092
18113W        W34187   2.090   7.262   5.817 -0.0128  0.0727 -0.3665
18114W        W34188  11.433   1.005  11.223  0.0885  0.1397 -0.0119
18115W        W34189   8.575  10.086  14.225  0.1531 -0.1473 -0.0349
18116W        W34190  14.646   3.522  15.283 -0.2320  0.0286 -0.2623
18117W        W34191   4.145   5.057   6.115 -0.1373 -0.2510 -0.2606
18118W        W34192   1.858   6.676   5.259  0.0714 -0.0124 -0.3658
18119W        W34193   2.821   0.605  14.153  0.0285  0.2155 -0.0913
18120W        W34194   7.838  14.981   3.768  0.0224  0.2127 -0.0389
18121W        W34195  13.276  15.906   1.587 -0.0643  0.1008  0.1704
18122W        W34196   7.337  13.133  16.498  0.0076  0.0053  0.0563
18123W        W34197  17.663  13.289  12.591 -0.0013 -0.2067  0.0297
18124W        W34198   1.166   9.170   0.401  0.0749  0.1941 -0.0633
18125W        W34199  12.707   2.061  15.259  0.3154 -0.0206  0.1579
18126W        W34200   7.645   3.522  14.651  0.1431 -0.1423 -0.2423
18127W        W34201  10.889   3.538  13.705 -0.0101 -0.0820 -0.1549
18128W        W34202   1.243   1.682  13.138  0.0577  0.0268  0.3633
18129W        W34203   4.720   4.052   1.068 -0.3524 -0.2144  0.2268
18130W        W34204  17.544  11.037  12.933  0.1443  0.0678  0.2286
18131W        W34205   6.904   2.544   0.131 -0.0538  0.2002  0.0005
18132W        W34206   5.605   2.847   4.036  0.0270 -0.1331  0.1466
18133W        W34207  18.098   4.946   3.553 -0.0874  0.0366  0.1552
18134W        W34208  16.682  10.528   3.781 -0.0238 -0.1297 -0.0849
18135W        W34209   1.891  12.949  11.548  0.0782 -0.0128 -0.0417
18136W        W34210   3.669   3.370  15.903  0.1892 -0.0814  0.1800
18137W        W34211   2.538  17.327  14.075 -0.0121  0.0174 -0.1656
18138W        W34212  16.586  11.026   0.054  0.2611 -0.1722  0.0939
18139W        W34213   1.684   7.222   4.615  0.0294 -0.2556  0.0283
18140W        W34214  15.273   9.961   1.928 -0.0903 -0.0607  0.0465
18141W        W34215  12.129  11.633  15.602  0.0575 -0.0566  0.2586
18142W        W34216   9.011  13.084  16.141  0.0328  0.1443  0.0744
18143W        W34217  14.276   0.405  14.090  0.2290  0.1472  0.0230
18144W        W34218  12.760   6.867   1.533  0.0561  0.0069 -0.2085
18145W        W34219  15.423   1.813   2.575  0.2483  0.0321 -0.0674
18146W        W34220   2.306   1.016   4.137 -0.3252  0.1417 -0.1528
18147W        W34221   7.365  12.145   1.752 -0.0734 -0.2018  0.2588
18148W        W34222  12.048   7.881   4.400 -0.0894  0.2585  0.4181
18149W        W34223  18.207   9.106  11.752 -0.2469  0.0462 -0.1228
18150W        W34224  16.549  14.876  14.501 -0.0586  0.0776  0.1816
18151W        W34225  11.074  16.723  15.106 -0.3940  0.2820 -0.1933
18152W        W34226   4.026   4.920  13.744  0.0643  0.0874  0.2084
18153W        W34227   5.841   6.889   3.932 -0.0770  0.2315  0.0606
18154W        W34228  17.419  16.009  15.413  0.1415  0.0856 -0.1415
18155W        W34229  16.694   8.345  15.753  0.1806  0.0784 -0.1329
18156W        W34230   9.217   4.252   5.508  0.0128  0.2829  0.2156
18157W        W34231   0.292  11.255  11.846  0.1042  0.1113 -0.1281
18158W        W34232   1.006  16.732   1.804 -0.2007 -0.1097 -0.2092
18159W        W34233   7.970   1.267  12.338  0.0507  0.1188  0.1815
18160W        W34234  15.815   7.853   5.805 -0.0411 -0.4115  0.2466
18161W        W34235  12.045  11.759   1.839 -0.2930  0.0156 -0.4402
18162W        W34236   8.743  11.997   2.048 -0.1240  0.0714  0.2976
18163W        W34237   0.248  15.343   2.387 -0.1568 -0.1775 -0.0273
18164W        W34238   8.722   6.204   4.472  0.1754  0.1958  0.2599
18165W        W34239  14.537  14.117   6.338 -0.0075 -0.2949 -0.0921
18166W        W34240  14.513  16.838   0.358 -0.1375  0.2098 -0.0313
18167W        W34241   8.436  16.288   1.848 -0.0267 -0.0174  0.3074
18168W        W34242   2.414   3.122   1.494 -0.0507 -0.2674 -0.0553
18169W        W34243   8.309  16.241   5.095  0.0047  0.4656  0.0111
18170W        W34244  16.509   7.629  12.776  0.1176 -0.0395 -0.0292
18171W        W34245  17.838   6.522   1.806  0.2228  0.1742  0.2711
18172W        W34246   9.398  14.495   0.193  0.1943 -0.0845 -0.2243
18173W        W34247   1.804   6.580  15.913 -0.2839  0.4372 -0.1009
18174W        W34248  12.549  14.225   4.832 -0.0587  0.1390  0.0414
18175W        W34249   2.954  16.699  11.858 -0.2860  0.0382 -0.1638
18176W        W34250   1.527   0.786   2.246  0.1658 -0.2293  0.0912
18177W        W34251   3.526  16.065  14.874 -0.2433  0.2433  0.0768
18178W        W34252  12.745   9.287   5.482  0.2655  0.0595 -0.2073
18179W        W34253   8.936  14.930   1.789 -0.2760 -0.0466  0.0743
18180W        W34254  10.217   3.691  11.743  0.3047  0.1079  0.2701
18181W        W34255  13.329  12.865  12.300  0.0569  0.1158 -0.1497
18182W        W34256  10.200  11.247   1.297 -0.0292 -0.2912 -0.2199
18183W        W34257  15.398  11.231  15.584 -0.3438 -0.0470 -0.3023
18184W        W34258   6.523   7.050   0.205  0.0062  0.1144 -0.2348
18185W        W34259   5.095   3.489   2.800  0.3054 -0.4196 -0.2375
18186W        W34260   3.163  16.550   0.939 -0.1174 -0.3550 -0.0044
18187W        W34261   6.543   1.130   1.871 -0.3419 -0.1192  0.1979
18188W        W34262  13.419   2.940  12.945 -0.2177 -0.1353  0.1324
18189W        W34263   1.934   2.205  14.910 -0.3617  0.4145 -0.2890
18190W        W34264  13.781   6.669   4.300  0.0621 -0.2098  0.0975
18191W        W34265   8.714   9.689   4.872  0.1589 -0.0254 -0.1258
18192W        W34266  12.689  14.866   5.533 -0.2740  0.1503  0.0275
18193W        W34267  16.561   4.072  13.578 -0.0911 -0.1913  0.1672
18194W        W34268   4.265  17.696  12.244 -0.0086 -0.1038 -0.1246
18195W        W34269   9.420  12.170  12.791  0.0624 -0.1394  0.4462
18196W        W34270   9.007  10.857   2.767  0.0129  0.1292 -0.3476
18197W        W34271  16.243   6.386  15.682  0.3441 -0.3471  0.1085
18198W        W34272  12.042   1.370   0.160  0.0566  0.3145  0.0948
18199W        W34273   5.897  16.576  14.662 -0.0907 -0.1122 -0.0919
18200W        W34274  15.883   2.440   3.638  0.4019  0.1508  0.1625
18201W        W34275  11.371  13.083  14.811  0.1154 -0.0825 -0.0548
18202W        W34276   1.040   8.218   0.519 -0.0163 -0.0175 -0.0571
18203W        W34277   4.762   4.004   0.027 -0.1168  0.0211 -0.2593
18204W        W34278  15.984  15.814   4.964  0.2688 -0.1203 -0.1229
18205W        W34279   2.029  15.642  14.974 -0.0820 -0.2185 -0.0351
18206W        W34280  13.862   8.516  13.261 -0.2035 -0.4898 -0.0104
18207W        W34281  17.531  11.680  15.741  0.2038  0.1801 -0.1292
18208W        W34282   1.234  11.667  12.930  0.0229  0.1826 -0.2535
18209W        W34283   4.960   5.303  11.531 -0.0238  0.0248 -0.0814
18210W        W34284  16.406   1.819   1.475  0.0509  0.1318  0.0560
18211W        W34285   9.544  17.061  14.608 -0.3030 -0.0323 -0.0896
18212W        W34286   3.042   2.488   0.480  0.0886 -0.0784  0.0905
18213W        W34287   4.678  13.593  11.459 -0.0290  0.2134 -0.2131
18214W        W34288   5.022   6.233   2.358  0.3663  0.1650 -0.0703
18215W        W34289   9.431  13.572   5.898  0.1714  0.1907 -0.2134
18216W        W34290   2.867   8.479   0.781  0.1505  0.2214 -0.0077
18217W        W34291  10.347  10.275   1.274 -0.2899 -0.0786 -0.2983
18218W        W34292   9.592  12.249   2.056  0.0885  0.6226 -0.1094
18219W        W34293   8.869  18.072  13.216 -0.2718 -0.0485  0.0269
18220W        W34294   6.290  15.377   1.568  0.0050  0.1754  0.1202
18221W        W34295   6.539   9.677  15.409 -0.0393 -0.0202  0.0744
18222W        W34296  11.182  10.458  13.827 -0.0809 -0.1815 -0.1717
18223W        W34297  12.023  13.452   2.594  0.2908 -0.0580  0.0434
18224W        W34298   1.980  10.309   0.434 -0.0337 -0.0430  0.1407
18225W        W34299  15.062  14.453  13.832  0.0001 -0.1836 -0.1303
18226W        W34300  18.160  16.596   3.340 -0.1689 -0.0700  0.1574
18227W        W34301  12.250  11.975   5.309  0.0975 -0.1431 -0.0127
18228W        W34302  14.468  10.454   4.041 -0.1824  0.1192  0.0500
18229W        W34303  18.074  16.968  16.250  0.1380  0.0922 -0.1127
18230W        W34304  13.219  14.511  12.637 -0.3589 -0.1930 -0.0549
18231W        W34305  17.428  13.898  11.609 -0.1434  0.1611 -0.0242
18232W        W34306   4.072  14.991  16.321 -0.0030  0.2272  0.0945
18233W        W34307   8.877  18.064   3.180 -0.0048  0.1119 -0.2013
18234W        W34308   8.136   6.974  15.223 -0.3062 -0.4045 -0.3485
18235W        W34309   5.545   9.448  11.536 -0.2670  0.1671  0.0379
18236W        W34310   7.782  11.148   0.200  0.3439  0.0020  0.0847
18237W        W34311  12.345  15.007   4.723  0.3369 -0.3398 -0.1158
18238W        W34312  16.802  14.094  16.372  0.4425  0.1090 -0.2862
18239W        W34313  17.365   0.351   1.174 -0.1496 -0.0449  0.1322
18240W        W34314   5.549   8.274  14.896  0.0851 -0.0909  0.0196
18241W        W34315   2.766   0.926  15.337  0.0878  0.2415  0.1007
18242W        W34316  10.849   3.018  13.590 -0.1823  0.0647  0.1208
18243W        W34317  10.363   5.890  16.183 -0.0777  0.0281  0.2608
18244W        W34318   3.723  12.391   0.139 -0.1140  0.1925  0.1808
18245W        W34319   3.311   1.120  15.319 -0.0390  0.2543  0.1108
18246W        W34320  10.721  12.591   5.858 -0.2675  0.1676  0.3004
18247W        W34321  16.321  18.186  14.972 -0.1104 -0.2384  0.1577
18248W        W34322  17.393   5.159  16.062  0.1066 -0.1192  0.1153
18249W        W34323   1.239   0.694   5.063 -0.3881  0.2044  0.2344
18250W        W34324  10.322   2.263  13.362 -0.3528 -0.1277  0.3663
18251W        W34325   8.491   3.853   2.390 -0.1443  0.0119 -0.1342
18252W        W34326   6.048   3.053   3.030  0.1858  0.2283 -0.2088
18253W        W34327   3.314  17.341   4.762  0.1771  0.1237 -0.2361
18254W        W34328   2.988  13.357   4.751  0.2097  0.0975 -0.0320
18255W        W34329  15.891   0.080  12.805 -0.1096  0.1658 -0.1452
18256W        W34330   4.987   9.499   3.421  0.1463 -0.0038  0.1137
18257W        W34331   3.565   6.614   3.250 -0.3052  0.0156 -0.0600
18258W        W34332   8.213  16.375  12.763  0.2959  0.2020 -0.1372
18259W        W34333   5.375   3.842  14.821  0.1114 -0.2841  0.1970
18260W        W34334   3.647   4.177  11.615  0.0577  0.2692  0.0790
18261W        W34335   6.780   9.739   1.833  0.1919 -0.0703 -0.1296
18262W        W34336  13.404   4.832  11.286 -0.2939 -0.0628 -0.1296
18263W        W34337  15.181  13.458  14.590  0.2090 -0.3589  0.2729
18264W        W34338   2.957  15.374   1.396  0.1421 -0.1066 -0.0025
18265W        W34339   1.161   2.890  11.109  0.1402 -0.2247 -0.1333
18266W        W34340   7.322   7.822  11.757  0.1101  0.0346  0.3525
18267W        W34341  17.333  14.667  13.385  0.0402 -0.3428  0.2128
18268W        W34342   4.480   2.470  15.188 -0.1740 -0.0400 -0.0209
18269W        W34343  11.221  12.578  15.002 -0.0264  0.0649 -0.0725
18270W        W34344  16.442  16.837  13.047 -0.1686  0.0938  0.0447
18271W        W34345  16.935   9.459   4.320 -0.0554 -0.1496 -0.2075
18272W        W34346   7.553  14.651  12.407 -0.2326 -0.1699 -0.2260
18273W        W34347   8.157  13.858  11.590  0.2975  0.0047  0.0955
18274W        W34348  16.592   9.941   5.482 -0.1760 -0.1730  0.1942
18275W        W34349  13.173   4.322   1.268 -0.1675  0.0185  0.1326
18276W        W34350  13.154   0.485   4.668 -0.0922 -0.0841  0.2157
18277W        W34351  17.403  16.797   4.721  0.1116 -0.0448 -0.3104
18278W        W34352   0.269  14.793  16.280 -0.1043 -0.2246 -0.0287
18279W        W34353   2.018  17.267  10.492 -0.0491 -0.2170 -0.3165
18280W        W34354  11.669   0.413  11.432 -0.1553  0.2041  0.2091
18281W        W34355  18.093   8.794   1.650 -0.1213  0.3714 -0.3537
18282W        W34356   1.673   8.630   3.459 -0.1793  0.2643  0.0624
18283W        W34357   3.912  17.500   3.457  0.1076 -0.1113  0.2374
18284W        W34358  12.993   9.298  16.082  0.1687  0.1947 -0.2426
18285W        W34359  12.557  10.164  10.944  0.0666  0.1067  0.1443
18286W        W34360   4.006   6.167   4.699  0.2099  0.0476  0.1666
18287W        W34361  13.076   9.513  15.694  0.0477 -0.1418  0.5276
18288W        W34362  15.246   5.448   0.166  0.0427 -0.0217 -0.1076
18289W        W34363   1.855   7.697  14.431 -0.0419 -0.2024 -0.1653
18290W        W34364  13.050   2.208   2.940 -0.3542 -0.0063  0.2828
18291W        W34365   1.386   4.082   3.453 -0.1226 -0.0014  0.2110
18292W        W34366   5.855   8.068   0.504 -0.1422 -0.0980  0.2576
18293W        W34367   4.315   6.742   0.625  0.0390 -0.0407  0.2096
18294W        W34368  10.113   6.516   0.328 -0.1314 -0.1031  0.3416
18295W        W34369  10.772  10.950   1.051  0.1145  0.1452  0.0475
18296W        W34370  14.770   1.443   3.255  0.0612  0.1989  0.1012
18297W        W34371  14.620  12.899  13.078  0.2952  0.0304  0.0755
18298W        W34372   9.572   6.543   4.337  0.2485 -0.2933  0.0312
18299W        W34373  16.440   7.601  12.247 -0.2511  0.0783 -0.0751
18300W        W34374  15.533  13.118  12.893 -0.1457  0.1533 -0.3148
18301W        W34375   9.714   3.625   6.140 -0.1287  0.0598 -0.0735
18302W        W34376   9.349   4.976  13.628 -0.0497  0.2020  0.2091
18303W        W34377  17.163  14.920   3.890  0.1024  0.1419 -0.1155
18304W        W34378   3.300  13.418   2.482 -0.0322  0.2009 -0.0563
18305W        W34379  17.473  14.634  15.481 -0.0802 -0.2485 -0.0216
18306W        W34380  11.015   0.735  12.529 -0.0774  0.1574  0.2246
18307W        W34381   3.129  14.681   3.662  0.0497 -0.1315  0.3559
18308W        W34382   2.699  14.968   4.844 -0.0085 -0.0216 -0.1755
18309W        W34383  10.324   9.741   5.166 -0.1589  0.1387  0.0556
18310W        W34384   9.503  10.558  14.457 -0.2065  0.0505  0.1780
18311W        W34385   4.225  13.203  16.384  0.1116  0.1627 -0.2851
18312W        W34386   1.983   0.954  13.285 -0.1696  0.1530  0.1865
18313W        W34387  17.056   4.974   4.388  0.3692 -0.0127 -0.0491
18314W        W34388   0.289  10.811   3.848  0.2518  0.0135 -0.2261
18315W        W34389  12.343  13.864   2.883 -0.2209 -0.2772 -0.0418
18316W        W34390   1.051   7.171   3.426 -0.6431  0.3559  0.1470
18317W        W34391   7.590  12.150  14.574  0.0444 -0.0012 -0.0211
18318W        W34392   3.249  12.807  11.054 -0.2920  0.0813 -0.1655
18319W        W34393   0.090   3.770   4.787 -0.0591  0.1167 -0.2766
18320W        W34394  15.048   0.078  16.411 -0.3305  0.2591  0.1564
18321W        W34395   0.472  15.810   2.671 -0.0641  0.2745  0.2371
18322W        W34396  13.738  16.903  13.894 -0.0694 -0.1251 -0.1449
18323W        W34397   2.334   8.942   4.190  0.1511  0.3640  0.2283
18324W        W34398  15.083   7.166  16.001 -0.2805 -0.0255 -0.1813
18325W        W34399  17.197  17.381   1.978  0.0038  0.0719  0.3745
18326W        W34400   6.955  10.004  13.833  0.0785 -0.0082 -0.0512
18327W        W34401  12.389   8.783  14.301 -0.0780 -0.0510  0.0938
18328W        W34402   3.090  17.037   3.219 -0.2363 -0.2204  0.1275
18329W        W34403  12.471  17.353  12.572 -0.1572 -0.4650 -0.0236
18330W        W34404   8.983  16.717  15.789 -0.0736  0.1545  0.1192
18331W        W34405  10.383   8.762   3.285  0.0116 -0.1852  0.2806
18332W        W34406   8.302   2.822   0.550 -0.1327  0.2341  0.0956
18333W        W34407  14.073  15.330   2.991  0.0016  0.1093  0.0472
18334W        W34408  17.786  16.984   1.325 -0.0400  0.2174  0.2163
18335W        W34409   9.464  17.052   0.342  0.1837 -0.0635  0.1708
18336W        W34410  14.389  10.708  16.183  0.1512  0.3963  0.3426
18337W        W34411  15.938   8.586  16.088 -0.2604  0.2412 -0.0958
18338W        W34412   1.142   2.455   2.472  0.1036 -0.1065  0.0350
18339W        W34413   1.295   8.214   2.003  0.2405  0.0515 -0.1942
18340W        W34414   0.614  15.154  15.441 -0.1342  0.0251  0.2098
18341W        W34415  18.119   6.439   3.471 -0.2744 -0.0174  0.1742
18342W        W34416  14.163   4.218   2.305  0.0781  0.0239  0.3001
18343W        W34417   7.126  13.154  13.994  0.0265  0.2675  0.4129
18344W        W34418  10.983   6.960  15.284  0.0087 -0.0642 -0.0680
18345W        W34419  17.001   3.975   1.884  0.0390  0.0684  0.3240
18346W        W34420   4.430  11.084  12.970  0.1152  0.3580  0.2985
18347W        W34421   3.760  15.350  14.977  0.2638 -0.1112  0.0590
18348W        W34422  16.415   5.534  12.833 -0.0831  0.0240  0.2188
18349W        W34423  14.039  17.212   4.842 -0.0322  0.0148 -0.3506
18350W        W34424   1.510   3.723   0.535 -0.0724 -0.2009  0.2513
18351W        W34425  11.036  15.175  12.626  0.2191 -0.0839  0.4229
18352W        W34426   5.922  16.043   0.857 -0.1455 -0.1164 -0.1280
18353W        W34427   7.095  11.067   2.370  0.0321  0.0976  0.1559
18354W        W34428   4.504   4.275  11.548 -0.0494 -0.0059 -0.2011
18355W        W34429  13.740   6.223  14.691 -0.1912 -0.2579  0.2026
18356W        W34430  12.692  10.853  13.733  0.1169  0.1181 -0.0605
18357W        W34431   9.407   6.100  12.624 -0.1165  0.1377 -0.1381
18358W        W34432   0.208   2.460  11.907  0.6571 -0.0190 -0.1125
18359W        W34433   8.393   0.555  11.885 -0.1587  0.1324 -0.0971
18360W        W34434   2.831  18.183   4.923 -0.1784 -0.0517 -0.0875
18361W        W34435  11.684   5.196   1.216  0.2677  0.0981 -0.1315
18362W        W34436   7.692   7.101  16.002 -0.1944 -0.0080 -0.0633
18363W        W34437  18.099  17.778  12.219  0.1293  0.3189 -0.1740
18364W        W34438  14.205  11.914  11.684  0.1614  0.2018 -0.0126
18365W        W34439  16.172  10.723  13.628  0.2032  0.0814 -0.0759
18366W        W34440  13.401   2.519   3.211 -0.2071  0.0372 -0.1107
18367W        W34441  12.479   6.313   4.177  0.1857 -0.0852  0.1678
18368W        W34442   2.254  12.016   2.578  0.0146  0.0452 -0.1483
18369W        W34443   3.319   6.135   0.111 -0.2895  0.2364  0.1740
18370W        W34444   9.078   9.363   2.546 -0.0650 -0.0292 -0.0600
18371W        W34445   7.624   5.000  14.587  0.3222  0.2419 -0.3516
18372W        W34446  15.189   4.434  14.707 -0.0604  0.0613 -0.0047
18373W        W34447   5.239  10.514  14.759  0.1945 -0.1019  0.1626
18374W        W34448  16.527   8.133   2.201 -0.0137  0.0152 -0.1078
18375W        W34449   7.693   7.010  15.378  0.1376 -0.1559  0.0155
18376W        W34450   8.033   5.395   3.202 -0.0274  0.0787 -0.1090
18377W        W34451  15.682  12.072   4.859 -0.0209 -0.0938 -0.1248
18378W        W34452  15.092  12.947  12.920 -0.1981  0.0836 -0.1209
18379W        W34453   9.429   2.206  14.835 -0.1649 -0.4851  0.1568
18380W        W34454  14.655   8.605  12.961  0.0822  0.0049  0.1699
18381W        W34455  13.800  11.225   0.423  0.1774  0.0610 -0.0097
18382W        W34456  13.861   6.866   4.743  0.4143  0.1358 -0.1176
18383W        W34457   8.526   1.501   0.089  0.0366  0.0677 -0.2176
18384W        W34458   1.807   6.571  12.932  0.1586 -0.0842  0.0351
18385W        W34459   6.659  15.767   2.955  0.0542  0.0130  0.1248
18386W        W34460   0.786   0.175   0.115 -0.0007  0.0818  0.1995
18387W        W34461   1.236   9.892  13.175  0.2712 -0.0264 -0.0168
18388W        W34462   3.508  14.518  14.174  0.0622 -0.1186  0.2532
18389W        W34463  13.382   2.247  13.466 -0.1792 -0.0167 -0.1822
18390W        W34464  14.166  11.084   4.711  0.1783 -0.1174 -0.2183
18391W        W34465  10.393   1.018  14.870 -0.1377  0.0879 -0.1308
18392W        W34466  13.638  13.811  13.824  0.2624  0.2223  0.1079
18393W        W34467   1.453  17.876   0.693 -0.1586  0.2402 -0.1301
18394W        W34468   8.289  10.690  12.722 -0.0357  0.1520 -0.1099
18395W        W34469   6.049   5.297  15.987  0.3162 -0.1164  0.0692
18396W        W34470   4.562   5.055  13.701  0.2124  0.1037  0.0843
18397W        W34471  16.666   3.688   5.225 -0.0979  0.0734  0.1154
18398W        W34472   0.724   7.382  16.298 -0.1688  0.1848  0.0464
18399W        W34473  17.008  10.929  12.832  0.0433  0.2569 -0.2501
18400W        W34474  17.698  16.344   1.524  0.2645  0.2522 -0.1192
18401W        W34475   8.903  14.584  13.481  0.0393 -0.0086 -0.0858
18402W        W34476  16.682  15.588   0.370  0.0842 -0.1373  0.1890
18403W        W34477  12.795  12.235   5.474  0.0724 -0.2681 -0.2942
18404W        W34478  12.965  14.778   4.687  0.0352  0.0111  0.3279
18405W        W34479  18.150  14.596   3.818 -0.3086  0.0172  0.1713
18406W        W34480  12.624  13.314   4.469  0.1341 -0.2144  0.2002
18407W        W34481  12.911   0.896   3.650  0.0948 -0.1116  0.1504
18408W        W34482  17.547   1.593   3.764  0.0935 -0.1853  0.0588
18409W        W34483  10.966   2.811  12.241 -0.3287 -0.0180  0.1639
18410W        W34484  16.200   5.265  14.842 -0.1865  0.0722  0.3624
18411W        W34485   0.656   7.950   5.358 -0.0155  0.1739  0.0300
18412W        W34486   7.269   5.831  13.440 -0.1384 -0.0288  0.0343
18413W        W34487   1.622   2.589  11.736 -0.0276 -0.1723 -0.2475
18414W        W34488  13.623   9.555  14.597  0.1779  0.1572 -0.0924
18415W        W34489   6.648   6.767   5.400  0.3272 -0.2356  0.0388
18416W        W34490   6.651  16.662   1.160 -0.0922 -0.0530  0.2725
18417W        W34491  11.113   9.554  16.265 -0.1515 -0.0141 -0.1197
18418W        W34492   5.595   0.759   2.680 -0.2550  0.2241  0.0564
18419W        W34493  16.390   6.976  11.281  0.0616 -0.2150 -0.0512
18420W        W34494   6.008  16.261   5.311  0.0541  0.0709 -0.0121
18421W        W34495   8.118   2.928   1.222  0.2904  0.3577  0.1284
18422W        W34496  17.168   0.379  13.369  0.1821 -0.3067  0.2821
18423W        W34497  13.118  14.741  14.689  0.1273 -0.0510 -0.0127
18424W        W34498   2.613   7.681  14.149 -0.0562 -0.5896 -0.0989
18425W        W34499  16.482   4.074   5.525  0.2472 -0.0835  0.1868
18426W        W34500  14.370   1.169   4.962 -0.3100  0.1260 -0.0211
18427W        W34501   2.011  13.405  13.627  0.1929 -0.1013 -0.1760
18428W        W34502  17.105   7.251   6.122  0.1521  0.0112  0.0421
18429W        W34503  15.519   7.877   0.954  0.1190 -0.2296  0.1270
18430W        W34504  16.082   4.925   3.901 -0.2277 -0.1445 -0.0407
18431W        W34505   6.817   8.671   3.288  0.2488  0.2892  0.0943
18432W        W34506   4.411   1.581   3.299  0.2637 -0.1108 -0.0870
18433W        W34507   6.961   8.894   3.901 -0.2531 -0.3529 -0.2994
18434W        W34508   9.570   2.465  11.845  0.3491  0.0421  0.2426
18435W        W34509   5.747  14.005   3.356  0.0602 -0.1593  0.2749
18436W        W34510   6.419  13.047   1.285 -0.1852  0.0485  0.0588
18437W        W34511   9.443  15.183   4.314  0.2536 -0.2679 -0.3727
18438W        W34512   0.710   1.817   1.049 -0.0425  0.3060 -0.0439
18439W        W34513  16.873   0.596   2.914  0.1054 -0.3172 -0.0203
18440W        W34514   0.826   0.914  13.444  0.0670  0.5328 -0.0635
18441W        W34515   6.741  12.055   3.504 -0.2082 -0.0073  0.0002
18442W        W34516  10.159  16.381   4.964  0.2872 -0.2520 -0.0801
18443W        W34517   9.596  11.691  12.924 -0.3633  0.2381  0.0537
18444W        W34518  16.839   5.641  12.447  0.5810  0.0638  0.0340
18445W        W34519  17.258  13.313   2.447  0.0644  0.0438 -0.1658
18446W        W34520   4.440   8.708   3.587 -0.3011 -0.0425  0.2788
18447W        W34521  13.753   4.462  11.460 -0.0313 -0.0324 -0.2753
18448W        W34522   1.648   2.190   0.895  0.1764 -0.2171 -0.0069
18449W        W34523  12.346  17.437  13.120 -0.0051  0.1959 -0.0296
18450W        W34524   1.544   0.671  11.223 -0.1998  0.1915 -0.0792
18451W        W34525   9.893  16.225  14.455 -0.1012 -0.1278 -0.1357
18452W        W34526   0.395  15.302  15.019  0.2123  0.1847 -0.0078
18453W        W34527  10.432   2.410   2.506  0.1712 -0.0618 -0.0568
18454W        W34528  15.883   5.799   2.993  0.1697  0.0526 -0.2701
18455W        W34529  13.724   3.811   5.436 -0.1604 -0.2876  0.0226
18456W        W34530  16.685   1.663  13.512 -0.0569  0.1364 -0.1037
18457W        W34531   2.168  13.141   1.517 -0.1426 -0.0615 -0.2229
18458W        W34532   2.183   2.417  13.088 -0.4089  0.0964  0.0641
18459W        W34533   4.041   0.371  14.574  0.1594  0.2534  0.1007
18460W        W34534   3.670  10.673  15.134  0.0903 -0.3203  0.1119
18461W        W34535  16.813  13.721  11.408 -0.4087  0.3756  0.0366
18462W        W34536  10.021  13.125  12.212 -0.1188  0.0066  0.0906
18463W        W34537   2.167  10.945   2.165 -0.2495 -0.1214  0.2744
18464W        W34538   4.825   4.075   1.490  0.0764 -0.2369 -0.4364
18465W        W34539  16.525  17.686   3.586 -0.0250  0.1580 -0.0011
18466W        W34540  17.338  17.947  12.153 -0.1434  0.1953  0.0233
18467W        W34541  16.967   9.692  10.529  0.1919  0.0405  0.1947
18468W        W34542  11.276   3.337   3.260 -0.0265  0.0201 -0.0262
18469W        W34543  13.029   1.261  13.806  0.3189  0.1571  0.3252
18470W        W34544  17.197  15.448   0.342 -0.1010  0.1845  0.2339
18471W        W34545  16.555   0.432  11.569  0.0277 -0.0286 -0.3087
18472W        W34546  12.535   7.103   2.398  0.0754 -0.5351  0.0867
18473W        W34547  13.367   8.506  16.021  0.1591  0.0129 -0.0203
18474W        W34548  13.694   3.502  16.303  0.4621  0.0585  0.1515
18475W        W34549  11.015  14.694  13.852  0.2381 -0.2099 -0.1377
18476W        W34550   8.585  11.195  15.570 -0.1266  0.3859  0.2171
18477W        W34551  16.782  13.724  12.511 -0.0501  0.2461 -0.0621
18478W        W34552   7.275   7.849  13.891  0.0033  0.1954 -0.0987
18479W        W34553  10.127   2.762   5.940 -0.0854 -0.1664  0.0001
18480W        W34554  10.767   9.771  11.866  0.1399 -0.1376 -0.0789
18481W        W34555   8.147  12.621   4.819  0.1871 -0.2283  0.0044
18482W        W34556   0.251  14.805  11.501  0.1241 -0.2887  0.0347
18483W        W34557   2.909  14.354  13.650  0.1245  0.0728  0.0379
18484W        W34558  13.638  15.282  14.097  0.1455  0.0008 -0.0401
18485W        W34559   0.312  14.934   2.070  0.2480 -0.0701 -0.1358
18486W        W34560  10.025   7.780  15.045  0.0241 -0.2376  0.1293
18487W        W34561  17.268   3.258  16.251 -0.1618  0.0078  0.3041
18488W        W34562   2.069   8.016   4.095 -0.3209 -0.0578 -0.1068
18489W        W34563   0.753   0.368   5.487 -0.1916  0.1571  0.2083
18490W        W34564  11.196   7.048  14.373 -0.0346 -0.0841  0.0869
18491W        W34565  15.957   4.148   5.458 -0.2411 -0.0814 -0.0918
18492W        W34566   1.238  17.170  14.973 -0.0311 -0.0657  0.1404
18493W        W34567  16.902  12.303  14.190  0.1081  0.1650  0.4114
18494W        W34568  13.499  15.578   1.050 -0.1323 -0.3586  0.1402
18495W        W34569  13.129  10.139   4.820  0.1380  0.0260 -0.1220
18496W        W34570  13.843  13.414   4.749 -0.0174  0.0547  0.1062
18497W        W34571   3.681   7.956   1.268 -0.1034 -0.1344 -0.1183
18498W        W34572  12.969  15.976   1.985  0.1051 -0.1550  0.1618
18499W        W34573  16.312   5.907  15.578 -0.4567  0.2378  0.0671
18500W        W34574   8.839   0.510  11.545  0.1484 -0.0858  0.0370
18501W        W34575   7.787   5.645   2.628 -0.1028  0.0126  0.1355
18502W        W34576  18.188   2.027  15.632  0.3082 -0.0909 -0.1093
18503W        W34577  11.733  12.505  12.281 -0.0897 -0.2581  0.1045
18504W        W34578  12.017   6.032   2.259 -0.0489 -0.0782  0.0321
18505W        W34579   1.703   1.801   0.206  0.0900  0.1785 -0.4198
18506W        W34580  11.589   0.952  14.211  0.3045  0.1454  0.0520
18507W        W34581  13.025   8.454   0.574  0.1807  0.2039 -0.0259
18508W        W34582   5.100  17.557  12.240  0.1411 -0.1049  0.1003
18509W        W34583   7.731   2.705   2.854 -0.1105  0.0971 -0.2288
18510W        W34584  17.969  13.917   2.594  0.0758 -0.2469 -0.0917
18511W        W34585  17.286  13.447  12.253  0.0184 -0.0792  0.3101
18512W        W34586   0.962   9.227   3.620  0.0716 -0.0222 -0.0562
18513W        W34587  10.369  12.126   0.836 -0.1429 -0.0572  0.1105
18514W        W34588  13.865  10.475  14.339  0.0227  0.5134  0.0605
18515W        W34589  10.656  10.109   0.169  0.2534 -0.1732  0.1737
18516W        W34590   4.842   9.102   2.734 -0.3755 -0.4970 -0.0110
18517W        W34591  12.976   1.380   2.764 -0.1570 -0.1516  0.0750
18518W        W34592  16.163  17.650  15.669 -0.0240  0.1583 -0.0700
18519W        W34593   6.131  10.502  15.056  0.0079 -0.0564 -0.2120
18520W        W34594   2.643   4.388  16.455 -0.2558  0.0288  0.2436
18521W        W34595   3.105  12.179  12.170  0.1643 -0.1087 -0.3023
18522W        W34596   4.433  10.780   1.383  0.3313  0.0675 -0.1093
18523W        W34597   4.114   8.515   1.128 -0.3981  0.0621 -0.0628
18524W        W34598  13.398  12.033  14.312  0.0917  0.1879 -0.0146
18525W        W34599   9.841   7.925  16.343  0.1451  0.2128  0.2691
18526W        W34600  14.140  13.640  13.209  0.0611 -0.0800  0.2830
18527W        W34601  13.133   9.375   1.773  0.3816  0.0386  0.2164
18528W        W34602  11.533   2.986  14.946  0.0976  0.0573 -0.1204
18529W        W34603  12.491  15.791   3.744  0.0912 -0.1244  0.1254
18530W        W34604   1.969  15.311   2.815  0.0745 -0.0160  0.1857
18531W        W34605  14.084  10.662  15.032 -0.2362  0.2101  0.1912
18532W        W34606   4.138   3.031  12.712 -0.0536 -0.2460  0.0989
18533W        W34607   5.474  11.813   2.389 -0.0683  0.0757  0.1699
18534W        W34608  17.105   4.906  16.364 -0.2107 -0.0881 -0.1119
18535W        W34609   8.242  11.458  15.003 -0.1553  0.2067  0.2843
18536W        W34610   3.634  14.136   5.398 -0.0058 -0.0348  0.1770
18537W        W34611  16.665   3.813  14.107  0.1713 -0.2410 -0.0771
18538W        W34612  13.708  15.791   5.672  0.0719 -0.0245  0.0812
18539W        W34613  17.960   1.531   2.253 -0.1729  0.0997 -0.2160
18540W        W34614  16.677  17.322  11.187  0.0897 -0.0538  0.1429
18541W        W34615  12.912  16.866   1.496  0.0236  0.2531 -0.0292
18542W        W34616  17.321   5.242   0.311 -0.1963 -0.1923 -0.0332
18543W        W34617   9.079  13.761  14.449  0.0779  0.0343 -0.2544
18544W        W34618   3.727  15.349   1.713  0.0250 -0.0720 -0.1281
18545W        W34619  16.250  17.286   0.969 -0.2318  0.0281 -0.5346
18546W        W34620  10.513   7.715   5.197  0.0943  0.2748  0.1263
18547W        W34621   0.632   5.651  12.013  0.1265  0.0886 -0.1258
18548W        W34622   7.510  12.946  15.916 -0.0235 -0.0058 -0.2558
18549W        W34623  13.334   7.660   1.804  0.2032  0.0455  0.1750
18550W        W34624   5.140   0.486  12.620 -0.1163 -0.0185 -0.2668
18551W        W34625  17.813   4.594   3.401 -0.2444  0.3091  0.0764
18552W        W34626  15.873   1.064   0.483 -0.1056  0.0301 -0.0436
18553W        W34627   6.890  10.237   1.893 -0.2802 -0.0124  0.2935
18554W        W34628   3.280   3.147  15.645 -0.3913 -0.0687 -0.2178
18555W        W34629  10.267   8.009  13.464 -0.0835  0.0336  0.3228
18556W        W34630  17.956  17.308   2.980  0.1342 -0.1370 -0.0705
18557W        W34631   7.838   5.430  11.805 -0.0239  0.1724 -0.0454
18558W        W34632  16.817   2.224  15.627  0.1747 -0.1605 -0.0295
18559W        W34633  17.449   3.637  15.950  0.2823  0.3131  0.1501
18560W        W34634  14.235  10.116   5.530  0.0406  0.0551  0.0696
18561W        W34635   1.819  14.174  12.478 -0.0832 -0.2267 -0.1233
18562W        W34636  17.098   1.546  16.390 -0.0529  0.0813 -0.0886
18563W        W34637  17.916  11.255  13.760 -0.0241 -0.2299  0.1212
18564W        W34638  15.129   0.976  16.184  0.1346 -0.0815  0.0667
18565W        W34639   8.688  15.476   4.042 -0.2237 -0.0763  0.2619
18566W        W34640  17.538   5.848   5.260  0.2069 -0.1057  0.1306
18567W        W34641   5.525  11.321   2.133  0.2214  0.0579  0.1504
18568W        W34642   6.632  13.954  11.796  0.1830 -0.1076  0.1434
18569W        W34643  12.236   1.450   2.344  0.2091 -0.0225  0.0061
18570W        W34644   6.375  13.292   4.921  0.0055  0.1110 -0.1192
18571W        W34645   9.687  10.947  14.684  0.2331 -0.0878 -0.1050
18572W        W34646  15.196  10.699   4.729  0.2153 -0.2693 -0.1809
18573W        W34647  16.600   5.032  14.954 -0.1202 -0.1464  0.0757
18574W        W34648   5.135   7.403   0.821  0.0510 -0.1933 -0.1112
18575W        W34649   5.575  11.633   4.542  0.0938  0.0408 -0.2229
18576W        W34650   3.237   3.445   2.436 -0.0535  0.0413 -0.0745
18577W        W34651   6.364  12.139  14.391  0.1020 -0.1218 -0.0438
18578W        W34652   1.611   3.191   0.489  0.1133  0.0063  0.1866
18579W        W34653   6.992  13.864   2.867  0.1278  0.0326  0.1218
18580W        W34654   1.305  16.325  13.797 -0.1619 -0.2625 -0.1803
18581W        W34655  11.011   0.883   2.325  0.2466  0.2327  0.0925
18582W        W34656  10.809  14.693   0.497  0.0724  0.0328  0.2013
18583W        W34657   0.023  17.318  15.815  0.0850  0.1234 -0.1332
18584W        W34658   1.562  15.062   2.836  0.2024 -0.0136  0.0589
18585W        W34659  12.247   8.306   4.054  0.1963 -0.2433 -0.0566
18586W        W34660  10.464  10.647  14.180 -0.3664 -0.1782  0.2341
18587W        W34661  11.430   1.777  14.063  0.4913 -0.3112  0.1415
18588W        W34662   9.522   2.496   5.906  0.0325 -0.1411 -0.2357
18589W        W34663  16.680  16.257   2.471  0.3499 -0.3419 -0.1621
18590W        W34664   4.207   6.087  12.013 -0.0236 -0.1506 -0.3616
18591W        W34665   0.154  14.740  14.104 -0.1757  0.0211 -0.0816
18592W        W34666   2.633   1.933   3.220  0.0205  0.3325  0.3447
18593W        W34667   1.111   1.335   2.137 -0.1939  0.1256 -0.0454
18594W        W34668  17.842  16.234   6.013  0.5757 -0.3709  0.1167
18595W        W34669  10.775   0.386  15.041 -0.0340  0.1247  0.2801
18596W        W34670   2.614  12.082  14.582  0.3008  0.3470 -0.0760
18597W        W34671   6.109  15.073  14.734  0.0239  0.0303  0.0067
18598W        W34672   5.593   2.126  11.425 -0.1083  0.0636 -0.1679
18599W        W34673   0.464   1.818   1.543 -0.1148 -0.2972 -0.0515
18600W        W34674  10.872  17.090  11.629  0.0424  0.0251 -0.0335
18601W        W34675  15.166   6.554  14.793  0.3131 -0.4224 -0.1427
18602W        W34676   8.030   9.531   5.362 -0.0995  0.0062  0.3320
18603W        W34677   7.656  16.246  12.746 -0.0803 -0.0832 -0.1984
18604W        W34678   6.150   8.868   3.593 -0.1613 -0.1902 -0.0074
18605W        W34679   9.893  16.371  13.199 -0.3383  0.1190  0.2878
18606W        W34680   3.145  17.921  12.987  0.2555 -0.0883 -0.2064
18607W        W34681  15.207  11.796  14.227 -0.0992  0.5922 -0.1743
18608W        W34682  17.461  12.694   4.885  0.0579 -0.1453  0.1586
18609W        W34683  16.962  15.967   3.072 -0.1526  0.0496 -0.2486
18610W        W34684   7.372  11.774   2.144  0.1689 -0.2211  0.1368
18611W        W34685   4.390   2.793  11.655  0.3498 -0.0480  0.1514
18612W        W34686   0.224  17.382   5.313  0.3029 -0.1456  0.1282
18613W        W34687   0.050  15.670  11.232 -0.1029  0.1144  0.4411
18614W        W34688   9.081  17.192  15.996  0.0293 -0.1189  0.0669
18615W        W34689   3.880  15.460   4.906  0.0833  0.1394  0.1882
18616W        W34690  14.843  15.829  12.014 -0.2050 -0.2982  0.0238
18617W        W34691  13.903  11.452   3.429 -0.0476 -0.0016 -0.2926
18618W        W34692  10.266   4.175  13.237 -0.1660  0.2068 -0.0304
18619W        W34693  14.090   3.007   0.923 -0.2456 -0.5312 -0.1958
18620W        W34694   0.487   8.940  11.458 -0.1557  0.0787  0.0238
18621W        W34695   6.963  15.661   4.812  0.0783  0.0565 -0.2243
18622W        W34696   3.931   0.920  13.078  0.0991  0.1477  0.1836
18623W        W34697   4.705   8.696   4.972 -0.0251 -0.0460 -0.2563
18624W        W34698  11.247  11.284  16.349 -0.3118 -0.2492 -0.0640
18625W        W34699  12.281  14.953   0.943 -0.5038 -0.0467  0.4442
18626W        W34700  15.490  10.520   5.254  0.1981  0.5134  0.1367
18627W        W34701   6.773  11.494   4.747 -0.0798 -0.0920 -0.0174
18628W        W34702   2.929   0.586   6.394 -0.1944 -0.2121  0.0652
18629W        W34703   5.199  13.769  16.504 -0.1174 -0.1283 -0.1768
18630W        W34704   9.098  16.864   3.436  0.2104  0.1971  0.0314
18631W        W34705   5.925  18.216   4.147 -0.1521  0.1958  0.0954
18632W        W34706  10.041   0.220  12.741 -0.0806 -0.2056 -0.2801
18633W        W34707  14.112  11.706   4.254 -0.0083  0.2499  0.0520
18634W        W34708   9.938   2.108  16.433  0.3451 -0.0330 -0.2090
18635W        W34709   7.173  17.723  12.462  0.2212 -0.1744 -0.2894
18636W        W34710   6.535  14.371   5.259 -0.0179 -0.1051  0.0595
18637W        W34711   8.361   4.178  12.533  0.1078 -0.0240 -0.2865
18638W        W34712  11.721   0.627   1.958 -0.0668 -0.1040  0.2902
18639W        W34713  14.701   9.611  11.927 -0.0108 -0.1331 -0.5684
18640W        W34714  11.778  14.248  15.659 -0.1217 -0.1125 -0.1456
18641W        W34715   2.478   3.241   3.024 -0.2874  0.1155 -0.0428
18642W        W34716   5.189   7.441  14.018 -0.0911 -0.2158  0.0143
18643W        W34717  13.439   5.280   2.108  0.0759 -0.1439  0.0329
18644W        W34718   7.584   5.538   0.132 -0.0044  0.0933 -0.2643
18645W        W34719   4.323  11.957   2.735 -0.2544  0.2174  0.0717
18646W        W34720   0.432   3.294   5.039  0.0764 -0.0262 -0.0206
18647W        W34721   7.648  11.973  15.440  0.2533  0.1742 -0.3662
18648W        W34722   0.409   0.670   2.412  0.0322  0.2326 -0.0631
18649W        W34723   4.756   4.826  12.812 -0.0451 -0.0036  0.0687
18650W        W34724  15.216  16.479   1.832 -0.2993  0.1454  0.0727
18651W        W34725  10.059  12.070   2.962  0.1138  0.2391  0.0131
18652W        W34726  17.118  16.881  16.358 -0.0655  0.1841  0.2551
18653W        W34727   7.072  15.698  12.170  0.2639 -0.2417  0.2856
18654W        W34728  14.120   2.302  14.416  0.1608 -0.1202 -0.2010
18655W        W34729  15.600   8.702   5.742  0.2936 -0.1655 -0.0055
18656W        W34730   4.711  15.611   1.544  0.3474 -0.1735  0.0287
18657W        W34731  16.595   4.565   3.170 -0.0955 -0.1552  0.1189
18658W        W34732   4.327  10.892  14.336 -0.1218 -0.0024 -0.2863
18659W        W34733   7.452   4.440   3.861  0.0891 -0.2177 -0.4123
18660W        W34734  16.600   1.448  12.679  0.0420 -0.2954  0.1090
18661W        W34735  14.739   6.341   1.059 -0.0763  0.0305  0.0908
18662W        W34736   1.971   1.835  12.246  0.0976 -0.0131 -0.0853
18663W        W34737  14.754  15.556   5.584  0.2053  0.1441  0.1865
18664W        W34738  17.391   8.829   2.902  0.0427 -0.0668 -0.0699
18665W        W34739  15.259   9.026  13.110 -0.2016  0.1061  0.1308
18666W        W34740  10.361  11.205   5.490 -0.1618 -0.1502 -0.1185
18667W        W34741   8.651   6.291  15.002 -0.2772 -0.2181  0.1831
18668W        W34742   5.380   5.655   2.604 -0.0108  0.0017 -0.0016
18669W        W34743  17.953  14.766  15.730  0.1410  0.0852  0.0009
18670W        W34744  16.319  16.387  12.887 -0.1874 -0.1083 -0.0038
18671W        W34745   0.324  14.941  12.597 -0.2282  0.2750 -0.1749
18672W        W34746  11.897  17.953   4.341  0.0786 -0.1552  0.3569
18673W        W34747   7.162  10.028  14.303  0.2927  0.1660 -0.0763
18674W        W34748   9.617   4.065   3.335  0.0103  0.0551  0.0145
18675W        W34749   2.804  11.576   5.732 -0.4240 -0.0314 -0.0322
18676W        W34750   0.361  16.852   1.625  0.0783  0.2710 -0.2649
18677W        W34751  12.664  15.853   1.394  0.1282 -0.0143 -0.1186
18678W        W34752   7.697  10.066  15.483  0.0268  0.1303  0.2761
18679W        W34753   1.759  15.241   3.892 -0.1316 -0.3195 -0.1939
18680W        W34754  17.839  13.305   0.227  0.0319  0.0937 -0.2681
18681W        W34755   1.033   1.019  12.007 -0.1024 -0.0079 -0.0849
18682W        W34756   9.536   4.803  14.623  0.5271 -0.0350  0.1095
18683W        W34757   6.117   8.201   2.577  0.2368  0.3078 -0.1851
18684W        W34758  15.027  17.493   2.219 -0.0264 -0.0114  0.0153
18685W        W34759   9.545  15.208  11.853  0.2765 -0.1044  0.1372
18686W        W34760  15.192  13.882   1.982 -0.1389  0.1275  0.1246
18687W        W34761  10.033  14.500  14.486  0.2097 -0.1173  0.3285
18688W        W34762  13.822  16.059   4.110  0.0763  0.2167 -0.0070
18689W        W34763   4.486  17.692   1.388 -0.2858 -0.0652  0.1405
18690W        W34764   1.903   1.040  11.005  0.2078  0.0518 -0.0288
18691W        W34765   7.429   4.325  12.982  0.0043  0.2118  0.0886
18692W        W34766  15.739   5.796   4.204  0.0181  0.0428 -0.0543
18693W        W34767  16.050  12.676  16.302  0.1819  0.0896  0.1173
18694W        W34768   3.912  18.005   2.099 -0.0232  0.1289  0.0392
18695W        W34769  18.113   4.356  14.446  0.1134 -0.3665 -0.0533
18696W        W34770  18.103  14.112  12.198  0.0986 -0.1459 -0.1503
18697W        W34771   9.008   6.580  15.297  0.2775 -0.3252 -0.2483
18698W        W34772   5.544  14.425  14.976 -0.2239 -0.0196  0.0364
18699W        W34773  17.959  14.114   3.082 -0.3197  0.0762  0.0518
18700W        W34774  14.390   9.632   1.313 -0.2926  0.1496 -0.0104
18701W        W34775  12.335   6.027   3.250 -0.0699  0.0765  0.1768
18702W        W34776  15.180   6.247  14.390 -0.1900 -0.5220 -0.2406
18703W        W34777  16.256   3.044   0.642  0.1128  0.3435 -0.0694
18704W        W34778  16.191  14.161  12.553  0.0055  0.1960  0.3813
18705W        W34779  11.448  17.907  15.344  0.1222  0.0745 -0.0824
18706W        W34780  13.571   6.631   5.994 -0.2746  0.0210 -0.1059
18707W        W34781  11.824   1.201  13.552 -0.1249  0.1303  0.0950
18708W        W34782   5.125  12.923   0.665  0.0251 -0.0752  0.0937
18709W        W34783  11.605   6.039  13.679  0.2278  0.1702  0.0068
18710W        W34784   3.159   5.333   4.146 -0.2706 -0.0245  0.0388
18711W        W34785   8.869  14.463   5.066 -0.2703  0.4339 -0.3128
18712W        W34786  12.169   3.720   5.782 -0.1551  0.0100 -0.3542
18713W        W34787  16.178   2.792  14.562  0.1624 -0.1828 -0.1714
18714W        W34788   2.243  15.993   0.099 -0.2205  0.2394  0.1644
18715W        W34789  10.745  12.434   4.926  0.2895 -0.3712 -0.1477
18716W        W34790  12.577  16.946  13.356  0.2897  0.2409  0.0041
18717W        W34791   4.512   5.521   5.048  0.1917  0.0363  0.0669
18718W        W34792  12.913   4.636  11.924 -0.1054 -0.1440  0.0044
18719W        W34793   9.286  14.793   4.998  0.1758  0.2908  0.1125
18720W        W34794  11.499   9.954   4.060 -0.0528  0.0716 -0.2821
18721W        W34795  15.624   6.475   2.369  0.1241 -0.2104  0.2481
18722W        W34796   0.749   5.579  10.980  0.1066  0.1698 -0.0583
18723W        W34797  17.504  16.921  12.700  0.0377  0.0704  0.0195
18724W        W34798  13.569  14.067  14.273 -0.0608  0.3537 -0.0572
18725W        W34799   4.236  13.320   3.925 -0.1588  0.0148  0.1450
18726W        W34800   4.859  15.412   4.215 -0.3566 -0.1881  0.1107
18727W        W34801   0.742  16.782  13.101 -0.0549  0.0062  0.2233
18728W        W34802   4.568  10.119  16.054  0.0379 -0.1840  0.1079
18729W        W34803  11.063   3.115  15.110  0.4370  0.0844 -0.1652
18730W        W34804   7.551  17.370   1.192 -0.3765 -0.1109  0.0394
18731W        W34805   3.332   0.962  11.424 -0.1076  0.0104  0.3074
18732W        W34806  12.838   2.796   1.593  0.0039  0.1448 -0.2002
18733W        W34807   3.740  13.431  11.653  0.1321  0.1805 -0.2601
18734W        W34808   8.858  12.680  12.040  0.0413  0.0490 -0.0216
18735W        W34809  12.353  11.806  12.219  0.0041  0.1908 -0.2794
18736W        W34810   0.474  14.216  15.230 -0.0922  0.0133 -0.1536
18737W        W34811  18.154   1.706   3.051 -0.0702  0.0436  0.1694
18738W        W34812   9.605  11.339  11.936  0.0271 -0.1706  0.2837
18739W        W34813   2.945  16.738  15.677  0.1129  0.3023 -0.4076
18740W        W34814  15.601  12.840   1.497 -0.1032 -0.0646 -0.1943
18741W        W34815  16.593   0.521   4.826  0.0413  0.1570 -0.1703
18742W        W34816  15.983  13.918  13.397  0.1541 -0.3160  0.2127
18743W        W34817   1.380   8.319   0.155  0.0643 -0.0875  0.0047
18744W        W34818   7.929   1.162   1.418 -0.1451  0.3341 -0.2140
18745W        W34819   3.083   8.837   1.164 -0.1179 -0.0894 -0.1734
18746W        W34820  11.490  13.783   4.934  0.0562  0.2314 -0.1212
18747W        W34821  16.639   3.281  10.304 -0.4921  0.1547 -0.1410
18748W        W34822  10.685  12.776   1.551 -0.1136 -0.0901 -0.0966
18749W        W34823  16.495   3.671  13.245  0.0389  0.1452  0.3106
18750W        W34824  17.111   8.316  16.122  0.0266 -0.2955  0.0600
18751W        W34825  11.659  15.990   3.387 -0.0973 -0.4389 -0.3037
18752W        W34826  17.088   4.622  12.061  0.3452  0.0574 -0.1452
18753W        W34827  14.386   8.425   5.009  0.0050 -0.1578  0.4136
18754W        W34828   5.785   6.964   5.473  0.2534  0.0823  0.1702
18755W        W34829   2.033  12.708   1.691  0.1766  0.2208  0.1258
18756W        W34830  12.006  14.455   3.700  0.0527 -0.1404 -0.0980
18757W        W34831   9.767  13.769   3.496  0.0214  0.0628 -0.0991
18758W        W34832   1.152   8.024   2.831  0.0917 -0.2195  0.1935
18759W        W34833   9.202   5.713   2.859 -0.5544 -0.0350 -0.3610
18760W        W34834   2.662  14.736   3.951 -0.1950 -0.2764 -0.0019
18761W        W34835   1.138  13.902   0.777 -0.4238  0.1588  0.0040
18762W        W34836   7.848  11.939  11.969  0.1134  0.2155  0.3121
18763W        W34837   6.142   5.738   4.128 -0.0651 -0.1013  0.3775
18764W        W34838  15.612   9.552   2.033 -0.0912 -0.2373 -0.0482
18765W        W34839  15.295   8.968   3.811 -0.2514 -0.0361  0.1961
18766W        W34840  17.193  17.277   3.827 -0.6377 -0.0789  0.0043
18767W        W34841   6.863   9.449  12.942 -0.1920 -0.0480 -0.0322
18768W        W34842  14.278  12.395  15.474 -0.0152 -0.0954  0.0818
18769W        W34843  14.290  15.505   3.485 -0.0275  0.0651  0.0482
18770W        W34844   8.133  10.096   2.293  0.1415  0.0480  0.1141
18771W        W34845   0.516   3.900   4.550 -0.1198 -0.0364  0.1666
18772W        W34846  14.095  11.756  14.891 -0.3433 -0.0562 -0.3507
18773W        W34847  17.485   5.188   6.055 -0.3853  0.3914  0.2252
18774W        W34848   8.282  16.759  16.168 -0.2085  0.2578 -0.0856
18775W        W34849  14.948  10.083   4.236 -0.2380 -0.3420  0.0057
18776W        W34850  14.774   1.780  13.294  0.0204 -0.1195  0.2881
18777W        W34851  14.315  14.200  16.517 -0.0839 -0.0549 -0.0622
18778W        W34852   9.648  10.168  13.334  0.2428 -0.4083  0.0464
18779W        W34853   1.222   6.033  14.250 -0.1143 -0.0644 -0.0468
18780W        W34854  10.868  16.062   4.629 -0.4575 -0.0437  0.0038
18781W        W34855  16.879   6.785   0.244 -0.1385  0.3058  0.4178
18782W        W34856   0.813   1.964  12.649 -0.1088 -0.2613 -0.0831
18783W        W34857  18.189   1.307  16.373 -0.1443  0.2701 -0.2529
18784W        W34858  12.063  14.681   1.687  0.0046  0.0153 -0.2920
18785W        W34859   3.861   6.091  12.462 -0.2571 -0.5753  0.1363
18786W        W34860  12.834   0.682  14.095  0.3039 -0.0319 -0.1586
18787W        W34861   1.481   5.930  12.414 -0.1413  0.0160 -0.4252
18788W        W34862   3.743   1.555   3.908 -0.1148  0.1073  0.2945
18789W        W34863   1.359   6.563   2.261 -0.1241 -0.1098 -0.1795
18790W        W34864   1.705  10.072   5.353 -0.1790  0.1475 -0.2518
18791W        W34865   8.066   0.357  11.446 -0.0131  0.1961 -0.0060
18792W        W34866   3.118  12.125   3.272  0.3438  0.0099  0.0617
18793W        W34867   8.080  11.017  15.291 -0.1542  0.1283  0.0739
18794W        W34868  11.085   1.934  15.951 -0.1207 -0.1746 -0.2064
18795W        W34869  11.014  12.633   3.918 -0.0215  0.0723 -0.0196
18796W        W34870  15.696   3.349   1.684 -0.2087  0.0746 -0.1615
18797W        W34871   4.906   3.897  13.243  0.1260  0.0751  0.2224
18798W        W34872   0.859   8.569  12.244 -0.2814 -0.1677 -0.0470
18799W        W34873  17.175   4.057  12.194  0.2270 -0.0287  0.0206
18800W        W34874   9.636  17.877   2.665 -0.1303 -0.3673 -0.0146
18801W        W34875   6.815  15.565  12.908 -0.3576  0.1515 -0.2684
18802W        W34876   5.908  12.740  12.731  0.3273  0.0635  0.1026
18803W        W34877  11.979   2.971  12.738  0.2812  0.0859 -0.2926
18804W        W34878  14.176  13.700   3.000 -0.2369 -0.0159  0.0484
18805W        W34879   1.006   8.359   3.183 -0.0670  0.0668  0.1028
18806W        W34880   7.584  15.923  13.190  0.0659 -0.0528  0.1622
18807W        W34881  10.339  11.760  14.060 -0.2970 -0.1828  0.0373
18808W        W34882  14.009   7.928   0.098 -0.0722 -0.0331  0.0633
18809W        W34883   7.512   4.674   2.824  0.1153 -0.3717 -0.2335
18810W        W34884  15.308  13.461  16.072 -0.1323  0.0973  0.1037
18811W        W34885   3.995   9.040   0.280  0.0475  0.2351 -0.0928
18812W        W34886   2.924   1.656   4.424 -0.0639 -0.0218  0.1711
18813W        W34887   2.196  18.099  15.841  0.1801 -0.0839  0.4743
18814W        W34888   4.975   0.291  14.634 -0.1638 -0.1399 -0.0912
18815W        W34889  11.237  11.278  14.481  0.0152  0.2621 -0.1701
18816W        W34890  10.447   5.983  13.427  0.2719 -0.3168 -0.4515
18817W        W34891   1.014   3.723   4.376 -0.0134  0.6188  0.1230
18818W        W34892  15.317   8.655   5.325 -0.0734  0.2365 -0.1585
18819W        W34893   7.022   7.922  16.109 -0.2177  0.5865 -0.0680
18820W        W34894  16.456  10.676   1.942 -0.0672  0.2242  0.0069
18821W        W34895  15.584   3.521  12.069  0.0858 -0.0022 -0.0207
18822W        W34896   1.760  14.341   4.807 -0.0259 -0.0278  0.2208
18823W        W34897   3.034  16.118  14.097  0.0649 -0.0438 -0.1249
18824W        W34898  13.968   0.075  13.154 -0.0169 -0.0043 -0.1927
18825W        W34899   1.746  12.005  11.502 -0.0518 -0.0459 -0.0372
18826W        W34900  12.240  17.652   0.227 -0.1366 -0.1634  0.2734
18827W        W34901  12.106  11.810   2.328  0.1675  0.1479 -0.0582
18828W        W34902  12.341  10.347  16.485 -0.1827  0.0303  0.4512
18829W        W34903  11.678   3.910  13.070  0.1324  0.0783  0.1205
18830W        W34904   1.161  17.841  10.916 -0.0289  0.0281 -0.2357
18831W        W34905  10.449  12.218   4.052 -0.0152  0.1093 -0.1657
18832W        W34906   0.320  17.656   2.280  0.1491 -0.3584  0.0536
18833W        W34907   1.049  10.914  14.400  0.2296 -0.0198 -0.0400
18834W        W34908   1.027   6.798   1.968  0.0967  0.1498  0.0680
18835W        W34909  12.172  10.551  15.912  0.1879 -0.0759  0.4155
18836W        W34910  16.842  12.481  13.653  0.2423 -0.1570  0.0888
18837W        W34911   2.037  12.076   1.669  0.1539 -0.4151 -0.2756
18838W        W34912  18.152  14.873  12.147  0.0101 -0.0265 -0.0508
18839W        W34913  17.964   3.280   2.604  0.0690 -0.3450 -0.1747
18840W        W34914   6.817  17.031  16.402  0.0727  0.0437  0.2055
18841W        W34915  14.004  10.390  16.374 -0.3236 -0.0695  0.4384
18842W        W34916  14.196  12.725  15.912  0.0885 -0.0817  0.0209
18843W        W34917   8.719  17.364   5.933 -0.1268 -0.1805 -0.1131
18844W        W34918   3.165  10.743  15.091 -0.0995 -0.1953 -0.0722
18845W        W34919   4.279   1.524   2.597 -0.2213 -0.1307  0.1799
18846W        W34920   9.853  15.865  15.342  0.4280 -0.2271 -0.0912
18847W        W34921  16.435   3.923   0.897  0.1023 -0.2473  0.1305
18848W        W34922  15.189   5.557  14.660  0.0702  0.0682 -0.1658
18849W        W34923   9.918  14.452   0.515 -0.1120 -0.3465 -0.2915
18850W        W34924  15.018   2.013   5.134  0.0554 -0.1974 -0.2028
18851W        W34925   0.212   4.656   1.420  0.0022  0.0415 -0.0262
18852W        W34926  14.273   5.676  11.450  0.0292 -0.0935  0.0948
18853W        W34927   0.762   6.325   3.475 -0.2537  0.0803  0.0825
18854W        W34928   4.280  16.648  14.449  0.1099  0.2953  0.1947
18855W        W34929  14.576  17.126  16.397  0.2989  0.1533  0.0288
18856W        W34930   2.646   0.639  13.711 -0.0562 -0.1498 -0.1529
18857W        W34931  14.418   6.851  12.400 -0.1006 -0.0994 -0.1152
18858W        W34932   3.678   3.410   2.192  0.3350  0.1952  0.4093
18859W        W34933   2.918   3.821   5.586 -0.2250  0.2957  0.1123
18860W        W34934  13.515  15.684  11.793 -0.0784  0.2395 -0.0579
18861W        W34935   5.028   4.661   4.855 -0.0127  0.1565  0.0095
18862W        W34936  11.548  16.337   3.830  0.0002  0.3312 -0.0191
18863W        W34937   3.183   2.517   1.293 -0.0694  0.0246 -0.1014
18864W        W34938   5.324   6.463   0.443 -0.1259 -0.2807 -0.0176
18865W        W34939  17.017   1.111  11.785 -0.2029 -0.0728  0.2356
18866W        W34940   5.746   5.880   4.422  0.0990  0.0756 -0.2490
18867W        W34941   5.163  14.172   4.606  0.2223  0.1105 -0.0014
18868W        W34942   0.270   7.518  16.205 -0.1400  0.2448 -0.0722
18869W        W34943   4.258   6.438   2.751  0.2928 -0.3211  0.0126
18870W        W34944  17.406   1.981   4.236 -0.0385  0.0844  0.2187
18871W        W34945  16.013   0.475  13.809  0.0795  0.2368 -0.1224
18872W        W34946  12.925   0.253   3.551  0.1479  0.2277 -0.1526
18873W        W34947   2.486   2.704  16.249  0.3383  0.1607 -0.1471
18874W        W34948   8.739   1.959   2.915 -0.1386 -0.0709  0.2573
18875W        W34949  11.469   1.522  11.384 -0.1681  0.4463 -0.1128
18876W        W34950   0.157  15.934   1.136 -0.1421  0.1166 -0.1041
18877W        W34951   3.601  11.694  12.542 -0.3225 -0.0936 -0.1875
18878W        W34952  17.161  12.947  12.477 -0.1360 -0.1326  0.4488
18879W        W34953   2.282   7.681   0.839 -0.1245 -0.0541 -0.1648
18880W        W34954   2.996   7.145   0.902  0.2203  0.3719 -0.1409
18881W        W34955  18.091  11.001   2.637 -0.0056 -0.0882  0.0783
18882W        W34956   3.239   2.748   5.094 -0.1895  0.0674  0.0664
18883W        W34957  14.837  12.012  13.862  0.2682 -0.1527  0.0511
18884W        W34958  11.572   4.763  11.597  0.2015  0.0123 -0.0260
18885W        W34959  10.401  18.063  12.513 -0.1822 -0.1237  0.1664
18886W        W34960   6.500   3.248  13.969 -0.0847 -0.0294  0.0520
18887W        W34961   2.282   4.297   0.440 -0.3674  0.3000  0.1052
18888W        W34962   7.641  14.980  15.649  0.1325  0.0724 -0.0624
18889W        W34963   0.575   7.303   4.603 -0.1071  0.1189  0.1173
18890W        W34964   8.380   9.548   3.338  0.2140 -0.4593 -0.0225
18891W        W34965  14.712   4.757   3.207  0.1621 -0.0144  0.0183
18892W        W34966  13.052   6.155   1.473  0.2088 -0.2266  0.1345
18893W        W34967   5.769  11.667  13.986 -0.1765  0.2019  0.2033
18894W        W34968  11.137   1.296  11.712 -0.4907 -0.0508 -0.0887
18895W        W34969   1.598   5.119   2.546 -0.0457 -0.0278 -0.2798
18896W        W34970   5.905  16.316  16.103  0.1642 -0.3662 -0.0646
18897W        W34971  13.965   5.005   4.029 -0.1067  0.1081 -0.0296
18898W        W34972   9.065   1.512   0.773  0.2035 -0.0642 -0.0830
18899W        W34973  14.361  11.095   1.359  0.0015 -0.3742 -0.0560
18900W        W34974   9.852   0.678  11.789  0.2322  0.2125 -0.0133
18901W        W34975   9.986   0.888  13.610 -0.0654 -0.0581  0.1687
18902W        W34976  13.148  16.148  12.874  0.1694  0.1702 -0.1358
18903W        W34977  13.960   5.507  15.988  0.3716 -0.1121  0.1144
18904W        W34978  14.494   7.996   0.136  0.2102  0.1248 -0.0315
18905W        W34979  15.766   1.105  15.272  0.0990 -0.1906  0.1016
18906W        W34980   6.270   9.336   3.818 -0.0583 -0.3600 -0.2414
18907W        W34981  12.316  14.160   4.212  0.2574 -0.1362 -0.0706
18908W        W34982   4.935   4.896  13.412  0.2309  0.2194  0.1472
18909W        W34983  11.044   9.883  15.334  0.0597  0.1999 -0.3837
18910W        W34984  12.415  14.463  12.432 -0.0915 -0.0631  0.0802
18911W        W34985   0.765  13.499  14.631 -0.2203  0.1207 -0.0379
18912W        W34986  16.507   9.747   3.607  0.1260 -0.2361 -0.2172
18913W        W34987   9.229   0.092  12.913 -0.1585  0.0253  0.1687
18914W        W34988   0.529  13.775  13.580 -0.0466 -0.1590  0.0837
18915W        W34989   3.449   0.755   4.787  0.0612  0.2293  0.0710
18916W        W34990  10.793  16.561   2.254  0.0738  0.1934 -0.2355
18917W        W34991  15.032  14.510   0.600  0.1446 -0.2431 -0.1926
18918W        W34992  14.400   0.019  15.589 -0.1408  0.2011 -0.1864
18919W        W34993   9.280   8.392   0.788  0.3786 -0.1590  0.3805
18920W        W34994   6.827  15.642  15.053  0.2343 -0.2098 -0.0394
18921W        W34995  14.383  17.267  15.920 -0.0488  0.1642 -0.1222
18922W        W34996  13.897  11.713   6.076 -0.2031 -0.3703 -0.1107
18923W        W34997  10.874  10.587   4.899  0.4747 -0.0474  0.2099
18924W        W34998  13.104   4.612  14.605 -0.2192  0.1496 -0.5368
18925W        W34999  13.111   5.979  11.863 -0.1458 -0.2440 -0.1755
18926W        W35000  15.359  15.948   2.565 -0.0896 -0.2776  0.1673
18927W        W35001   3.411   0.035   3.424  0.2448  0.3402 -0.2860
18928W        W35002   8.845  15.967  15.791 -0.0233 -0.1345 -0.1323
18929W        W35003  15.926  13.279  14.702  0.1493 -0.0558 -0.0702
18930W        W35004  12.217  17.703  11.832  0.0285 -0.0568 -0.0528
18931W        W35005   6.033   5.071   1.633 -0.0659 -0.4093  0.1212
18932W        W35006   9.035  18.029  11.725 -0.4655  0.0915 -0.0171
18933W        W35007   3.370  18.210  14.454 -0.1274 -0.0268 -0.1232
18934W        W35008  10.611  12.379  13.118  0.1481  0.0469  0.1184
18935W        W35009  17.261  12.117   5.478  0.0217  0.3410  0.1613
18936W        W35010  12.819   9.120  14.322 -0.2250  0.3160 -0.3095
18937W        W35011   2.681   4.016   5.182  0.0830  0.2106  0.2138
18938W        W35012   8.535   1.798  16.197 -0.0686  0.0722  0.1472
18939W        W35013  14.677   4.639   5.081 -0.1605  0.3940  0.1806
18940W        W35014  15.661  15.995   1.471 -0.4043  0.2612  0.1870
18941W        W35015   3.956  15.659  14.070  0.1945 -0.0922  0.1105
18942W        W35016  14.313   2.982   3.799 -0.1189  0.0102  0.0486
18943W        W35017   4.025   2.054  16.043 -0.3511  0.2835 -0.0513
18944W        W35018  14.753   2.507  12.560 -0.0753  0.2026 -0.2269
18945W        W35019   9.588   6.318  16.154  0.1561 -0.0591  0.1685
18946W        W35020   4.528   9.910   3.430 -0.0177 -0.0391  0.0393
18947W        W35021  10.953   4.679   0.561  0.1329  0.0999 -0.0623
18948W        W35022  13.422   1.122   0.475 -0.0061  0.0060 -0.3483
18949W        W35023  11.198   8.900   3.096  0.0916  0.1200  0.0842
18950W        W35024   3.394  15.391  11.221 -0.1587  0.2025  0.0391
18951W        W35025  17.327   3.919  14.415  0.2379  0.1163  0.0842
18952W        W35026   3.898   9.183   3.026 -0.1305  0.0146  0.2136
18953W        W35027   7.476   8.878   2.189 -0.0899 -0.1413 -0.3490
18954W        W35028   8.768   5.105   4.866  0.0538 -0.2365 -0.0761
18955W        W35029  10.295  14.072   0.172 -0.0413  0.1545 -0.1688
18956W        W35030  14.322   2.512   1.144  0.0202  0.0459  0.2192
18957W        W35031   7.569   4.114   3.065 -0.0150 -0.2969  0.0122
18958W        W35032   1.510  14.342  11.088  0.1083  0.0200 -0.2515
18959W        W35033  16.612   0.902  12.787  0.4162  0.0677 -0.1225
18960W        W35034   3.469   7.923   3.084  0.0673 -0.0602  0.2248
18961W        W35035   1.146   5.894  11.285  0.0212  0.1581  0.0786
18962W        W35036   1.267   1.159  14.447 -0.1219  0.1609 -0.1873
18963W        W35037  15.094  12.036  12.142 -0.2121 -0.3297 -0.4171
18964W        W35038  16.795   2.293  14.167  0.0177  0.2809  0.1328
18965W        W35039   7.430   6.811  11.584 -0.1907 -0.2049 -0.0170
18966W        W35040   4.441  15.040  13.284 -0.0770 -0.0190  0.0924
18967W        W35041   1.958  14.294   0.983 -0.0420 -0.1976 -0.2671
18968W        W35042  16.896   6.736  13.783  0.2577  0.0632 -0.0066
18969W        W35043  13.018  16.635   1.037  0.1355 -0.0626  0.0297
18970W        W35044  18.073  17.557   1.910 -0.3151  0.1829 -0.5122
18971W        W35045  11.280  11.779   1.119 -0.0806  0.0928  0.2035
18972W        W35046  16.364  14.511  11.782  0.0213 -0.3489 -0.0370
18973W        W35047  15.796  10.993   0.445  0.0126 -0.1051 -0.0524
18974W        W35048   5.747   0.045  16.327  0.0348 -0.2604  0.1142
18975W        W35049  15.793   3.048  12.501 -0.1214 -0.0974  0.2480
18976W        W35050   6.407   7.313   1.015  0.0832 -0.3504 -0.4347
18977W        W35051  15.177  14.945   1.801 -0.0101  0.0084 -0.3038
18978W        W35052   7.676  10.325   5.027 -0.0657 -0.0582 -0.0370
18979W        W35053  12.690  10.998   0.264 -0.1494 -0.2134 -0.0065
18980W        W35054   5.293  10.232   2.927 -0.1673 -0.0717  0.1568
18981W        W35055   5.044   8.595   0.712  0.1267  0.2830  0.0149
18982W        W35056   9.533   2.962  11.937  0.1480  0.1715  0.0202
18983W        W35057   5.270   1.930   5.929  0.0511  0.1441 -0.0569
18984W        W35058   7.865   5.103  11.304  0.0717 -0.1743 -0.0973
18985W        W35059   7.243  18.202   3.001 -0.2651  0.1728  0.5133
18986W        W35060  11.085   1.571   3.908 -0.0574 -0.5036  0.0585
18987W        W35061   9.609  10.515   3.363  0.1769 -0.1402 -0.3431
18988W        W35062   6.859  11.567   2.166  0.1073  0.1687 -0.1444
18989W        W35063  13.613   1.408   0.906  0.2550  0.0400 -0.1762
18990W        W35064   8.415  14.657  11.425  0.1098  0.1932 -0.3759
18991W        W35065  14.228  16.247   4.347  0.0512  0.2151  0.1061
18992W        W35066  15.613   0.781   1.688  0.2319  0.1118  0.2709
18993W        W35067  10.491  14.785   3.319  0.1994  0.1111 -0.0581
18994W        W35068   0.061   5.579  12.058 -0.3499  0.1399  0.1700
18995W        W35069  15.994   2.316  16.139 -0.0367  0.1879  0.0434
18996W        W35070  11.495   6.305  16.498 -0.0093  0.0030 -0.0064
18997W        W35071  16.392   9.656  11.644  0.0596 -0.2328 -0.0746
18998W        W35072  16.789  13.442   1.546 -0.2106 -0.5846 -0.0452
18999W        W35073   1.892   7.141   5.363 -0.1026 -0.3190 -0.2361
19000W        W35074  11.750   6.501  13.631 -0.1281  0.0560  0.0027
19001W        W35075   7.348  11.383   4.968 -0.0831  0.2435 -0.1109
19002W        W35076   6.969   0.597   4.683 -0.1343 -0.0341  0.0401
19003W        W35077   8.693  15.402   0.667  0.1021 -0.1213 -0.3979
19004W        W35078   5.087  17.463  15.779  0.2304 -0.0155 -0.1255
19005W        W35079  13.836   6.415   2.550  0.3247  0.2844 -0.0497
19006W        W35080   1.172   3.707  10.838  0.0426 -0.1744  0.1367
19007W        W35081   7.754   2.754   3.916  0.0955  0.3047 -0.1553
19008W        W35082  16.777  11.046   5.072  0.2776  0.1841  0.0105
19009W        W35083  16.068  15.384   3.485 -0.1509  0.1488  0.0045
19010W        W35084   6.046  14.053  12.732  0.1171 -0.2345  0.1311
19011W        W35085   5.268  14.177   3.431 -0.1990  0.1180  0.2141
19012W        W35086  15.651  14.663  16.504  0.0630  0.1087  0.3667
19013W        W35087  17.485   8.686  15.231  0.0096  0.0026 -0.2221
19014W        W35088   1.583  12.390   1.338  0.2519 -0.1392  0.0357
19015W        W35089  14.852  12.289  16.412  0.0306 -0.0003 -0.2094
19016W        W35090  14.242  16.343   1.647 -0.1876  0.4056  0.0102
19017W        W35091  14.290  14.921   3.243  0.0378 -0.1552  0.3433
19018W        W35092   8.741  15.886   3.310 -0.1227  0.3586  0.1362
19019W        W35093  11.767   8.515  12.986  0.0014  0.1821 -0.0631
19020W        W35094  13.937  16.829  15.892  0.0100  0.3765 -0.0341
19021W        W35095  10.738   1.694  14.545 -0.0054 -0.3451  0.4378
19022W        W35096   8.631  17.625  14.722 -0.0319  0.5462  0.2961
19023W        W35097   0.246  10.062  13.376 -0.1052  0.0508 -0.2539
19024W        W35098  12.090   6.607   3.739 -0.0537 -0.3659 -0.3221
19025W        W35099  11.926  13.247  14.775 -0.0119 -0.3209  0.1499
19026W        W35100   1.918  10.509  14.696  0.2705  0.1671  0.1612
19027W        W35101   1.371   3.095  14.420 -0.1870 -0.2558 -0.1544
19028W        W35102   7.949  17.790   3.418  0.1715 -0.3714  0.2062
19029W        W35103   7.896  17.495   2.015  0.2181 -0.2154 -0.0212
19030W        W35104   2.753  13.241  12.589  0.3116 -0.0168  0.0919
19031W        W35105   5.604   9.074  15.482 -0.0469  0.3055  0.2642
19032W        W35106   9.669  13.988  12.100 -0.3311 -0.0732 -0.1992
19033W        W35107   2.879  12.130   1.874  0.0995  0.0845 -0.0229
19034W        W35108  12.157  14.840   5.193 -0.0641  0.2908 -0.0880
19035W        W35109  11.284  15.165  12.139  0.0634  0.1216 -0.2196
19036W        W35110   1.151   8.969   4.521 -0.1558  0.1550  0.3711
19037W        W35111  15.830  15.565  12.550 -0.1038 -0.0551  0.1630
19038W        W35112  14.856   1.944   0.727  0.2865 -0.2183  0.0267
19039W        W35113   6.896  11.157  13.763  0.1813  0.1762  0.0347
19040W        W35114  13.414   3.313   5.447  0.0426  0.1064 -0.2459
19041W        W35115  12.923   8.053   0.209 -0.1257  0.0606 -0.1639
19042W        W35116  16.794   3.028  16.328  0.2397 -0.0234 -0.2509
19043W        W35117   3.718   8.380  13.907 -0.1437  0.0646  0.3666
19044W        W35118   8.983   1.572   3.276  0.1087  0.0875  0.0227
19045W        W35119  14.204   5.122   1.163 -0.0090  0.1011  0.1855
19046W        W35120   7.600  15.287  12.313  0.0946 -0.1765  0.0993
19047W        W35121   8.354   6.645  14.178 -0.0368  0.1743 -0.1734
19048W        W35122  17.593   5.797  12.694 -0.2933  0.0152 -0.1793
19049W        W35123  13.280   7.966   4.214 -0.1088 -0.0407 -0.3596
19050W        W35124   3.078  16.624  13.371  0.2344  0.0047 -0.2671
19051W        W35125  16.665   9.475  12.830  0.4706 -0.1658  0.2634
19052W        W35126   9.225   0.657  15.844 -0.3285 -0.1862  0.0266
19053W        W35127   9.168  11.576   2.617 -0.0240 -0.4817  0.2245
19054W        W35128  16.090   0.726   5.485 -0.1588  0.3070  0.2261
19055W        W35129   8.184  10.609   2.382 -0.1498  0.0438  0.2046
19056W        W35130   9.084  10.207   1.154  0.1306  0.1192 -0.1829
19057W        W35131  10.482   4.921   4.050 -0.0078  0.1004  0.2108
19058W        W35132   8.503  15.948   4.649 -0.0908  0.2101  0.0787
19059W        W35133  12.363  12.687  12.314 -0.1717 -0.0130 -0.1287
19060W        W35134   4.960  15.040  14.205  0.0362 -0.1822 -0.0886
19061W        W35135   9.514  16.504   3.127  0.2102 -0.0594 -0.1994
19062W        W35136  14.358   8.190  14.909 -0.0130  0.1200 -0.2541
19063W        W35137  16.926   5.845   1.321  0.1663 -0.2850  0.0690
19064W        W35138  12.918   8.320   5.950  0.2005 -0.0867 -0.1470
19065W        W35139  15.546   3.807  16.218 -0.1780  0.0781  0.0790
19066W        W35140   6.939   3.430   3.109  0.2675 -0.2858  0.1914
19067W        W35141   8.985  13.448   3.409  0.1493  0.0296 -0.0213
19068W        W35142   9.356  15.118   5.417  0.1140 -0.3878  0.0610
19069W        W35143   4.424   4.393  14.945 -0.0884  0.0262  0.3714
19070W        W35144   9.066   4.673   5.027 -0.1834 -0.1038  0.2592
19071W        W35145  11.969  16.305  14.695  0.1489  0.2822 -0.0637
19072W        W35146  11.758  10.390  12.919 -0.0384 -0.1909  0.0085
19073W        W35147  16.755  17.552  15.763 -0.0863  0.0814 -0.2104
19074W        W35148  16.511   7.055   3.932 -0.1228 -0.1855 -0.5416
19075W        W35149  16.994  10.942   2.465 -0.0874 -0.2828  0.2196
19076W        W35150  11.541   5.760   2.423  0.0397  0.0441  0.1231
19077W        W35151   6.860   2.238  15.393 -0.1224 -0.0889  0.1252
19078W        W35152   0.129  10.622   4.919 -0.0818 -0.3666 -0.1359
19079W        W35153  15.915  13.816  16.049 -0.0563 -0.1298 -0.3573
19080W        W35154  17.302  15.952   2.176  0.0731 -0.0471 -0.2364
19081W        W35155  15.899   5.977  16.442  0.3136  0.0525  0.1458
19082W        W35156  13.647   3.067   4.458 -0.1461  0.2820  0.1874
19083W        W35157  13.478  11.604   1.410 -0.0211  0.0169 -0.1132
19084W        W35158  11.910   2.950   2.023  0.0370  0.3244 -0.0064
19085W        W35159   1.389   6.837   5.464 -0.1774 -0.0570  0.2361
19086W        W35160   6.845  11.622   4.171 -0.2259  0.2889 -0.0378
19087W        W35161  14.626   4.906  12.987 -0.2350 -0.1176  0.2047
19088W        W35162   4.177   8.584  15.692  0.0025 -0.0101  0.2588
19089W        W35163  11.378   6.982   2.522 -0.2192 -0.2993  0.2863
19090W        W35164   6.106   3.663   0.486  0.0680 -0.0143 -0.0786
19091W        W35165  18.179   1.101   1.155 -0.3711 -0.0717  0.0716
19092W        W35166  13.105  18.127  15.143 -0.0380 -0.2557  0.0619
19093W        W35167  10.178   6.101  12.977  0.0701 -0.1281 -0.1506
19094W        W35168  13.414   9.706   5.159 -0.1834 -0.2314 -0.0755
19095W        W35169  13.618  14.183  12.544 -0.1146 -0.2711 -0.0091
19096W        W35170   8.489  14.176  15.365  0.0297  0.2604  0.0263
19097W        W35171  10.837   4.312   2.927  0.0660  0.1125 -0.2079
19098W        W35172   4.685   1.137  15.942 -0.2580  0.1054 -0.0226
19099W        W35173  10.060  11.060   3.914 -0.4228 -0.6249 -0.1464
19100W        W35174  13.675  16.700  15.072  0.3254  0.0119  0.1919
19101W        W35175   5.738   2.197  13.475  0.2171  0.0464  0.1573
19102W        W35176   7.837   7.303  14.354  0.2983 -0.0312 -0.3261
19103W        W35177   2.681   4.027   3.312  0.1018  0.2401 -0.0727
19104W        W35178   0.741   9.542  14.135  0.0782 -0.1554 -0.2868
19105W        W35179   6.036   6.237   0.256 -0.2888  0.0083  0.0729
19106W        W35180  12.520  10.047  13.909 -0.0757  0.1481  0.2079
19107W        W35181  12.609  10.999   3.722  0.2309  0.0525 -0.3345
19108W        W35182   2.461   2.782   4.493 -0.0875  0.0991  0.2473
19109W        W35183   2.992  18.222   4.353 -0.3107 -0.4259 -0.1147
19110W        W35184   7.186   1.653   3.654  0.0308  0.0934 -0.3645
19111W        W35185  12.418  15.611  16.176  0.2453 -0.0487  0.0428
19112W        W35186   8.485   9.182  11.945  0.1735  0.0206  0.1088
19113W        W35187  12.412   1.324  15.787  0.2026 -0.1778 -0.1679
19114W        W35188   4.259   3.771   3.905 -0.1242  0.2692  0.2257
19115W        W35189   2.443   4.045   2.492  0.2017 -0.1882 -0.1733
19116W        W35190   0.340   0.649  13.511  0.2792  0.3053 -0.2984
19117W        W35191  13.452  15.325   3.655 -0.1429  0.3075  0.2463
19118W        W35192  17.674  16.561  11.322  0.3117  0.1076  0.6849
19119W        W35193  17.664   6.092  14.141  0.3109 -0.1061 -0.0234
19120W        W35194  15.740   7.028   2.347 -0.1357 -0.1594  0.1397
19121W        W35195   5.619  13.574   4.331  0.3257  0.2903  0.3030
19122W        W35196   7.117  17.517  11.986  0.0775 -0.0030 -0.0430
19123W        W35197   0.585  12.621   2.453  0.0824  0.1313 -0.2320
19124W        W35198   5.335  15.281  10.534  0.3699  0.0490 -0.0227
19125W        W35199   8.850   7.934  12.262 -0.0646 -0.0829  0.3059
19126W        W35200   8.025  15.394  13.604 -0.0019 -0.1135 -0.0617
19127W        W35201   3.981   7.250   5.927 -0.0270  0.1737 -0.1058
19128W        W35202  16.285   6.703   4.590 -0.2390  0.0084 -0.0592
19129W        W35203   9.407   1.063   0.916  0.0319  0.1276 -0.1758
19130W        W35204   9.018   2.774  14.425  0.0957  0.1213  0.0307
19131W        W35205   8.373  17.544   1.918  0.0661  0.1365 -0.3328
19132W        W35206  17.933  17.314  12.456 -0.2654 -0.0045 -0.0416
19133W        W35207   4.824  12.777   5.941  0.1548  0.0985 -0.1219
19134W        W35208  15.022   0.434  16.050  0.1496 -0.0331 -0.0661
19135W        W35209  17.899  14.609  14.591  0.2570  0.1561  0.1345
19136W        W35210  13.984   3.848  12.609 -0.2137  0.1854 -0.2223
19137W        W35211  15.379   5.823  12.891  0.4566  0.2014 -0.0418
19138W        W35212  10.809  12.239   3.677 -0.0930  0.6180 -0.3526
19139W        W35213   5.265  15.277   5.026  0.2044 -0.1270  0.0825
19140W        W35214  13.426  10.696   2.492 -0.0380  0.1374  0.1344
19141W        W35215   5.430   9.373  14.716 -0.0194 -0.0774  0.1929
19142W        W35216   3.618   9.844  13.403  0.2511  0.0399 -0.2014
19143W        W35217  15.617   3.778   3.866 -0.2030  0.2737 -0.3183
19144W        W35218   4.350  16.203  15.117  0.1142 -0.2772  0.1501
19145W        W35219  15.597   9.093  12.083  0.2670 -0.2465 -0.2242
19146W        W35220  11.685   8.072   4.053  0.0798 -0.1176 -0.0725
19147W        W35221   5.837  10.081  13.899  0.1435  0.1308  0.1048
19148W        W35222  17.600  13.502  11.892  0.2038 -0.1924  0.3165
19149W        W35223   3.761  13.409  15.991 -0.2119 -0.0541 -0.2002
19150W        W35224  14.440   7.366  13.887  0.3146  0.1391  0.1162
19151W        W35225  14.438   0.902  13.391 -0.0138 -0.1723 -0.1276
19152W        W35226   8.326  11.369   0.888  0.0973 -0.0901  0.1582
19153W        W35227  17.546  18.050   0.896  0.0929  0.0559  0.1696
19154W        W35228   3.183  16.149  10.952 -0.2104  0.0818 -0.1324
19155W        W35229  16.832   7.695  14.837  0.0284  0.1984 -0.2091
19156W        W35230   2.717   3.906   3.804 -0.1064  0.0005 -0.0013
19157W        W35231   7.634   5.367  15.407  0.0240 -0.0085 -0.1688
19158W        W35232   5.127  13.376  16.266 -0.0547 -0.2928  0.0113
19159W        W35233  13.686   5.228  11.506 -0.0218  0.1389 -0.1746
19160W        W35234   7.239   1.448   2.272  0.2103 -0.0060 -0.0070
19161W        W35235  17.365  17.925  11.635  0.2074  0.1994 -0.0721
19162W        W35236   9.778  15.516   1.053  0.1633  0.1143 -0.0106
19163W        W35237  14.306  17.151   2.766 -0.3052 -0.1723  0.2775
19164W        W35238  15.815  11.061  14.286 -0.0373 -0.2403 -0.1663
19165W        W35239  10.605   7.791   4.179 -0.1643 -0.1505  0.3473
19166W        W35240   4.125  11.807   4.255  0.1470 -0.1501  0.0383
19167W        W35241  17.544  12.681  14.780  0.3604 -0.1557  0.1787
19168W        W35242   2.328   7.992  12.865  0.3569  0.0691  0.2364
19169W        W35243   0.707   1.052   2.505  0.1852 -0.0744  0.0842
19170W        W35244  15.928   3.088  16.092 -0.2576 -0.1354  0.0833
19171W        W35245  18.162   4.901  15.486  0.2000 -0.1426 -0.2084
19172W        W35246  16.369  11.874   5.394  0.4682 -0.0521 -0.1170
19173W        W35247  18.218  17.417   0.282 -0.0858  0.0130  0.1835
19174W        W35248   8.604   0.546   0.335  0.1489 -0.3964  0.2403
19175W        W35249   7.470   6.683  12.815 -0.0932  0.3215  0.0493
19176W        W35250  11.490   8.665  14.588 -0.0377  0.0437  0.1841
19177W        W35251   4.185   4.539   4.715  0.0432  0.3580 -0.1733
19178W        W35252   3.615  10.859   2.150 -0.0097  0.1266 -0.0563
19179W        W35253   5.361  12.606  14.922  0.0681  0.1367  0.0541
19180W        W35254   4.758  12.552  12.292  0.1763 -0.3972  0.0577
19181W        W35255  11.081  10.922   1.567  0.2819  0.1268 -0.3053
19182W        W35256   0.856  17.139  14.265 -0.2113 -0.1069 -0.0202
19183W        W35257   4.614  14.012   5.858 -0.1139  0.0404  0.2796
19184W        W35258  12.550   7.765   1.172 -0.5600 -0.0544 -0.0204
19185W        W35259  11.135  15.483   4.134  0.2241  0.1211  0.2217
19186W        W35260  18.100  16.921  14.733 -0.1779 -0.1132  0.0159
19187W        W35261   7.114   4.692   1.537 -0.3452  0.2668 -0.2637
19188W        W35262  11.747  16.847  11.915 -0.1060  0.0006 -0.0233
19189W        W35263  11.481  13.320   5.785  0.0865 -0.1098 -0.1551
19190W        W35264  16.953  13.566   2.885  0.0693  0.0471 -0.1578
19191W        W35265   4.006  17.597  13.412  0.0225 -0.1648 -0.2079
19192W        W35266  13.318   8.899  14.255 -0.0823  0.1215  0.2345
19193W        W35267   1.584   2.692   4.164  0.0417 -0.2839  0.0546
19194W        W35268  16.045  14.642   2.639  0.2023  0.0213 -0.7308
19195W        W35269   7.258   6.252  12.608  0.1756 -0.4704 -0.0626
19196W        W35270   5.376   5.683  14.756  0.0747  0.0816  0.2049
19197W        W35271   6.002  14.268  15.249  0.1686  0.1869  0.2624
19198W        W35272  10.943  13.900  11.547 -0.1347  0.2111 -0.3720
19199W        W35273   3.095  12.192  14.593  0.1595  0.0715 -0.1298
19200W        W35274  15.103  16.142   5.386  0.0633  0.1861  0.2117
19201W        W35275   4.127   2.605   1.159 -0.1080  0.2272 -0.0989
19202W        W35276  12.554  17.401  11.980 -0.3406 -0.1218 -0.0757
19203W        W35277  14.210  15.015   3.859  0.0116  0.0303  0.1725
19204W        W35278  15.029   7.793  12.287  0.1262  0.2435  0.1106
19205W        W35279   6.469   8.767  13.221  0.1602  0.0636  0.0391
19206W        W35280   4.991   9.771   4.503 -0.1843  0.2567 -0.2564
19207W        W35281  16.930   2.714  12.815  0.0793 -0.1059  0.3425
19208W        W35282  14.972   4.489  12.950 -0.2200 -0.0778  0.0034
19209W        W35283  13.991   3.795   2.535  0.0257  0.0820 -0.0481
19210W        W35284  12.702   1.889   2.628 -0.0476 -0.2882 -0.0325
19211W        W35285  15.459   9.028   1.813  0.0372  0.1956  0.2054
19212W        W35286   6.943   3.923   6.458  0.1022 -0.1276  0.4535
19213W        W35287   9.278  17.129  14.175  0.1448  0.1742  0.0760
19214W        W35288  14.085   7.278   1.143  0.1774  0.3177 -0.3131
19215W        W35289   9.575   7.028   0.335  0.5930 -0.1051 -0.0865
19216W        W35290   4.886  12.002   4.010  0.0529  0.3558 -0.1258
19217W        W35291   4.579   7.705   5.374 -0.1371  0.2749 -0.0413
19218W        W35292   3.404   8.004   4.117  0.2620  0.0331 -0.1371
19219W        W35293  16.938  15.767   0.737 -0.1711 -0.0116 -0.0992
19220W        W35294   3.472   5.523  14.290  0.0938  0.0046 -0.0331
19221W        W35295   2.996  18.019  14.700  0.1340  0.0898 -0.4298
19222W        W35296  15.095   2.784   0.769 -0.1682 -0.0749 -0.1727
19223W        W35297   8.370  17.245  12.030 -0.2793 -0.1537  0.0510
19224W        W35298  14.772   2.532  11.273  0.1906  0.0933  0.2323
19225W        W35299  11.760  11.122  12.179 -0.2270  0.1367 -0.2045
19226W        W35300  11.008   5.094   1.643 -0.1468  0.1158 -0.3443
19227W        W35301  14.917   3.593  12.679  0.1583 -0.1141 -0.2401
19228W        W35302   7.078   7.658   4.523  0.0307  0.0419  0.2274
19229W        W35303   7.248  16.733   2.058 -0.2177  0.1530 -0.1547
19230W        W35304  12.037  13.984   3.846  0.2430 -0.0301  0.0118
19231W        W35305   7.125  11.658   1.648  0.0602  0.0933  0.0247
19232W        W35306   8.833   0.254   5.418  0.0057 -0.0774 -0.1765
19233W        W35307  17.393  13.608  13.616 -0.4066  0.2745 -0.0742
19234W        W35308  15.233  12.446   5.284  0.0274 -0.1901 -0.0892
19235W        W35309  13.788   2.194   2.344  0.0769  0.2492  0.0243
19236W        W35310   7.753   2.652   0.800 -0.1493 -0.1620 -0.2384
19237W        W35311   3.044  17.254   5.920 -0.3372  0.0503 -0.0938
19238W        W35312  15.908  16.207  11.279 -0.0839 -0.0688  0.3974
19239W        W35313  13.140   7.265   1.408 -0.2798 -0.0554 -0.0326
19240W        W35314  14.131   0.331  12.084 -0.1688  0.0441 -0.1479
19241W        W35315   6.840   8.122  12.510  0.2849 -0.0223 -0.4228
19242W        W35316   1.996  17.378   0.990  0.0171  0.5615 -0.0882
19243W        W35317  12.138   6.456   3.061  0.0118  0.2832 -0.1865
19244W        W35318  16.618   7.780   3.654 -0.2977 -0.2029  0.0815
19245W        W35319  13.225  17.192  15.494 -0.1494 -0.0225 -0.1928
19246W        W35320  14.010  14.165   3.778  0.1345  0.1390  0.0634
19247W        W35321  13.398   1.293  15.025  0.1854 -0.0675 -0.4622
19248W        W35322  12.613   6.347  15.925 -0.1429 -0.0552 -0.0863
19249W        W35323  16.707   3.888  11.569 -0.3280 -0.1335 -0.4108
19250W        W35324   7.111   5.763   0.709  0.0318 -0.1449 -0.3801
19251W        W35325  16.122   6.350  16.225  0.0605  0.0518 -0.1997
19252W        W35326  17.205   8.851  14.229  0.0106 -0.1416 -0.1104
19253W        W35327   3.364  12.108   3.741  0.2227 -0.2596  0.1191
19254W        W35328  15.712   5.158  15.938 -0.1922  0.1165 -0.2950
19255W        W35329   3.238  16.894  11.033 -0.0594  0.2273 -0.1602
19256W        W35330   8.069   3.854   4.282 -0.1587  0.4665 -0.0160
19257W        W35331  14.259  10.225  15.958 -0.3967 -0.0518 -0.2123
19258W        W35332   9.523   0.443   6.394  0.0277 -0.1063  0.1099
19259W        W35333   0.522  13.241   5.001 -0.2571  0.0342  0.0597
19260W        W35334   3.820  12.932  13.025  0.0106 -0.0501  0.2633
19261W        W35335  16.735   3.201   4.082  0.4245 -0.0845  0.0579
19262W        W35336   9.845  11.661  13.943 -0.0507  0.1979  0.2102
19263W        W35337   8.350   9.339   1.039 -0.3890 -0.0656  0.2212
19264W        W35338   5.398  12.503  11.741  0.2780  0.0847 -0.2271
19265W        W35339  17.116   9.249   3.020  0.0200 -0.1969  0.1316
19266W        W35340   0.783   4.434   0.579 -0.2001  0.0237  0.1578
19267W        W35341  17.084   4.131  13.900  0.1832  0.1675  0.0204
19268W        W35342  13.411   8.750  13.233 -0.1206 -0.2719 -0.0980
19269W        W35343   9.581   8.434  12.647  0.2979  0.4324  0.0890
19270W        W35344  14.805   7.654   0.351 -0.0812  0.3072 -0.1350
19271W        W35345  15.251   3.449   4.056 -0.1120  0.0419  0.0330
19272W        W35346  17.905   9.990  14.301 -0.0911 -0.1048  0.4003
19273W        W35347  15.630  16.594  15.301 -0.0618  0.0000 -0.0337
19274W        W35348   3.134   8.291  14.386 -0.1524  0.0292 -0.3901
19275W        W35349   7.870   1.381  14.163  0.2858 -0.0325 -0.3953
19276W        W35350   5.652  13.301  13.892 -0.2535 -0.0769 -0.1040
19277W        W35351   4.490   6.865   4.278 -0.1144 -0.1930 -0.0947
19278W        W35352  10.858  18.004   0.673 -0.0476 -0.1089  0.2246
19279W        W35353   6.456  15.617   4.677  0.2028 -0.0152  0.0429
19280W        W35354  16.031  14.555   5.098 -0.2713 -0.1668 -0.2013
19281W        W35355  14.060   4.413   4.784 -0.0229 -0.1323 -0.3737
19282W        W35356   0.954  12.355   4.855  0.3414 -0.0809 -0.0120
19283W        W35357  12.310  17.369  14.245  0.2700  0.1261 -0.2344
19284W        W35358   7.526   2.326   3.778 -0.2833 -0.1266 -0.0543
19285W        W35359   7.732  16.584  14.998  0.0197 -0.1629  0.0436
19286W        W35360   9.429   3.364  16.114 -0.5047 -0.3250  0.0053
19287W        W35361   9.644  17.233   1.341  0.1969  0.1388  0.0707
19288W        W35362   2.425  15.934   0.962  0.0298 -0.3724  0.2692
19289W        W35363  14.730   5.878   4.874 -0.0299 -0.0694  0.1558
19290W        W35364   3.291   2.333  13.143 -0.0041 -0.1910  0.0295
19291W        W35365  16.281   8.889  16.328 -0.0011 -0.3045  0.0428
19292W        W35366   3.607   9.705   2.355 -0.0843  0.3823 -0.1195
19293W        W35367  16.151   3.633  15.029 -0.1847 -0.1118 -0.1693
19294W        W35368   9.830  13.166   1.818  0.0491 -0.0693 -0.0795
19295W        W35369  13.091  16.602   2.867 -0.1038  0.1393 -0.3198
19296W        W35370  15.089  16.662   4.828 -0.2048  0.1572  0.0920
19297W        W35371   2.855  10.452  13.920  0.0207  0.1144  0.4061
19298W        W35372  15.940   8.336  13.225  0.2021 -0.0879 -0.4264
19299W        W35373   4.889  16.291   1.412 -0.0007  0.1577 -0.1123
19300W        W35374   7.579  17.382  13.423 -0.0643 -0.2309 -0.2536
19301W        W35375   7.496  14.255   3.905 -0.1229 -0.3080  0.1791
19302W        W35376   3.659   7.601   1.672  0.1554  0.1430 -0.2999
19303W        W35377  13.960   1.048  12.450  0.0122 -0.0685  0.4019
19304W        W35378   6.377  15.702   3.350 -0.2628 -0.1580  0.1572
19305W        W35379  17.325   8.196  12.951 -0.1683 -0.1303 -0.3642
19306W        W35380  13.263   6.531   0.660 -0.2804  0.4189  0.0404
19307W        W35381   9.834  17.860  13.614 -0.3199  0.1319 -0.1855
19308W        W35382  10.045  17.665  16.339  0.1118 -0.4453  0.3014
19309W        W35383   0.635  17.929  15.394 -0.0432  0.0668  0.2050
19310W        W35384  14.664  13.494   2.577 -0.2909 -0.0272 -0.0739
19311W        W35385  13.742   7.547  14.985 -0.0788 -0.4615  0.1113
19312W        W35386   4.470  16.175   0.924  0.3729 -0.0030 -0.1135
19313W        W35387  17.306  11.072  11.727 -0.1316  0.3695  0.2087
19314W        W35388  10.753  16.888   4.589  0.1227 -0.0188  0.0250
19315W        W35389  10.239  10.060  14.647 -0.2871  0.1572 -0.1448
19316W        W35390  13.292  11.278   2.382 -0.0013  0.3554  0.0251
19317W        W35391   4.893   2.040   2.692  0.0975  0.0303 -0.3081
19318W        W35392  13.762   6.420   3.861  0.3436  0.0623  0.1160
19319W        W35393   8.862   7.381   4.515  0.0628 -0.2456  0.0994
19320W        W35394   0.893   7.158  11.535 -0.1170 -0.1912  0.1961
19321W        W35395  16.017   8.151   0.417  0.1105  0.3371  0.0599
19322W        W35396   6.207  11.008  14.956 -0.0161 -0.0956  0.0682
19323W        W35397   0.835  15.377  13.956  0.1699  0.3661 -0.1857
19324W        W35398  14.321   2.496   4.256 -0.2626  0.0365 -0.1075
19325W        W35399   9.875  15.955  11.897  0.2207  0.1381 -0.0473
19326W        W35400  14.737  11.791  16.073 -0.0544  0.1231  0.2592
19327W        W35401  10.074  15.892  13.133 -0.0724 -0.0042  0.2546
19328W        W35402   8.109  10.818   0.925 -0.2212 -0.0633  0.0218
19329W        W35403  17.024   5.865  13.550 -0.1363 -0.0731  0.0865
19330W        W35404   2.257  13.647   3.320 -0.1771  0.0773  0.4715
19331W        W35405   4.492  12.518   2.340 -0.2577  0.1553  0.1697
19332W        W35406  16.264  15.868   3.663 -0.3874  0.0200 -0.2561
19333W        W35407  10.811  12.542  14.214 -0.0565 -0.1293 -0.3687
19334W        W35408   0.375  10.600   1.506 -0.5069  0.0231 -0.4379
19335W        W35409   4.310   0.472  11.204 -0.1724 -0.0012 -0.1593
19336W        W35410  17.694   6.227  14.682 -0.0082  0.0581 -0.3500
19337W        W35411   9.347   4.076   0.260 -0.1557  0.1280 -0.1570
19338W        W35412  12.995   0.937   5.037  0.0851  0.0457 -0.0286
19339W        W35413  11.856  17.807  14.864 -0.0724  0.1024 -0.0455
19340W        W35414  14.296   9.020  16.420  0.0894  0.0576  0.2885
19341W        W35415  14.773  10.555   6.136 -0.2081  0.1332 -0.2152
19342W        W35416   9.617   6.062  11.965  0.0897 -0.1647  0.0922
19343W        W35417   5.070  13.822   5.036 -0.1894  0.3599  0.2504
19344W        W35418   3.722   1.452  13.997 -0.2647 -0.2237  0.0653
19345W        W35419   9.238  16.689  15.103  0.2372 -0.2591  0.4630
19346W        W35420   5.946  14.518   4.100 -0.0736 -0.5489 -0.1079
19347W        W35421  16.098   3.422   3.849  0.0582  0.0287 -0.1268
19348W        W35422  10.046  17.755   0.513  0.2489 -0.2318 -0.0091
19349W        W35423  10.740   0.502   1.794  0.1177  0.1727  0.2031
19350W        W35424  17.817   6.017  15.421  0.4090 -0.0757 -0.0280
19351W        W35425  13.818   6.377  13.819  0.2522  0.1078  0.1782
19352W        W35426   0.824   1.427  12.356 -0.0684 -0.1662  0.1415
19353W        W35427   9.674  14.669   5.335  0.2208 -0.0898  0.0436
19354W        W35428  12.496  13.327   3.875 -0.1267  0.2232  0.0482
19355W        W35429   5.094   6.115   4.505 -0.1206 -0.2720 -0.1397
19356W        W35430   3.248   4.057   2.853 -0.2629  0.0050 -0.1239
19357W        W35431  10.147   0.806  16.135  0.1119  0.1347 -0.0323
19358W        W35432   8.460   3.516  14.278  0.0971 -0.1691 -0.0916
19359W        W35433  14.550   2.643   4.695  0.4393  0.1232 -0.1720
19360W        W35434   4.090   0.426  11.983  0.0557 -0.2904 -0.0653
19361W        W35435  11.654  13.593   0.398  0.2759  0.1630 -0.0174
19362W        W35436  15.745   3.712  13.900  0.0009  0.1570 -0.1142
19363W        W35437  10.759  10.612  12.923 -0.0216  0.3731 -0.1456
19364W        W35438   8.213  16.973   1.641  0.3114  0.1307 -0.2482
19365W        W35439   2.635   4.178  11.587 -0.0390 -0.2495  0.2388
19366W        W35440   2.704   0.129  12.460 -0.1249  0.1447 -0.0181
19367W        W35441  16.294  18.095  11.421  0.2034  0.2429 -0.1639
19368W        W35442  15.150   0.153  11.646 -0.4165 -0.0892 -0.0441
19369W        W35443   1.008   2.941  15.626  0.2454 -0.0464 -0.1137
19370W        W35444   9.360   4.328   0.725 -0.1565 -0.1399  0.0536
19371W        W35445  12.095   1.598  15.172  0.1567 -0.3612 -0.2039
19372W        W35446   5.699   7.903  14.112  0.0930 -0.1438  0.2349
19373W        W35447  14.158  16.458   0.169  0.1149  0.0914  0.4940
19374W        W35448   3.120  15.150   3.898  0.1486  0.0368 -0.2944
19375W        W35449   1.669   0.203  11.361 -0.0323  0.1722 -0.0360
19376W        W35450  18.045  15.189  13.835  0.2214 -0.3739  0.2442
19377W        W35451   9.939  12.088  14.234  0.1673  0.0643  0.0090
19378W        W35452   6.588   8.914   4.515  0.1786  0.0659 -0.1880
19379W        W35453   1.726   2.258   0.371 -0.1784 -0.1939  0.0558
19380W        W35454  11.157  14.971  15.350 -0.1618 -0.0363  0.0773
19381W        W35455   6.482  12.049  15.692 -0.2901 -0.1549  0.1851
19382W        W35456   7.059  16.392  11.830  0.2545  0.1548 -0.0201
19383W        W35457  15.126   3.460  14.867 -0.1754  0.3963 -0.0887
19384W        W35458   2.684  16.265  11.674  0.0685  0.1130  0.2188
19385W        W35459  15.586   9.555  15.357 -0.0104  0.2521  0.2026
19386W        W35460   6.128   6.382  12.821 -0.1546 -0.1561 -0.0406
19387W        W35461   0.863  13.281  16.520 -0.1650  0.2412  0.0909
19388W        W35462   6.749  10.360  12.735  0.0265  0.2319  0.2063
19389W        W35463   2.698   9.976  13.087 -0.2884 -0.3626  0.0015
19390W        W35464   3.383   1.544  13.419 -0.0235  0.0427 -0.1182
19391W        W35465   0.092   2.027  12.208  0.2352  0.0337 -0.1882
19392W        W35466   3.542   0.035   0.172  0.0417  0.1943  0.1000
19393W        W35467   0.853  15.321  14.476  0.0408 -0.0517  0.1148
19394W        W35468  14.606  10.606  14.914  0.3105 -0.1770  0.1521
19395W        W35469  17.163   6.034  12.645 -0.2259 -0.0834  0.0409
19396W        W35470   0.538  15.751   3.301  0.0796 -0.2602  0.0910
19397W        W35471   8.670   0.066   6.392  0.2691 -0.1911 -0.0725
19398W        W35472   9.966  13.074  15.645 -0.0426  0.1886 -0.0730
19399W        W35473   0.171  13.926  14.769 -0.0091  0.1413 -0.3024
19400W        W35474  17.754  14.935  13.506  0.4096  0.1525  0.1825
19401W        W35475   8.221   1.738   5.078  0.2474 -0.0476  0.1197
19402W        W35476  11.928   4.740   2.386  0.0386  0.1039  0.1325
19403W        W35477   3.733   7.962   4.475 -0.2627  0.0078 -0.1824
19404W        W35478  16.951  16.679   0.445 -0.0184 -0.1055  0.5948
19405W        W35479  16.114  14.024   4.632  0.0325  0.1678 -0.4019
19406W        W35480  17.103   8.856  15.949 -0.1626 -0.1670  0.2027
19407W        W35481  13.994   9.447   1.055  0.0089  0.4980 -0.1083
19408W        W35482  14.096   0.275   1.948 -0.0835 -0.0265  0.2551
19409W        W35483   4.516   7.774  16.209  0.0288 -0.1972  0.2137
19410W        W35484   4.373   3.516   5.641  0.2643  0.0879  0.0446
19411W        W35485   0.902  11.269  12.106 -0.0545 -0.0870 -0.2926
19412W        W35486   2.040  12.500   4.133  0.1710 -0.0464  0.0634
19413W        W35487   5.632  17.768  16.515 -0.3340  0.2944 -0.0042
19414W        W35488   7.394  14.918   3.998  0.1666 -0.1296 -0.0929
19415W        W35489   7.447   3.806   2.589 -0.0337 -0.0928 -0.1874
19416W        W35490  15.207   2.362   4.152 -0.0027  0.0273  0.2263
19417W        W35491  10.260  16.981   0.128 -0.0527 -0.4602  0.3757
19418W        W35492   5.303   7.172  12.835 -0.0304 -0.1695  0.1132
19419W        W35493   2.385  10.312  14.010 -0.0774  0.1579 -0.2208
19420W        W35494  17.038   4.513   4.975 -0.2058 -0.1877  0.0769
19421W        W35495   9.995   5.324  16.057  0.2367  0.1129 -0.0492
19422W        W35496  11.581   4.858   5.016  0.1970  0.2798 -0.0906
19423W        W35497  18.059   0.460   2.049 -0.0162  0.0849 -0.0599
19424W        W35498  10.306   1.905  14.796 -0.3467 -0.3183 -0.0294
19425W        W35499   0.081  11.019   1.965 -0.0453  0.0154 -0.2914
19426W        W35500   6.362   7.695   1.358 -0.0053 -0.1926 -0.0694
19427W        W35501  11.655   2.112   3.557 -0.0007  0.0051  0.2047
19428W        W35502   5.211   2.623   2.295 -0.0748 -0.3849 -0.1487
19429W        W35503  17.718   5.618  14.029  0.1664 -0.3739  0.0000
19430W        W35504   3.429   6.478  13.872  0.0932 -0.0504  0.0613
19431W        W35505  18.046  15.526   2.213  0.2907 -0.0262  0.6093
19432W        W35506  11.520  18.116  16.295 -0.1240 -0.2746 -0.2584
19433W        W35507  16.738  10.064   5.056  0.1847 -0.2999  0.2123
19434W        W35508   4.929   6.164   3.243 -0.2706 -0.1609 -0.1864
19435W        W35509   2.137  13.407   0.591  0.1140  0.1702  0.2722
19436W        W35510   1.206  17.161   0.178  0.0430  0.1109 -0.1106
19437W        W35511   3.809   9.279   0.777  0.3536  0.4280  0.0695
19438W        W35512  10.694  17.110   3.226  0.1317  0.0543 -0.2872
19439W        W35513   5.849  17.774   4.391  0.1970 -0.3288 -0.0426
19440W        W35514   2.465   1.213  13.408  0.0180 -0.2326 -0.0958
19441W        W35515   9.993   6.997  11.425 -0.1635 -0.4150  0.0421
19442W        W35516  12.287   9.891  15.432 -0.3274  0.0952 -0.0281
19443W        W35517  15.590   8.677  12.403 -0.0351  0.1566  0.2141
19444W        W35518  17.605  14.546   0.007  0.0229 -0.0250 -0.2146
19445W        W35519   1.716   5.535  15.435 -0.1612  0.1580 -0.3285
19446W        W35520  10.260  13.779   4.271  0.0428  0.0167  0.2283
19447W        W35521  13.413   2.925  16.070 -0.2522  0.1770 -0.0814
19448W        W35522   5.991  11.555   5.213  0.0480  0.0825  0.1084
19449W        W35523  12.836   4.572  13.959 -0.1896 -0.4420 -0.0398
19450W        W35524   4.940   3.606  14.855 -0.3357 -0.1406 -0.1103
19451W        W35525   6.194  18.104   2.163 -0.1774 -0.0742  0.2445
19452W        W35526  17.913   9.444   3.595  0.0329  0.0056  0.2248
19453W        W35527   2.401  10.568  14.467 -0.1853  0.4072  0.2610
19454W        W35528  17.619  17.643  15.406 -0.4862  0.1306  0.1454
19455W        W35529   8.042  16.088  13.139 -0.0094  0.1035 -0.0918
19456W        W35530  13.210   9.099   3.194 -0.0226  0.1435 -0.2398
19457W        W35531   0.539   1.146  11.982  0.0877 -0.4454 -0.3101
19458W        W35532  10.020   2.702   1.734  0.0792  0.3516 -0.0363
19459W        W35533  10.438   1.126  13.426  0.3310  0.1098  0.0821
19460W        W35534   3.834   6.975  15.079 -0.0668  0.0592  0.0582
19461W        W35535   5.560  12.318  10.426 -0.0345 -0.0237 -0.3827
19462W        W35536  13.261  10.692  11.064 -0.2418 -0.1621  0.2056
19463W        W35537  17.713   5.720   3.793 -0.0473  0.1935 -0.0176
19464W        W35538  18.207  12.203  13.844  0.1526  0.2510  0.0997
19465W        W35539   4.785   7.689   2.755  0.0675 -0.3287  0.0163
19466W        W35540  17.802  14.289   2.342  0.2690  0.0291 -0.1170
19467W        W35541  17.982   9.609   1.415 -0.0019  0.0623  0.0415
19468W        W35542   7.200   8.193   4.536  0.1044 -0.1531 -0.4488
19469W        W35543   9.048   5.790   1.047 -0.2766 -0.1330  0.1124
19470W        W35544  16.992   6.129  15.785 -0.2797 -0.0665  0.0043
19471W        W35545   6.886   7.877   6.183  0.0227  0.0756 -0.1564
19472W        W35546  10.281  10.574   3.999 -0.0892 -0.2794  0.0346
19473W        W35547  13.263  11.931  12.645  0.1782  0.3219  0.2736
19474W        W35548  11.112   9.394  14.841 -0.2027  0.1619 -0.0085
19475W        W35549   3.476  17.643   0.163  0.5296  0.1871  0.1388
19476W        W35550  14.560   2.187  15.043  0.1001  0.0069 -0.0492
19477W        W35551  11.706   0.898   5.110  0.2428  0.0691  0.2087
19478W        W35552   3.442  16.538  10.777  0.1301 -0.2729 -0.0527
19479W        W35553   7.004   9.085   4.775  0.0313  0.1503 -0.0938
19480W        W35554   5.887   4.798   2.816  0.0723  0.1612  0.0975
19481W        W35555   6.994   9.442   5.208  0.1772 -0.0901  0.0088
19482W        W35556  17.514   3.832   0.780 -0.0120  0.0585  0.1234
19483W        W35557   9.886   7.800  13.702  0.1541 -0.2379  0.0355
19484W        W35558  14.654   2.784  15.470  0.2695  0.3416  0.0932
19485W        W35559   9.174  15.094   2.846  0.2847 -0.0881  0.4353
19486W        W35560  12.139  10.389  13.842  0.2874 -0.3583 -0.3495
19487W        W35561  16.387  16.591  12.186 -0.1336 -0.1215  0.0621
19488W        W35562   0.491   5.436   9.547 -0.3066  0.1941  0.0119
19489W        W35563   0.460  15.398   0.056 -0.1037 -0.1913 -0.2121
19490W        W35564  10.215   0.638   4.501 -0.1951  0.0097 -0.2403
19491W        W35565   1.221   4.040   6.140 -0.2186 -0.1417 -0.1049
19492W        W35566   7.519  13.666   4.621 -0.0720  0.2556 -0.0067
19493W        W35567  16.222   8.754  13.022 -0.0268 -0.0242 -0.1435
19494W        W35568  13.349  13.320  14.975 -0.1773 -0.0411  0.1242
19495W        W35569   9.572  16.827   2.732  0.1466 -0.4984  0.2888
19496W        W35570   6.234   5.316   3.834  0.0099  0.0235  0.0276
19497W        W35571   4.437   7.255  12.504 -0.0913  0.1496 -0.0430
19498W        W35572  17.755   9.515   2.122 -0.1236  0.2405 -0.2780
19499W        W35573   0.322   7.545  13.958 -0.1740 -0.1934 -0.1455
19500W        W35574  12.891  13.911   5.617 -0.2602  0.0025 -0.0884
19501W        W35575   1.248   7.995  12.154 -0.0159 -0.2634  0.3060
19502W        W35576  16.285   1.282  12.328  0.0480 -0.0898  0.1204
19503W        W35577   4.978   3.990   1.955  0.1676 -0.1187 -0.1955
19504W        W35578  11.793   7.601   1.451 -0.2630  0.2002 -0.2163
19505W        W35579   6.114   7.659   5.201  0.0188  0.1799  0.0441
19506W        W35580  17.177  10.207   2.204  0.2192  0.0081 -0.0544
19507W        W35581  14.041  15.964   3.632 -0.0603  0.2724  0.2504
19508W        W35582  14.780   1.786   2.376  0.3180  0.2442  0.1758
19509W        W35583   5.392   3.201  15.484 -0.2712 -0.2542 -0.0593
19510W        W35584   9.257  11.740  14.348  0.1617  0.2609  0.0937
19511W        W35585   4.097   4.703   5.258  0.0466 -0.0774  0.0016
19512W        W35586   4.795  17.116   4.997 -0.2090  0.0478  0.0683
19513W        W35587  10.361   4.776  13.699  0.0736 -0.0666 -0.0811
19514W        W35588   7.049   9.042  12.135 -0.1042 -0.2813 -0.1779
19515W        W35589   2.068   4.652  13.537  0.0897 -0.3589 -0.0660
19516W        W35590   6.766   2.010  16.031 -0.0387 -0.2747  0.0649
19517W        W35591  15.616   7.031  11.629  0.0046 -0.1483 -0.0054
19518W        W35592  17.905  13.802  15.511 -0.1597  0.0191  0.0093
19519W        W35593   5.668  10.874  14.857 -0.1053  0.1099 -0.3521
19520W        W35594  10.142   4.825  14.512 -0.2735 -0.0956 -0.0146
19521W        W35595  13.720   9.181   3.045  0.1145 -0.0773 -0.1931
19522W        W35596   5.473  14.959   3.309  0.0456  0.1553  0.2047
19523W        W35597   9.212   9.888  16.377 -0.1026 -0.3210 -0.3792
19524W        W35598   9.234  14.797  11.917 -0.1360 -0.3954 -0.0498
19525W        W35599  15.519  17.718  14.554 -0.1274  0.0203  0.1200
19526W        W35600  10.933   7.518   3.086 -0.2617  0.1330 -0.0982
19527W        W35601   7.600  15.906   0.068 -0.4723  0.1697 -0.1771
19528W        W35602   4.787   7.892  14.270  0.2373  0.0129 -0.0154
19529W        W35603   9.275  12.691  12.335 -0.0057 -0.0687  0.1867
19530W        W35604   8.662  12.312   0.885 -0.1434  0.4597  0.0656
19531W        W35605  10.560   5.690  11.934 -0.2297 -0.2512  0.3251
19532W        W35606  12.135  12.299   6.028  0.0560  0.0655 -0.0189
19533W        W35607   9.553   2.571  15.859  0.1240  0.2252 -0.1176
19534W        W35608   5.448   7.154   4.119  0.2920  0.1545 -0.1855
19535W        W35609  13.173   6.312  16.049  0.1549 -0.3047  0.2526
19536W        W35610  17.211  13.445  14.603  0.0847 -0.1801  0.1876
19537W        W35611  13.238  12.640  12.768  0.1835  0.2220  0.2625
19538W        W35612  13.277  18.207  11.666 -0.0027 -0.2529 -0.0801
19539W        W35613   0.737   6.143  11.132 -0.0209  0.2772 -0.2039
19540W        W35614  16.676  15.914  14.000 -0.1928 -0.0598 -0.1769
19541W        W35615   0.949   3.385   3.953  0.1579  0.0525  0.0580
19542W        W35616   7.720  13.426  14.223  0.1571  0.0116 -0.0508
19543W        W35617  17.825  16.703   3.756 -0.2136 -0.6030  0.0311
19544W        W35618  11.710  17.960  15.858  0.3324  0.0310 -0.0644
19545W        W35619  11.991   9.721   0.442  0.2445  0.0529  0.0272
19546W        W35620  16.456  16.193  14.372  0.0717  0.2263  0.2080
19547W        W35621   8.924   6.636  15.797  0.2368 -0.0436 -0.1950
19548W        W35622  13.199  16.437   4.275 -0.1303  0.0177  0.1959
19549W        W35623   4.045   9.160  14.466  0.1814  0.1491  0.0400
19550W        W35624   6.541  10.729   3.284 -0.2575 -0.1121  0.0133
19551W        W35625  16.130   7.037  12.330 -0.3259  0.2058  0.0192
19552W        W35626  16.722   2.542   0.035 -0.0332  0.0672 -0.1990
19553W        W35627  14.720   9.296  16.153 -0.3579 -0.2837  0.2410
19554W        W35628   6.105   2.779   0.869  0.0875  0.2783  0.0057
19555W        W35629   9.461  10.534   2.166  0.0033 -0.1929  0.0457
19556W        W35630   9.537  14.777  11.463  0.0161  0.0809  0.1441
19557W        W35631   4.835   3.923   6.230  0.3902  0.3743  0.0735
19558W        W35632  13.982   9.540   2.824  0.1862  0.1061 -0.2292
19559W        W35633  11.028   5.713   2.452  0.1186 -0.3682 -0.0574
19560W        W35634   9.067   5.298   4.482 -0.2883  0.0839 -0.0486
19561W        W35635  13.614   6.901   3.895  0.3549 -0.1458  0.2012
19562W        W35636   7.191   4.891   2.313  0.2203  0.0976 -0.0372
19563W        W35637   6.931  16.691   0.382 -0.2369 -0.2889  0.0819
19564W        W35638  11.835   1.893   4.002  0.1801  0.3558 -0.4143
19565W        W35639  16.432   4.077   0.310 -0.1485  0.0583 -0.0650
19566W        W35640  15.330   3.540   0.233 -0.3956 -0.2918  0.2520
19567W        W35641   4.372   0.198  10.822  0.0351 -0.0233  0.1710
19568W        W35642   4.915   4.640   4.067  0.1348 -0.5112  0.1593
19569W        W35643   1.356  17.243   2.782  0.2552  0.0296 -0.1333
19570W        W35644  13.419   8.137   5.473 -0.2518 -0.2205  0.0183
19571W        W35645  16.575  15.790  12.355 -0.1595  0.0754 -0.0305
19572W        W35646   8.261   0.654  13.273  0.0157 -0.0053 -0.1066
19573W        W35647  12.318  13.902  13.992 -0.0536 -0.3879 -0.0303
19574W        W35648  15.098   4.964  12.779 -0.0367 -0.0515  0.1151
19575W        W35649   9.232   3.210   3.933 -0.0274 -0.3332  0.2842
19576W        W35650  12.834   5.486  10.823 -0.2600  0.1620 -0.0793
19577W        W35651  12.171   3.592   6.286  0.0449  0.1302 -0.3165
19578W        W35652  10.740  13.098   1.989 -0.0148 -0.2122  0.0432
19579W        W35653   5.205  14.690   2.104 -0.1631 -0.1113 -0.0669
19580W        W35654   5.116   5.705   5.148  0.0771  0.0645 -0.0953
19581W        W35655   8.706  13.270  11.063  0.1390  0.1068  0.1722
19582W        W35656  13.971  11.313  16.212 -0.2274 -0.4125  0.1204
19583W        W35657   7.332  11.841  13.398  0.2669  0.1722  0.2729
19584W        W35658   5.742   5.633   2.279  0.1720  0.0428  0.0719
19585W        W35659  16.218  15.077  15.806  0.2304  0.2881  0.0229
19586W        W35660  17.423   1.957   0.650 -0.3455  0.1755 -0.1913
19587W        W35661   2.997  16.367  12.697 -0.1514 -0.1425 -0.0492
19588W        W35662  11.536   4.270   2.165 -0.0323 -0.1640 -0.2603
19589W        W35663   7.146  11.057  13.136  0.1396  0.0620 -0.2637
19590W        W35664  10.930   7.465  15.218  0.0253  0.0619 -0.0529
19591W        W35665   0.854   3.483   5.203  0.0903 -0.0562  0.3318
19592W        W35666   3.552  17.740   5.511  0.2546 -0.2044 -0.0467
19593W        W35667   3.462   6.791  12.636  0.0152 -0.0550 -0.2790
19594W        W35668   2.336  12.363   3.610  0.0069 -0.3457  0.0881
19595W        W35669   2.852  14.903   0.461  0.0561 -0.1755 -0.0735
19596W        W35670  15.701  15.763  13.251 -0.0995  0.0099  0.0361
19597W        W35671   1.318  10.370   0.294  0.1046  0.0986  0.2639
19598W        W35672   0.251   5.835   2.347  0.2747  0.1208 -0.0051
19599W        W35673   8.879  11.544  11.881 -0.1307  0.1585  0.0940
19600W        W35674  11.737   0.546  11.903 -0.3847 -0.1152 -0.3039
19601W        W35675  16.636  16.945   1.743 -0.0003 -0.0719  0.1192
19602W        W35676   1.506  13.793  16.047 -0.1035  0.2180 -0.2033
19603W        W35677  16.345  12.703  15.516 -0.0344 -0.1273  0.2731
19604W        W35678   6.804   1.363   3.561  0.0431 -0.0195  0.0614
19605W        W35679   2.763   0.830   4.230  0.0853  0.0131 -0.1547
19606W        W35680   8.102  17.305  14.123 -0.0153  0.0905  0.0539
19607W        W35681  12.029  17.296   5.827 -0.0592  0.3242  0.0906
19608W        W35682   4.621   1.266  13.692  0.0769 -0.2705  0.2542
19609W        W35683  12.345   9.865   2.161  0.0647 -0.1281 -0.1359
19610W        W35684   4.353  16.502  12.795 -0.0713  0.0547  0.2042
19611W        W35685   0.340   2.141  11.149  0.4663  0.0091 -0.1964
19612W        W35686  10.747   8.820   2.857 -0.0323  0.1944 -0.2355
19613W        W35687  16.006   4.999   0.556 -0.0354 -0.0627 -0.1115
19614W        W35688   5.172  15.389   5.888 -0.3435 -0.0577  0.0402
19615W        W35689   9.849  17.177  16.382 -0.1898  0.2747 -0.0672
19616W        W35690  15.801  15.082  13.992 -0.2900  0.0232  0.1917
19617W        W35691  11.635   3.778   3.947  0.1141  0.1857 -0.0905
19618W        W35692  17.114   4.489  13.117 -0.3692 -0.2062 -0.2268
19619W        W35693  12.025  11.991  13.993 -0.1707  0.0291  0.0364
19620W        W35694   2.459  12.517   1.942  0.0437 -0.0616 -0.0936
19621W        W35695  10.029   9.486   1.732 -0.1491 -0.0606 -0.4195
19622W        W35696  11.832   1.659   3.406 -0.2390 -0.2926  0.3043
19623W        W35697  12.492  11.790  13.713 -0.3715  0.0098  0.1272
19624W        W35698   4.957  15.852   3.258  0.2352 -0.3499 -0.1271
19625W        W35699  11.836   1.483   1.727  0.2297  0.2647 -0.2407
19626W        W35700  14.530  14.047   2.334  0.0067  0.2499 -0.0650
19627W        W35701   5.309  10.777  14.085  0.0657  0.0894  0.2059
19628W        W35702   5.399  17.120   3.877 -0.0963 -0.0781  0.2475
19629W        W35703  12.861  16.699  14.067 -0.0151  0.2320  0.0232
19630W        W35704   9.545   1.592  13.130 -0.1796 -0.1541 -0.0607
19631W        W35705  14.956   2.696  13.025 -0.1740 -0.0583 -0.0760
19632W        W35706   5.767  12.856  13.418 -0.2169  0.2133 -0.1370
19633W        W35707  17.499   5.515  11.560  0.2544 -0.0140 -0.2000
19634W        W35708  16.310   0.027  14.454  0.1387  0.0878  0.1597
19635W        W35709   3.741  17.652   1.072 -0.2542  0.0921  0.2922
19636W        W35710   9.755  17.270  14.191 -0.1843  0.0991 -0.1124
19637W        W35711  12.763   6.777   4.225 -0.1908 -0.2706  0.0348
19638W        W35712   5.686  15.609  15.865  0.6234  0.0103 -0.3349
19639W        W35713   9.744   8.699   3.763 -0.0425  0.1561 -0.2300
19640W        W35714   4.154  10.303   4.773  0.4762 -0.1513 -0.1557
19641W        W35715   4.950   2.838   3.429  0.0696 -0.1040  0.0773
19642W        W35716  16.644  13.136   2.608  0.0690 -0.1216  0.1404
19643W        W35717   7.957  10.524  15.402 -0.0311 -0.0418 -0.0614
19644W        W35718   4.375  17.444  13.785  0.3225 -0.2368  0.3470
19645W        W35719  13.423  10.627  14.912 -0.2000 -0.1125  0.0964
19646W        W35720   4.486  10.847   3.464 -0.2609 -0.1568  0.2773
19647W        W35721   5.094   2.640   4.110  0.0268 -0.0825 -0.1678
19648W        W35722   9.189  14.923  10.662 -0.1341  0.0164  0.0412
19649W        W35723   8.501  13.639   4.399  0.1012 -0.0360 -0.1842
19650W        W35724  11.509   3.330  15.818  0.1687  0.1872 -0.0592
19651W        W35725   6.587  11.597  12.963  0.1164 -0.2503 -0.4758
19652W        W35726   2.216   5.230   1.168  0.4335 -0.1767  0.0142
19653W        W35727  10.882   2.469   2.904  0.0435 -0.2808 -0.1360
19654W        W35728  10.328   6.792   2.041  0.3573  0.1980 -0.0521
19655W        W35729  15.935   1.984  14.713 -0.0302  0.1408 -0.1955
19656W        W35730  14.654   3.785   5.202 -0.3704  0.0766 -0.2122
19657W        W35731  15.165  17.280   2.895  0.1250 -0.2127 -0.1507
19658W        W35732  12.799   2.291  14.788 -0.2968 -0.1325 -0.0712
19659W        W35733   0.435  12.025  11.829 -0.0505 -0.2808 -0.0425
19660W        W35734  13.196   9.547  14.279  0.1027  0.1339 -0.3383
19661W        W35735  16.574  12.779  15.070 -0.1399 -0.1163 -0.0748
19662W        W35736   2.598   2.094  15.727  0.1930  0.1040  0.2544
19663W        W35737  17.197   4.818   0.528 -0.2973  0.0550  0.0905
19664W        W35738   7.440   2.662   0.149  0.2706  0.1614  0.0091
19665W        W35739   8.732  11.119   4.494  0.0296  0.0145 -0.1836
19666W        W35740   8.440  11.947  14.310 -0.1045 -0.1435 -0.0373
19667W        W35741  16.833   6.760   1.938 -0.0944 -0.2129 -0.0450
19668W        W35742   0.765   4.334  14.396  0.1226  0.1674  0.3006
19669W        W35743   0.068   9.593   0.510 -0.1817  0.1027 -0.0594
19670W        W35744  18.173  13.859   3.460  0.0609 -0.0626  0.1332
19671W        W35745  10.305  11.665   3.107 -0.0461  0.2311  0.0370
19672W        W35746   7.398   7.788   1.093 -0.0248  0.0169  0.1310
19673W        W35747   2.108   8.105   5.173 -0.0855  0.2182  0.3026
19674W        W35748  11.418  17.185   5.742  0.1209 -0.0093  0.0909
19675W        W35749  12.754   6.578   0.642  0.0317  0.1294 -0.0218
19676W        W35750   3.471  15.009   0.480  0.3473  0.1463  0.0594
19677W        W35751   8.994   3.768  16.407  0.1624 -0.1619  0.1039
19678W        W35752   7.381  10.277   0.433 -0.0947 -0.1672  0.0665
19679W        W35753  13.912  14.137   2.888 -0.0530  0.2101  0.2915
19680W        W35754   3.869  13.463  12.204 -0.0556  0.3753  0.1494
19681W        W35755   3.736   9.255   5.215 -0.4552  0.1134  0.1187
19682W        W35756   1.206   1.555  14.926 -0.1406  0.3362 -0.1722
19683W        W35757  16.171  13.435   4.612 -0.1632 -0.3348  0.0085
19684W        W35758   4.517  11.963   4.506 -0.1089  0.0809  0.1170
19685W        W35759   2.348   2.286   1.046  0.1431  0.0909 -0.1252
19686W        W35760   2.149  13.666   1.295  0.0374 -0.1904 -0.2036
19687W        W35761   9.138   5.236   5.317  0.0142 -0.0616  0.1548
19688W        W35762   5.534   1.307   0.941  0.2406  0.1265 -0.2703
19689W        W35763   5.557  17.351   2.080  0.1479 -0.0304 -0.1495
19690W        W35764   8.690   8.222   2.523 -0.0400 -0.0996  0.2123
19691W        W35765   2.343  13.625   2.768 -0.2038 -0.4047 -0.0635
19692W        W35766  10.009  10.050   3.367  0.1402  0.0282 -0.1046
19693W        W35767  15.803  15.002   1.324  0.0497 -0.0189  0.0082
19694W        W35768   5.140  15.653   1.798  0.1355  0.0832 -0.0165
19695W        W35769  17.706   7.502   1.768 -0.1433  0.0366  0.0096
19696W        W35770   3.973  18.026   0.361  0.0233 -0.0936  0.0342
19697W        W35771   5.904   2.477  11.874 -0.3073 -0.0735 -0.0314
19698W        W35772   8.447  17.704  13.347 -0.2514  0.0834 -0.0086
19699W        W35773   6.777   5.781   0.187 -0.1427 -0.1371 -0.1468
19700W        W35774  10.192   1.631  16.476  0.0014 -0.0227 -0.2160
19701W        W35775   7.081   3.205   1.198 -0.0449 -0.0809 -0.0306
19702W        W35776   5.367   6.482  14.231 -0.0808  0.1500  0.0355
19703W        W35777  10.183  16.242   3.942 -0.0911  0.0878 -0.0387
19704W        W35778  14.810  10.086   0.263 -0.0605  0.2023 -0.3164
19705W        W35779   8.979   5.698  14.867  0.2531  0.1623  0.0377
19706W        W35780  17.599  11.458   2.183 -0.1925 -0.0166  0.0135
19707W        W35781   3.463   0.844   1.820  0.0311 -0.0393 -0.0952
19708W        W35782   9.898   7.433  14.067 -0.2103 -0.2465  0.0208
19709W        W35783  17.337   2.273  11.370 -0.0844 -0.3112 -0.0216
19710W        W35784   5.269   9.410   4.747  0.0197  0.1423 -0.1809
19711W        W35785  13.238   7.859   0.602 -0.0601  0.0122  0.3640
19712W        W35786   6.877   7.957   4.169  0.1232  0.0200 -0.0874
19713W        W35787  10.444   9.770  15.534 -0.0028  0.1060  0.0032
19714W        W35788  10.930  13.610   3.673 -0.0096  0.1309  0.0185
19715W        W35789   0.544  15.348  11.599 -0.0715  0.0824  0.0273
19716W        W35790  12.997   7.629  12.736 -0.0688  0.2931  0.3478
19717W        W35791  16.210  17.397  12.333  0.0543 -0.0361  0.0539
19718W        W35792   7.259   0.782  11.923  0.1797 -0.2970  0.2680
19719W        W35793  17.090   3.146   1.425  0.1032 -0.3295  0.1691
19720W        W35794   7.044   2.306  13.862 -0.0796 -0.1626 -0.1658
19721W        W35795   3.780  12.580  12.112  0.2274  0.1184  0.3363
19722W        W35796   9.527  15.628   3.073  0.0799 -0.1454 -0.2988
19723W        W35797   5.670   7.326   2.616 -0.1378 -0.0027  0.3174
19724W        W35798   5.156   3.601  16.428 -0.2102 -0.0485 -0.0912
19725W        W35799   5.986  12.535   6.527 -0.1332  0.2003 -0.2505
19726W        W35800   7.426   6.370   0.419  0.0902  0.2618  0.1687
19727W        W35801  17.934   1.984   2.654  0.2929  0.2016  0.0865
19728W        W35802  14.483   3.083  15.002 -0.2399  0.1685  0.1865
19729W        W35803   0.140   4.122   2.368  0.1750  0.0697 -0.0387
19730W        W35804   0.203  10.029   0.679 -0.1315 -0.0684 -0.2720
19731W        W35805  18.187  18.203   2.209 -0.2552  0.1082  0.2935
19732W        W35806  13.947  16.194  14.410 -0.0755 -0.1785  0.0596
19733W        W35807  17.059   9.167  13.566  0.1701  0.1260 -0.1581
19734W        W35808   2.466  17.367   1.977 -0.1537 -0.0353 -0.3809
19735W        W35809  10.659  17.648   5.550  0.1696  0.1281 -0.2522
19736W        W35810  10.062  17.255  12.112  0.1234 -0.0793 -0.0212
19737W        W35811  16.235   9.020   5.062 -0.1044  0.4400 -0.2166
19738W        W35812   0.089  15.443   4.302  0.3220  0.0974  0.1972
19739W        W35813  14.685   8.703   3.600  0.1640 -0.0709  0.1264
19740W        W35814   9.676   6.391   1.132 -0.0632 -0.0867  0.0266
19741W        W35815   5.477   9.309   3.228  0.1466  0.0957  0.2081
19742W        W35816  13.927   2.331  16.230  0.3007  0.1354  0.1713
19743W        W35817  11.735  11.966   2.732  0.1230 -0.2831 -0.0035
19744W        W35818  17.221  10.535   3.332 -0.2257  0.3344  0.5364
19745W        W35819  13.894  13.228   1.175  0.1569 -0.0089  0.1345
19746W        W35820  11.237   2.410   0.308 -0.0547  0.2550  0.0170
19747W        W35821   0.994  12.123  13.134 -0.0318 -0.1132 -0.1780
19748W        W35822  11.283   6.524   0.427 -0.1535  0.0469  0.1657
19749W        W35823  17.051   2.718   2.666  0.4016  0.2733 -0.1623
19750W        W35824   8.516  11.314  16.076 -0.0967  0.2102 -0.3179
19751W        W35825  11.042  15.954  16.186  0.0207 -0.0882  0.1426
19752W        W35826  18.008  14.899   5.185  0.1771  0.0103  0.3641
19753W        W35827  16.781   6.172   5.137 -0.1198  0.2813 -0.0072
19754W        W35828   3.421   3.028   5.444  0.2949  0.0685 -0.0097
19755W        W35829  14.866  13.253  13.398  0.1220 -0.1400  0.1187
19756W        W35830   5.953  10.992  13.590  0.0422 -0.0597  0.1628
19757W        W35831   0.739   7.952   3.893  0.0390  0.0756  0.2571
19758W        W35832   0.675   1.363   3.775 -0.3733 -0.1221  0.1086
19759W        W35833   8.002   9.736  14.230 -0.0266  0.3606  0.2110
19760W        W35834   4.457  15.267   5.422  0.1890 -0.2696 -0.0960
19761W        W35835   7.217   2.279  16.281 -0.0238  0.1348 -0.2378
19762W        W35836   9.961  14.284  12.428  0.0290  0.1339 -0.2103
19763W        W35837  11.006  14.968   5.762  0.1204  0.1728  0.0329
19764W        W35838  16.470   4.123   3.569  0.1100 -0.5124  0.2715
19765W        W35839  17.320   6.934  11.018  0.1931 -0.2587  0.3784
19766W        W35840  14.922  12.729   5.006 -0.2809  0.1715 -0.2111
19767W        W35841  15.510  11.406  12.644  0.2044  0.0084  0.0661
19768W        W35842   9.719  13.427   0.774  0.1355  0.0099  0.1813
19769W        W35843   1.754   0.534  13.268 -0.1957 -0.1237 -0.1288
19770W        W35844  14.110  16.811   0.804 -0.2964  0.0453 -0.2177
19771W        W35845   4.380   4.592  13.830  0.3408 -0.1436  0.0364
19772W        W35846  17.985  13.140   4.129  0.2806 -0.1250  0.2585
19773W        W35847  11.306   6.757   3.356  0.2445  0.0841  0.1373
19774W        W35848  15.751  17.847   0.618 -0.0661  0.1040 -0.0392
19775W        W35849   8.252   6.442   5.298 -0.0714 -0.0701 -0.3275
19776W        W35850  10.005  14.734   3.133 -0.1073 -0.0233 -0.0275
19777W        W35851   8.075  13.285  13.899 -0.3167  0.0081 -0.2692
19778W        W35852  17.328   7.513   4.354  0.0176 -0.1170 -0.0668
19779W        W35853   6.263  10.117  15.275 -0.0555 -0.0504  0.1263
19780W        W35854   4.503   8.269   1.293  0.3232  0.0372  0.1542
19781W        W35855  17.739  12.584  12.015 -0.0681 -0.2432  0.0204
19782W        W35856  13.231  10.416  11.470 -0.4914 -0.0138  0.2026
19783W        W35857   1.807   7.986  12.830  0.1109 -0.0639  0.1441
19784W        W35858   8.895  11.380  14.488 -0.5947  0.0418  0.3682
19785W        W35859   9.521   3.166  14.977  0.1147 -0.0541  0.1436
19786W        W35860  13.597  12.669   1.982  0.0495 -0.2715  0.1819
19787W        W35861   8.847  12.133  11.674  0.1034 -0.0833  0.0366
19788W        W35862  15.500   5.226  12.735  0.4117  0.0036  0.2427
19789W        W35863   6.344  15.325  10.340 -0.0439  0.0862  0.2223
19790W        W35864   3.329  14.797  12.491  0.1738  0.3207  0.2315
19791W        W35865   2.281  13.252  12.772 -0.0976  0.2347  0.3113
19792W        W35866  10.414  15.364  16.471  0.2710  0.1946 -0.0172
19793W        W35867  13.902  17.111  11.261 -0.0100  0.2507  0.0172
19794W        W35868   5.845   6.721  16.184  0.2003  0.0997  0.1226
19795W        W35869   5.370   7.098   1.221  0.0944  0.2263  0.2063
19796W        W35870   1.758  13.485   0.269  0.1526  0.1765  0.0412
19797W        W35871   7.094  17.934   1.835  0.1878  0.0956 -0.2348
19798W        W35872  17.020  11.148   0.144  0.1812 -0.1936 -0.2508
19799W        W35873   5.617   8.998   0.176 -0.2366 -0.1654  0.2274
19800W        W35874   5.473  13.575   1.871  0.1748 -0.0919  0.1666
19801W        W35875   8.031  12.359   4.199  0.1269  0.4252  0.1295
19802W        W35876   1.107   8.895  15.659 -0.0939 -0.1315 -0.0438
19803W        W35877  14.125  17.157   0.249  0.2109  0.0420 -0.1988
19804W        W35878   7.518  10.406   3.119  0.4835  0.1492  0.1753
19805W        W35879  11.479   1.627   2.954  0.0430  0.2133  0.1797
19806W        W35880   2.074   6.104   2.361  0.0177 -0.0662  0.1164
19807W        W35881  14.255  10.591   2.658 -0.0908  0.1477 -0.1408
19808W        W35882   4.844   9.600   5.498 -0.1220  0.0556 -0.1218
19809W        W35883  12.846   4.472   5.498 -0.2381 -0.0883  0.2136
19810W        W35884   1.551  15.534  10.205  0.0032 -0.2129 -0.0423
19811W        W35885  17.127   2.826  15.456  0.0273 -0.1697  0.3439
19812W        W35886  15.964   7.624  14.645 -0.2566 -0.1988  0.1408
19813W        W35887   1.033  14.930   5.104  0.0665 -0.1087  0.1178
19814W        W35888   9.684   5.004   1.374 -0.1402 -0.4835 -0.0031
19815W        W35889  17.283   2.438   0.849  0.2626 -0.0264 -0.2142
19816W        W35890   3.732   6.037  11.218 -0.1032  0.1235 -0.0481
19817W        W35891   2.161   7.305  13.293 -0.2343 -0.2570  0.1091
19818W        W35892   7.966  14.023  12.051 -0.1604  0.6362  0.2039
19819W        W35893   2.824   5.597  16.146  0.0895 -0.0028 -0.1271
19820W        W35894  16.891   3.586  16.262  0.2601 -0.2095  0.2594
19821W        W35895  12.846  12.394   0.641  0.0808 -0.1501 -0.4013
19822W        W35896   9.033   0.430   6.398  0.1308 -0.3574 -0.3293
19823W        W35897  14.001  15.955  11.933 -0.0469 -0.0430 -0.1757
19824W        W35898  12.418  10.274  12.683 -0.0581  0.0815  0.1318
19825W        W35899   8.484   2.014   3.755  0.0421  0.1767 -0.1175
19826W        W35900   4.489  17.594   4.311  0.3332 -0.0354  0.1110
19827W        W35901   5.122  11.462   2.476  0.5395 -0.3968 -0.0264
19828W        W35902   1.172  15.583   0.660  0.1050 -0.2356  0.0342
19829W        W35903   3.059  10.727  16.521 -0.0781 -0.1533 -0.1867
19830W        W35904  10.440   7.698  15.320 -0.1294 -0.1042 -0.1198
19831W        W35905  15.561  13.048  12.191 -0.0066 -0.0329 -0.0188
19832W        W35906  12.970  11.427   2.768 -0.2089 -0.0718  0.0802
19833W        W35907  15.698   3.215   4.152 -0.2033  0.0506  0.0470
19834W        W35908   1.077   7.186   2.395  0.0160 -0.0950 -0.2420
19835W        W35909  17.034   0.693   0.822  0.3539 -0.0480  0.0120
19836W        W35910  11.510   6.658   2.879  0.4995  0.1104 -0.1452
19837W        W35911   0.850   3.990   2.940 -0.4093  0.1075  0.0598
19838W        W35912  15.696  10.503   6.461 -0.6757 -0.0981 -0.1193
19839W        W35913   8.634  10.641   1.611 -0.0978 -0.2917 -0.4640
19840W        W35914   8.401  14.335  16.133  0.0568 -0.1152 -0.4204
19841W        W35915   2.763   5.015  16.116  0.0344  0.2431 -0.1526
19842W        W35916   8.552  15.704   0.303 -0.0026 -0.0307  0.1353
19843W        W35917  11.240   9.058  12.805  0.3072  0.0762  0.2028
19844W        W35918  17.407   1.721   3.297  0.0093  0.2402 -0.0203
19845W        W35919   0.567   3.441  15.009  0.2175 -0.0442  0.3187
19846W        W35920  10.133  10.187   2.521 -0.3608  0.0759 -0.0931
19847W        W35921   8.168   8.773  14.408  0.1605  0.0564 -0.2615
19848W        W35922   6.716   4.659   5.604 -0.1950 -0.2016  0.1673
19849W        W35923   1.784  14.632  12.320  0.0988  0.0165  0.2459
19850W        W35924  10.550   0.432   5.302 -0.0051  0.0776  0.2004
19851W        W35925   9.803   3.554   2.803  0.1510  0.2590  0.4270
19852W        W35926   6.852   5.936  12.577  0.0737  0.1707  0.0358
19853W        W35927   3.262  10.302   3.341  0.0633 -0.1293  0.3770
19854W        W35928   3.888   3.821  16.087  0.2330 -0.1687  0.1535
19855W        W35929   1.480  17.651   0.196 -0.3722  0.0136 -0.1038
19856W        W35930  15.590   7.086  16.137  0.1318  0.0447 -0.1196
19857W        W35931   7.459   5.799  15.246  0.2018  0.2209 -0.1171
19858W        W35932   6.966   1.993   4.637 -0.1668 -0.4637 -0.3934
19859W        W35933  15.343  10.698  12.601 -0.1401  0.2632 -0.0182
19860W        W35934   5.148   4.131   4.733  0.1065 -0.2574  0.0531
19861W        W35935   8.329  12.139   4.579 -0.0074 -0.0577  0.1706
19862W        W35936   0.941   4.165  10.908 -0.0449  0.3733 -0.1407
19863W        W35937  12.947  17.810   3.789 -0.0127  0.0769  0.2636
19864W        W35938   8.776  13.640   1.283  0.2356 -0.0171  0.0300
19865W        W35939   1.015   3.541   3.199 -0.1374 -0.1530  0.0753
19866W        W35940   2.747   8.579  16.417  0.1103 -0.0962  0.1826
19867W        W35941  16.893  10.284  15.394  0.1757 -0.1757  0.2066
19868W        W35942   4.596   4.205  14.118  0.4164 -0.1067 -0.3067
19869W        W35943   5.970  10.413   1.336  0.1704 -0.3560 -0.0568
19870W        W35944   4.741  17.924  15.309 -0.0368  0.2565 -0.0729
19871W        W35945  10.290  10.154   0.520 -0.0999  0.2953 -0.1523
19872W        W35946   4.733   1.583   1.912 -0.0115 -0.0595 -0.0159
19873W        W35947   1.520   1.975  16.131 -0.0625 -0.1749  0.0591
19874W        W35948  10.035  15.558  12.684  0.0599 -0.2061  0.0209
19875W        W35949   7.548  18.135   2.569  0.0884 -0.1586  0.0959
19876W        W35950   8.461   4.323  13.032  0.2728 -0.3308  0.0578
19877W        W35951   2.504   8.455  15.974  0.0558 -0.2915 -0.1943
19878W        W35952   9.803   4.267  13.070  0.1997 -0.0715 -0.0397
19879W        W35953  10.644  14.536   1.002 -0.1475  0.0293 -0.0343
19880W        W35954   0.137   7.126   0.129  0.1196 -0.0663  0.2899
19881W        W35955   8.281  18.204  13.088 -0.0058  0.1321 -0.0769
19882W        W35956  17.094  15.691   3.434 -0.2964  0.0723  0.3112
19883W        W35957   6.609  13.380  15.042  0.0976  0.4176  0.3722
19884W        W35958   2.675  15.235  11.535  0.0239  0.3130 -0.0458
19885W        W35959   7.119   7.749   5.386 -0.1610  0.2803 -0.0195
19886W        W35960  15.194  12.208  13.509  0.0460 -0.0351 -0.2147
19887W        W35961   4.405  14.231   3.911  0.0147  0.1167 -0.2998
19888W        W35962   0.422   5.023  10.844 -0.0500  0.1182  0.2498
19889W        W35963   2.354   0.811  14.169 -0.0942 -0.0821 -0.0084
19890W        W35964   5.959  17.131   1.788 -0.1772 -0.2176  0.1591
19891W        W35965   4.923  14.576   4.570  0.1829  0.0641 -0.0045
19892W        W35966   2.584   0.994   1.196  0.1679 -0.1123 -0.2276
19893W        W35967  12.952  15.340   5.504  0.0236  0.2611 -0.0969
19894W        W35968   1.436  12.277   4.999 -0.0566 -0.2169  0.0740
19895W        W35969   2.479   2.736   0.388 -0.2302 -0.1025 -0.2052
19896W        W35970   1.126  17.036  11.701 -0.0880  0.2495 -0.3373
19897W        W35971   5.013   3.757   4.429 -0.4236 -0.1009  0.0218
19898W        W35972   4.960   8.714   4.110  0.5015  0.2699 -0.1246
19899W        W35973  14.070  17.142  12.217 -0.0564  0.0467  0.1439
19900W        W35974  10.792   6.230  15.356 -0.2557 -0.4376 -0.2367
19901W        W35975  12.606   0.872   1.108  0.6064  0.1855 -0.0349
19902W        W35976   8.339   1.724   4.131  0.3198  0.1555 -0.0294
19903W        W35977   2.093  15.080   5.902  0.0799 -0.1491 -0.3323
19904W        W35978  11.173   9.108   0.592 -0.0718  0.0144 -0.1206
19905W        W35979  17.608  14.775   1.747 -0.0672  0.2297  0.0472
19906W        W35980  11.532  11.891  12.654  0.1603 -0.0048 -0.1735
19907W        W35981  14.571  14.282   5.252  0.1104  0.1074 -0.0884
19908W        W35982   8.615   9.784  11.227 -0.1384  0.0764 -0.0704
19909W        W35983   1.900  12.304   4.911  0.1148  0.0029 -0.1425
19910W        W35984  16.647   8.855  13.279  0.2679 -0.0963  0.1224
19911W        W35985  16.996  15.368   3.792 -0.0508  0.0739 -0.1738
19912W        W35986  15.219  17.612  15.355  0.0300  0.1462 -0.1675
19913W        W35987  14.792  16.155  14.087 -0.2064 -0.1825  0.0244
19914W        W35988  11.858   7.450  11.999  0.0794 -0.1440  0.0265
19915W        W35989  16.362   1.437  15.410  0.0509  0.3331  0.0230
19916W        W35990  14.638  16.119   5.578  0.0771  0.2168  0.3898
19917W        W35991   9.344   5.739  13.999  0.1570  0.0323  0.2622
19918W        W35992   1.185   3.880   4.841 -0.0689  0.0304 -0.0348
19919W        W35993   9.760  16.839   5.935  0.0463  0.2109 -0.0093
19920W        W35994  12.741  15.832   2.367 -0.2156 -0.2338 -0.0038
19921W        W35995   8.849  17.978   5.181 -0.1438  0.6239 -0.0166
19922W        W35996   2.071  16.293   1.154  0.2468  0.4196  0.4043
19923W        W35997  11.164  16.857  13.103 -0.0936  0.3671  0.1392
19924W        W35998   5.837   8.962   2.283 -0.0988  0.2212 -0.0041
19925W        W35999   2.005   0.070  14.685  0.0830 -0.2852 -0.1285
19926W        W36000  16.288  12.998  13.167  0.1135  0.1235 -0.1265
19927W        W36001   7.260  12.025  15.859 -0.0149  0.2339  0.1917
19928W        W36002  10.945  14.835  14.842  0.2939 -0.0560  0.0358
19929W        W36003  15.964   7.022   3.230 -0.0400  0.0511 -0.0299
19930W        W36004  10.781  10.058   6.018 -0.2316  0.0762 -0.0332
19931W        W36005  12.911  16.281  14.398 -0.1166 -0.1336  0.2328
19932W        W36006  17.583  10.388  16.053  0.3997 -0.3204 -0.2179
19933W        W36007   8.448  17.261   4.941 -0.0310  0.0359  0.3153
19934W        W36008  10.241  13.074   4.021  0.1488 -0.0377 -0.0124
19935W        W36009  16.322  10.997  15.762 -0.0863 -0.1539  0.4172
19936W        W36010   8.365  18.092  15.117  0.2202 -0.0746 -0.0761
19937W        W36011  15.233  12.648  16.340  0.2611 -0.0600  0.2317
19938W        W36012  11.676  16.345   4.798 -0.3475 -0.0199  0.0627
19939W        W36013  13.689  11.187  13.664 -0.0859 -0.3524  0.2873
19940W        W36014  11.460  10.406   3.811 -0.2897 -0.2224 -0.0287
19941W        W36015   0.759  13.886  14.945 -0.0186  0.1804  0.2997
19942W        W36016   6.470   2.811   2.834  0.0947  0.0441 -0.3495
19943W        W36017  15.853  10.572  14.435 -0.0300  0.0080 -0.1194
19944W        W36018   3.599   8.737   2.294 -0.3138 -0.1493  0.0332
19945W        W36019  13.546   1.647   4.740 -0.0591 -0.1346  0.1050
19946W        W36020   4.825   9.221  13.760  0.3082 -0.1350  0.0594
19947W        W36021   9.626  10.992   3.552 -0.1852  0.0093 -0.0802
19948W        W36022  15.750   1.000   2.431  0.0559 -0.0505  0.0168
19949W        W36023   1.710   5.531  12.121  0.0742 -0.2033  0.0570
19950W        W36024   2.913   2.919  13.145  0.0883 -0.0571  0.0753
19951W        W36025  11.494  10.302  12.403  0.2246 -0.0486  0.0062
19952W        W36026   4.296  13.371   4.565 -0.0320  0.1393 -0.0566
19953W        W36027   0.661   5.115   4.405 -0.0210 -0.6528  0.0016
19954W        W36028   7.483   5.020  12.161 -0.1751  0.1907  0.0822
19955W        W36029  16.973   0.225   4.547  0.1051  0.3378 -0.1860
19956W        W36030  13.599   1.363   0.008  0.0995  0.1147 -0.0149
19957W        W36031   7.431   3.022   2.427 -0.2144 -0.3082 -0.3233
19958W        W36032  13.500   0.210   4.905 -0.2052  0.1422  0.0050
19959W        W36033   6.746   8.815   2.348 -0.3574 -0.4547 -0.4807
19960W        W36034  11.838  10.040  13.641  0.0724  0.1652 -0.0348
19961W        W36035  15.534   2.817   5.505  0.0022 -0.4008  0.1126
19962W        W36036  13.647   4.754  14.688 -0.2355  0.0944  0.1859
19963W        W36037   5.318   1.789  16.051 -0.0599  0.4558 -0.1317
19964W        W36038  15.576  16.080  14.194  0.1540 -0.0053 -0.0931
19965W        W36039  17.606   8.977   2.073 -0.0487  0.0790 -0.2053
19966W        W36040  14.059  10.151   2.072  0.1910 -0.2187  0.0116
19967W        W36041   8.176   2.813  13.252 -0.1478 -0.1496  0.0758
19968W        W36042   4.914   1.340  12.488  0.2073  0.0047  0.2026
19969W        W36043  13.965   0.676   1.235 -0.1266  0.0259 -0.1872
19970W        W36044  16.740  11.499  15.891 -0.1289  0.2629  0.0161
19971W        W36045   8.000  11.808   4.412  0.2098  0.0108  0.3711
19972W        W36046   3.424  13.684  15.178 -0.1017 -0.2582 -0.2220
19973W        W36047   2.987   2.216  12.245 -0.0552  0.2924  0.1516
19974W        W36048   2.424  16.365  13.342 -0.0350  0.4838  0.0586
19975W        W36049   1.311  12.431  15.668  0.0525  0.0712  0.2193
19976W        W36050  11.882   4.377  12.513  0.2531 -0.0968  0.2134
19977W        W36051   0.385   1.790   9.984  0.1936 -0.3382 -0.2294
19978W        W36052   8.911   4.891   1.750 -0.1501  0.1478  0.1580
19979W        W36053   4.170   2.760  16.451  0.4201  0.4330  0.0581
19980W        W36054  16.690  14.223   4.657 -0.0527  0.1145  0.1283
19981W        W36055  10.689  14.169   1.958 -0.2176  0.1712 -0.1866
19982W        W36056   0.631   5.491   0.486 -0.1041  0.0167  0.0032
19983W        W36057  14.579   1.221   4.024 -0.0177  0.0269  0.1893
19984W        W36058   9.269  11.091   4.530  0.0695 -0.0257  0.1494
19985W        W36059  15.667   5.318   0.380 -0.0100  0.3722 -0.1412
19986W        W36060   5.228   3.698   3.954 -0.3194 -0.0580 -0.0867
19987W        W36061  10.603   8.204  15.383 -0.3645  0.3434  0.0339
19988W        W36062  13.148   1.183   2.331  0.1451 -0.1330  0.1422
19989W        W36063   0.906   6.485  16.313  0.0555 -0.1705 -0.2448
19990W        W36064  15.486   5.244   5.980 -0.2694 -0.4636 -0.2996
19991W        W36065   9.812   3.381  12.027 -0.2668  0.0748 -0.2155
19992W        W36066   0.885  16.479   2.625  0.1480  0.0914 -0.1097
19993W        W36067   6.401   3.694  13.392 -0.0166 -0.1827  0.0776
19994W        W36068   6.910   1.410  12.401  0.3468 -0.2142  0.1381
19995W        W36069   7.549   0.365   2.824  0.0844 -0.0522 -0.0745
19996W        W36070  12.819   4.112   5.156 -0.1712 -0.3841 -0.1470
19997W        W36071   6.424   9.436  13.828 -0.0358 -0.0189  0.1323
19998W        W36072  10.405   1.479   1.994 -0.3183 -0.0864 -0.3304
19999W        W36073   6.138   7.075  14.110 -0.0762  0.0374 -0.1993
20000W        W36074   7.054   6.624  14.791 -0.2731  0.0028  0.0391
20001W        W36075   1.055   6.742   0.245  0.0090  0.1818  0.0253
20002W        W36076  17.688  17.560  14.889 -0.0149 -0.0586  0.1099
20003W        W36077  12.230   5.636  12.280 -0.1702 -0.0395 -0.1663
20004W        W36078   5.436   0.490  11.405 -0.0625  0.3561  0.1453
20005W        W36079   3.077   5.393  15.782  0.2493  0.3928 -0.0104
20006W        W36080  12.413  13.067  13.059  0.2793 -0.3314  0.3465
20007W        W36081  17.880   8.208   0.773  0.2806 -0.1028 -0.1685
20008W        W36082   0.888   4.797   1.117 -0.0936 -0.1901  0.1927
20009W        W36083   0.661   5.421   3.965  0.4038  0.0222  0.0457
20010W        W36084   0.145  13.791  15.341 -0.1655 -0.1361  0.0477
20011W        W36085   1.102  14.413  13.916 -0.1885  0.0031 -0.0860
20012W        W36086   8.360   0.743  11.432  0.2228 -0.1190 -0.1395
20013W        W36087   3.676   5.371  11.821  0.3366  0.0966  0.1378
20014W        W36088   8.031   5.247   0.107  0.0153 -0.3173 -0.0734
20015W        W36089  15.704   1.823   2.136 -0.1975  0.2794  0.1100
20016W        W36090  18.100  14.137  13.215  0.1570  0.1935 -0.1702
20017W        W36091  13.216  14.876   5.813 -0.3297 -0.4306 -0.3462
20018W        W36092   2.460   5.859  11.970 -0.2523 -0.2079  0.2872
20019W        W36093   7.154  14.814  15.648  0.3689  0.3605  0.2621
20020W        W36094   9.970  14.518   2.319  0.2102  0.0017  0.3509
20021W        W36095  12.579   7.314   3.877  0.0824  0.1301 -0.0176
20022W        W36096   3.415  10.788  11.536 -0.2063 -0.0581  0.3121
20023W        W36097  12.524   9.776   2.950 -0.2938  0.1769 -0.2100
20024W        W36098   5.403  16.085  11.594 -0.0411  0.0160  0.0702
20025W        W36099  10.530  17.891  15.228  0.3685  0.1920 -0.3910
20026W        W36100   7.085  10.811  11.771 -0.1001  0.0148 -0.2495
20027W        W36101  17.093  16.980  12.010  0.2316  0.0857 -0.1521
20028W        W36102  11.654  17.610   0.165  0.0687  0.1196 -0.3030
20029W        W36103   2.564   1.602  15.642 -0.2856  0.0235  0.3010
20030W        W36104   6.873   3.228  13.636 -0.0008  0.0902  0.1815
20031W        W36105  11.537   9.261   4.873 -0.0511  0.1569 -0.1713
20032W        W36106   1.566   5.527   3.876 -0.0386 -0.0651 -0.0358
20033W        W36107   4.036   4.125  14.770  0.2432 -0.1519  0.0385
20034W        W36108   4.868   0.096   3.713  0.2672  0.2183  0.0732
20035W        W36109   8.601   1.691  13.066  0.0742 -0.0815  0.0762
20036W        W36110   5.304  16.826   5.390 -0.6232 -0.1908  0.3331
20037W        W36111  12.397   8.953   5.586  0.0106 -0.2054  0.0743
20038W        W36112  17.129  11.257  14.312 -0.0897 -0.0888 -0.0480
20039W        W36113  13.713  17.040  15.464  0.1164  0.3185  0.3861
20040W        W36114   0.192   8.474  14.109  0.1751  0.2877  0.1959
20041W        W36115  11.679   6.340  14.520 -0.0898  0.0649 -0.0169
20042W        W36116  13.972   0.245   2.999  0.2525  0.0514  0.0979
20043W        W36117  15.272   1.412  14.631  0.1037 -0.2213  0.1345
20044W        W36118   5.766  10.058   6.103 -0.1976  0.0012 -0.2454
20045W        W36119   4.156  12.274  14.068  0.0421  0.0413  0.3316
20046W        W36120  17.754   5.252   2.667 -0.0537  0.1885 -0.1996
20047W        W36121  12.359  12.577   4.284  0.0831  0.0776 -0.0127
20048W        W36122  13.032   5.570  14.448 -0.3218 -0.2742 -0.0493
20049W        W36123  12.593  10.419   4.150  0.3348 -0.0481 -0.5267
20050W        W36124   8.006   9.355   0.622 -0.0871  0.0098 -0.5939
20051W        W36125   4.638   7.036   1.992 -0.2195  0.0763  0.1592
20052W        W36126   3.938   3.624   4.408  0.1529  0.0167  0.0039
20053W        W36127   9.424   5.587  12.953  0.1342  0.2690  0.2031
20054W        W36128  15.301   2.497   1.566 -0.0167  0.1342 -0.1890
20055W        W36129   1.336  13.163   6.423  0.0522  0.0502 -0.0295
20056W        W36130  16.286  16.040   2.246  0.0486  0.1615  0.1198
20057W        W36131   0.918   8.926   4.077  0.2801  0.0565  0.1145
20058W        W36132   0.223   5.101  14.540  0.0032 -0.1867 -0.2135
20059W        W36133   6.050   7.627   4.360  0.2141 -0.2108  0.1348
20060W        W36134   2.326  16.761   3.622  0.0271 -0.4312  0.0147
20061W        W36135  11.109  17.134   6.167  0.1086  0.0338  0.0520
20062W        W36136  16.192  10.229   0.879 -0.1074  0.1151  0.5163
20063W        W36137  13.762  10.890  16.518  0.2112 -0.0850 -0.1964
20064W        W36138  10.272  13.157  11.782  0.5384 -0.1240  0.1231
20065W        W36139   0.272   6.523   1.865  0.0282  0.1689  0.0296
20066W        W36140   9.602   9.769   0.714 -0.0205  0.0483 -0.1038
20067W        W36141   5.656  15.981  12.041 -0.0950 -0.2230  0.0139
20068W        W36142   6.632   3.825   2.897  0.2536  0.1444  0.0452
20069W        W36143   5.089   1.596  16.456 -0.1462 -0.0693 -0.0414
20070W        W36144  16.760  10.597  14.889 -0.0587  0.4463  0.2542
20071W        W36145  10.513   9.456  14.636 -0.0259 -0.2970 -0.0750
20072W        W36146   7.923  13.977   2.949 -0.1159 -0.1336  0.1534
20073W        W36147   3.806   8.057   3.441  0.0153 -0.0477 -0.0373
20074W        W36148   6.154   9.087   4.628  0.0044  0.1174  0.1702
20075W        W36149  11.960   7.045  14.602  0.0990 -0.2578  0.2475
20076W        W36150   9.294  15.636  15.768  0.1625  0.2993  0.0854
20077W        W36151   1.816   7.778  12.027 -0.2595  0.1640  0.1183
20078W        W36152   0.506   7.552  11.670  0.0991  0.0999 -0.1778
20079W        W36153   6.785  10.277  15.226  0.1334  0.0884  0.2975
20080W        W36154  12.436   8.118  12.191  0.1701  0.3105 -0.1490
20081W        W36155   8.466   9.900   1.960 -0.0923 -0.1473 -0.2329
20082W        W36156   4.742   6.110  14.413  0.1700  0.1658 -0.3155
20083W        W36157   6.305   3.488  15.777  0.2338  0.0683  0.3904
20084W        W36158   1.026   5.086  14.778  0.3587 -0.0179 -0.2285
20085W        W36159  11.662   2.094  14.796  0.4037  0.2491 -0.0029
20086W        W36160   5.975   5.425  15.504 -0.2102 -0.1958  0.0382
20087W        W36161   2.923   7.460  10.715  0.0507 -0.0450  0.0921
20088W        W36162  13.153  11.549   4.322 -0.0611 -0.1382 -0.1393
20089W        W36163   2.845  13.389   5.245 -0.1028  0.2463 -0.1536
20090W        W36164   9.737  11.392   3.279 -0.0411 -0.1948  0.3104
20091W        W36165   3.785   2.777  13.598 -0.1519  0.1616 -0.0756
20092W        W36166   9.750  15.611   4.609 -0.1468 -0.1172  0.2913
20093W        W36167  16.018   6.120  15.211 -0.1918 -0.1292 -0.1068
20094W        W36168  17.198   5.362   3.392  0.3384  0.0045  0.1897
20095W        W36169  13.093   1.209   0.137  0.3413 -0.2277 -0.0422
20096W        W36170  14.732   6.326  14.039 -0.2330  0.0316 -0.2951
20097W        W36171   4.251   0.424   0.495 -0.0904 -0.0789 -0.2738
20098W        W36172   7.343   5.631   2.457  0.2103 -0.0078 -0.4009
20099W        W36173   4.961  18.137  12.372 -0.2727  0.0167 -0.1445
20100W        W36174  12.745   6.722   0.182  0.1799  0.0372 -0.0515
20101W        W36175   5.689   1.689  13.851 -0.2544  0.1270  0.0416
20102W        W36176   8.596  17.867  16.121 -0.2882 -0.1037  0.0996
20103W        W36177  11.610  13.438   2.983 -0.3548 -0.1862 -0.0608
20104W        W36178   3.048  15.194   2.994  0.0716  0.0508  0.2589
20105W        W36179   3.241  13.649   1.235 -0.1522  0.1526 -0.2315
20106W        W36180  10.830   8.188   4.000 -0.1543  0.0290  0.0176
20107W        W36181  13.321   0.832  13.951 -0.1464  0.1524  0.0611
20108W        W36182  10.061   1.586   2.847  0.2252 -0.0729  0.0496
20109W        W36183   6.349   0.175   1.550 -0.0033 -0.0097 -0.1576
20110W        W36184   8.473   4.105  15.709 -0.0372 -0.0336  0.3021
20111W        W36185   7.428   7.444   5.110 -0.1461  0.1463 -0.1435
20112W        W36186   4.499  14.391  13.119  0.0594  0.3358  0.1524
20113W        W36187   1.523   7.387  16.484 -0.1326  0.2054 -0.2226
20114W        W36188   1.932   1.726  11.186  0.2054  0.0146 -0.0645
20115W        W36189  16.644  14.198  15.334 -0.2931  0.1314  0.1436
20116W        W36190  17.765   1.273  12.580 -0.1121 -0.4403  0.0619
20117W        W36191   2.960  13.152  10.798 -0.0170  0.4861 -0.1062
20118W        W36192   4.571   2.264  12.389 -0.1137  0.1794  0.3302
20119W        W36193   4.411   9.072   1.104  0.0944  0.2680 -0.2551
20120W        W36194   2.406  14.605  14.075  0.2968 -0.2106 -0.0456
20121W        W36195   6.058  11.590   4.700  0.1136 -0.0306 -0.0950
20122W        W36196  13.964   1.062  13.380 -0.0092 -0.1586  0.1044
20123W        W36197   6.998   3.549  13.265 -0.0076  0.0387 -0.0952
20124W        W36198  13.352   7.614   4.972  0.1796 -0.1808  0.1720
20125W        W36199   6.024  12.777  16.212  0.1528  0.0426 -0.1055
20126W        W36200  14.274   4.586   1.922  0.0882 -0.0679  0.0391
20127W        W36201   9.236  13.144   4.514 -0.2099 -0.0909 -0.1284
20128W        W36202  13.449   2.318  12.646 -0.0001 -0.0910  0.0436
20129W        W36203  16.792   7.668   4.500 -0.3621 -0.0034  0.0036
20130W        W36204  13.275   6.012   1.840 -0.0234  0.1012 -0.2151
20131W        W36205   1.172   4.814  11.148  0.0549 -0.2423  0.1066
20132W        W36206  16.569   1.385  11.892  0.0593  0.2468 -0.0231
20133W        W36207   3.744   3.894  12.603  0.1909 -0.2106 -0.1181
20134W        W36208   0.095  15.932   2.247  0.2053  0.5636  0.0273
20135W        W36209  10.064  12.603   4.121 -0.1794 -0.1416 -0.0854
20136W        W36210   6.724  16.105   1.155  0.0379 -0.1957 -0.0976
20137W        W36211   2.059   0.511  11.136 -0.3196 -0.1716 -0.1935
20138W        W36212   3.259   7.767   4.528 -0.2590  0.1434 -0.0299
20139W        W36213  13.398   5.372  15.112  0.1516 -0.2084 -0.2279
20140W        W36214  10.638   6.433  14.627 -0.0288  0.0985  0.0942
20141W        W36215  15.837   7.860  15.085 -0.1040  0.0171  0.1300
20142W        W36216  17.306  10.120  15.777 -0.0284 -0.1897  0.0070
20143W        W36217   2.756   8.114  13.807 -0.1955  0.0935  0.1273
20144W        W36218   4.873   6.985  12.456  0.1324 -0.1027  0.1393
20145W        W36219   3.312  14.423  12.834 -0.0104  0.1657  0.4277
20146W        W36220  16.475  13.335   3.636  0.1955  0.2856 -0.3434
20147W        W36221  10.292  10.239  10.905  0.2101 -0.1258 -0.1935
20148W        W36222   3.339  14.538   2.418  0.0485 -0.2096  0.0419
20149W        W36223  12.195  10.905  13.861 -0.2150  0.2556 -0.3723
20150W        W36224   6.764   3.153  15.883  0.0809  0.0088  0.0853
20151W        W36225  13.436   9.216   3.874 -0.2340  0.1184  0.2461
20152W        W36226   2.996   6.401  14.219  0.1759 -0.2909 -0.4117
20153W        W36227   7.066  14.943  13.545  0.3154 -0.0865 -0.0210
20154W        W36228   8.161  12.943   0.831  0.0391 -0.0465 -0.0080
20155W        W36229   2.501   3.791  11.936  0.0792  0.0821 -0.2419
20156W        W36230  14.796  15.808   2.999  0.0127 -0.2691 -0.1203
20157W        W36231  11.043   3.192   2.353 -0.0420  0.0349  0.4061
20158W        W36232   8.269  10.873   1.973  0.0812  0.0457 -0.2057
20159W        W36233   5.144   1.052  13.723  0.0840  0.2244 -0.1430
20160W        W36234  11.272   7.829   1.559  0.0309  0.1107  0.0454
20161W        W36235   0.200   1.547   5.127 -0.0775  0.2961  0.2503
20162W        W36236  15.952  14.817   2.224  0.1492  0.1158  0.0425
20163W        W36237   8.122   6.609   0.863 -0.0651  0.3966 -0.1750
20164W        W36238   8.789  15.141   4.550 -0.1092 -0.0519 -0.0583
20165W        W36239   2.291   5.998  13.140 -0.0297 -0.0768  0.1392
20166W        W36240   8.020   3.982  13.532  0.2112  0.2095  0.1201
20167W        W36241   0.199  10.853  14.542  0.2146  0.0719 -0.0154
20168W        W36242   7.973   6.042   4.036 -0.1501  0.0831 -0.0786
20169W        W36243  15.118  13.125   3.517 -0.0089  0.0278 -0.0318
20170W        W36244   2.248  13.514   4.315 -0.0174 -0.1066  0.0467
20171W        W36245   5.940   5.030  11.778 -0.1153  0.0265  0.4088
20172W        W36246  13.604   8.262   0.365  0.0344 -0.0679 -0.0418
20173W        W36247  18.108   5.669   4.182  0.2091 -0.0558  0.2937
20174W        W36248   3.793  13.295  13.473  0.1663  0.2580 -0.0919
20175W        W36249   1.057  17.094  13.320  0.0330  0.0196  0.1351
20176W        W36250  13.773   1.093   5.310  0.1319  0.4207  0.0808
20177W        W36251  14.204  10.530   1.017 -0.1583 -0.2824 -0.0258
20178W        W36252   6.307   4.666  11.737 -0.2942  0.0042 -0.6553
20179W        W36253  10.083  12.047  13.725  0.2727  0.2022  0.1134
20180W        W36254   2.723  14.386   3.539  0.0141  0.2024  0.1069
20181W        W36255  14.593  12.603   1.433  0.0725 -0.0064 -0.3175
20182W        W36256  16.011   5.603   0.615 -0.0836  0.0318 -0.1030
20183W        W36257  17.149  14.657   0.142 -0.1163  0.0017 -0.3492
20184W        W36258   3.874  12.420   1.409  0.2028  0.4139 -0.1590
20185W        W36259  16.432   9.131  14.337  0.1108  0.0358  0.2673
20186W        W36260  14.878   2.608   3.793  0.0418 -0.0549  0.2559
20187W        W36261   4.799  18.166   0.826 -0.2603 -0.1097 -0.0228
20188W        W36262   2.647  11.595   0.298 -0.0892 -0.1240 -0.0370
20189W        W36263   9.051  12.195   4.825 -0.2264  0.2679  0.1338
20190W        W36264   8.887   8.696   5.730  0.1308 -0.2643  0.1371
20191W        W36265   3.236  16.995  15.306  0.0822  0.0060 -0.1229
20192W        W36266   4.199  11.225  14.758  0.1594  0.2462 -0.1638
20193W        W36267   0.202   2.357   2.339 -0.0173  0.0269 -0.3420
20194W        W36268  16.497   6.856   3.321 -0.1145 -0.1511 -0.1875
20195W        W36269   5.158  13.459  12.560 -0.0228  0.0441  0.2503
20196W        W36270  15.576   9.582  13.906 -0.1791  0.0325 -0.0259
20197W        W36271   5.169  10.187  15.181  0.2891 -0.4115  0.0817
20198W        W36272   9.591  13.155  15.150  0.2375 -0.0138  0.0604
20199W        W36273  10.693   9.089  15.613 -0.0494  0.1177  0.2484
20200W        W36274   8.140   5.249   5.253 -0.1349  0.0592  0.2084
20201W        W36275  10.415   2.175  12.172  0.1696 -0.2492 -0.0682
20202W        W36276  16.136  10.179  13.640  0.0993 -0.1370 -0.1197
20203W        W36277   8.055   0.200   0.479  0.1236 -0.1720  0.3668
20204W        W36278  10.297   3.488   3.737  0.0969 -0.0766 -0.0968
20205W        W36279  17.707  11.923   5.424 -0.1463 -0.1419  0.1204
20206W        W36280   0.586   4.820  12.470 -0.3582 -0.2921 -0.3456
20207W        W36281   9.392   1.859   3.455 -0.0952  0.0794 -0.0855
20208W        W36282   3.962  11.410  13.834 -0.2088 -0.2021  0.0250
20209W        W36283  13.908  15.745   3.209  0.0320  0.1982  0.1798
20210W        W36284  15.501  11.149  13.770  0.2737  0.1926  0.2157
20211W        W36285  17.428  10.948   5.288  0.1092  0.0411 -0.3837
20212W        W36286  12.416  11.917  14.579 -0.3510  0.0675 -0.0783
20213W        W36287   8.758   5.398  15.208  0.4265 -0.1674 -0.1430
20214W        W36288  14.030   9.665   5.783 -0.0143  0.0861  0.0455
20215W        W36289   7.895  16.930   3.995  0.1630  0.0335 -0.2192
20216W        W36290  12.000   5.299   0.762  0.3700  0.0889 -0.0367
20217W        W36291  10.344  17.721  12.179  0.0629  0.0703 -0.1654
20218W        W36292   0.321  18.134  16.209 -0.0247  0.0592 -0.1068
20219W        W36293   3.293  16.475  15.267  0.3068 -0.1067  0.1164
20220W        W36294  14.948  14.545  12.578 -0.1145 -0.2996 -0.0939
20221W        W36295  12.195   9.948   2.606 -0.0930 -0.0031  0.0916
20222W        W36296   2.249   5.752   1.184 -0.0124 -0.0827 -0.2395
20223W        W36297   8.225   6.301   3.398  0.0801  0.0677  0.2488
20224W        W36298   0.801   4.911   5.795  0.0879 -0.1069 -0.3662
20225W        W36299   5.857  17.368   3.703 -0.4021 -0.0309 -0.3847
20226W        W36300   5.812   4.223  16.240 -0.1162  0.0154  0.0892
20227W        W36301   3.556   5.903  15.202  0.0564  0.1214 -0.1062
20228W        W36302  16.726   7.704   1.901 -0.2094  0.0515  0.2186
20229W        W36303  10.900  14.042  12.926  0.0918 -0.1477 -0.0758
20230W        W36304  11.836   7.958   1.061  0.0849  0.0624  0.0325
20231W        W36305  16.448   2.473   4.740 -0.1449 -0.0679  0.2665
20232W        W36306   3.120  17.333   0.356  0.0861 -0.1743 -0.1731
20233W        W36307  17.287  15.436  12.084  0.1683  0.0060 -0.1627
20234W        W36308   0.878  13.929   1.252  0.1641 -0.0386 -0.0218
20235W        W36309  10.728   2.449  15.946  0.1654 -0.0572 -0.1456
20236W        W36310  13.729  16.720  16.385 -0.2392 -0.2683  0.0685
20237W        W36311  12.043  12.569   2.923  0.0305  0.2182 -0.0275
20238W        W36312   5.134   2.379   0.753  0.0811 -0.0361 -0.0072
20239W        W36313   9.381   9.160   1.188 -0.2334  0.0180  0.2122
20240W        W36314   2.569   5.874  15.120  0.1249 -0.2253  0.0364
20241W        W36315  12.391  14.917  12.217  0.0816  0.0341  0.0676
20242W        W36316   3.979  10.104   2.721 -0.0658 -0.1812 -0.0204
20243W        W36317  10.930  13.569   1.270  0.3551 -0.2135 -0.2712
20244W        W36318   8.950  13.940   3.556 -0.3070  0.3623  0.3803
20245W        W36319   8.952   1.963   1.855  0.2478 -0.0678 -0.2811
20246W        W36320   2.115   5.183  15.567  0.0819  0.3283 -0.2587
20247W        W36321   7.029   1.304  15.020 -0.1743  0.0135  0.0307
20248W        W36322  16.111  18.040   4.450 -0.2440  0.1621 -0.0658
20249W        W36323  11.370  12.192   2.404  0.0822  0.2555  0.1158
20250W        W36324   9.353   1.010  15.398  0.1400 -0.2551  0.0934
20251W        W36325  12.268   4.532  12.211 -0.1979  0.1196  0.1923
20252W        W36326  12.847  11.844  11.877 -0.0085  0.2551 -0.0475
20253W        W36327   6.296   8.031   5.463 -0.0081  0.2415  0.0318
20254W        W36328  15.828   3.095  12.013  0.2815 -0.4470 -0.2601
20255W        W36329   5.687   6.507   2.949 -0.4758 -0.0147 -0.1880
20256W        W36330   8.261   7.718  13.400 -0.1840  0.0375 -0.0075
20257W        W36331   6.783   2.853   4.890  0.1741 -0.0096 -0.1549
20258W        W36332   1.656  11.937   3.161  0.2641  0.0837 -0.3151
20259W        W36333   8.470   9.058  13.147  0.0970 -0.1625  0.0598
20260W        W36334  16.266   7.637   2.123 -0.0564 -0.1989 -0.3156
20261W        W36335   6.564   5.652   5.562 -0.1626  0.0722  0.0953
20262W        W36336  11.566   9.893   6.409 -0.0139  0.6445 -0.1457
20263W        W36337  10.977  17.518   0.877  0.1007 -0.0864  0.0148
20264W        W36338   9.845  14.441  11.975  0.1014  0.1737  0.0607
20265W        W36339   2.907   1.426  11.003  0.0085 -0.1271  0.0174
20266W        W36340   1.214  12.889  15.805 -0.3184  0.1525  0.0962
20267W        W36341  13.587  15.584   4.177 -0.0947  0.1436  0.0568
20268W        W36342  10.361  12.323   5.537  0.1523 -0.2972  0.0031
20269W        W36343  10.945  18.088  15.502 -0.1048  0.1197  0.1185
20270W        W36344  16.005   6.093   0.356 -0.1300 -0.0886 -0.0613
20271W        W36345  12.971   3.798   2.002  0.0955  0.0997  0.1355
20272W        W36346   1.614  12.737   0.270  0.0498 -0.0848 -0.2240
20273W        W36347  12.739  14.114  14.126  0.3156  0.1531 -0.0127
20274W        W36348   8.872  15.065   5.171  0.0769  0.3277  0.2135
20275W        W36349  11.759   2.498  16.149  0.2965  0.2430 -0.0506
20276W        W36350  12.455   4.597   2.372 -0.0234  0.0198  0.0701
20277W        W36351   9.006   3.846   2.075 -0.1352  0.1503  0.1061
20278W        W36352  16.462   1.991  12.757  0.3529  0.0641  0.0507
20279W        W36353   0.296   8.429  13.228 -0.0380 -0.1303  0.1257
20280W        W36354   2.343   5.400   1.591 -0.1202 -0.0533 -0.1100
20281W        W36355   3.477   4.434  15.067 -0.0916 -0.0975  0.1542
20282W        W36356  17.540   2.843   4.085  0.2099  0.0930  0.1527
20283W        W36357   4.247   7.552   0.013 -0.0611 -0.1906  0.0745
20284W        W36358  15.129  15.342   4.679  0.0058 -0.3083  0.1995
20285W        W36359  13.210   8.679   5.262  0.0110  0.0214  0.0213
20286W        W36360   5.486   9.711  13.091 -0.1674  0.2991  0.0227
20287W        W36361  12.325   8.805   2.681  0.1017  0.2177  0.2015
20288W        W36362  16.581   3.056   0.218 -0.1562 -0.2157 -0.0218
20289W        W36363   2.197   0.540   1.904  0.2895 -0.1287 -0.2353
20290W        W36364  11.722   3.325  12.421 -0.1076  0.2567 -0.2896
20291W        W36365   8.788  11.104  12.250 -0.3071  0.0297 -0.0624
20292W        W36366  10.104   5.203   5.397  0.0211 -0.0094 -0.0118
20293W        W36367  10.493   9.645   6.182 -0.0320  0.1372 -0.0329
20294W        W36368   1.470  17.255  11.479  0.2521 -0.0956 -0.0639
20295W        W36369   7.688  14.104   4.328  0.1090 -0.1213 -0.2965
20296W        W36370   9.904   5.919   1.913  0.2215 -0.0575  0.1743
20297W        W36371   7.118  11.811  14.919 -0.0087  0.0419 -0.3400
20298W        W36372   7.345  11.911  11.519 -0.0302  0.0215 -0.1012
20299W        W36373   1.063   6.243   3.836 -0.0012 -0.1630 -0.2057
20300W        W36374  16.296   3.475  14.607  0.4466 -0.2157  0.1821
20301W        W36375   0.220  12.899   6.237 -0.1140 -0.0541  0.0687
20302W        W36376   8.882  11.835  13.008  0.3150  0.2448 -0.2511
20303W        W36377   5.295   2.552  11.311  0.0259  0.0474 -0.0049
20304W        W36378  15.866   4.872   2.353  0.1142 -0.1108 -0.3253
20305W        W36379  10.113   7.740  12.379  0.2225  0.1277  0.0802
20306W        W36380  11.012   8.222  13.510 -0.2485 -0.1287  0.0072
20307W        W36381   9.658  11.303  14.337 -0.2951 -0.0093  0.4190
20308W        W36382  10.703   1.107   5.103  0.3685  0.3855 -0.2903
20309W        W36383   5.740   3.034   2.174  0.0002  0.1572  0.0131
20310W        W36384   3.300   6.636   1.837  0.0565  0.2241  0.1750
20311W        W36385  14.895   0.803   0.883 -0.0972 -0.9401  0.0982
20312W        W36386   5.292  17.429   4.880 -0.0067  0.1422 -0.0150
20313W        W36387   9.360   1.135   5.333  0.0493 -0.0098 -0.2476
20314W        W36388   4.254  11.749  12.090  0.0611 -0.0525 -0.1979
20315W        W36389  15.180   3.169   2.618  0.0826  0.0526  0.0504
20316W        W36390   5.019  11.155  12.373  0.1117 -0.0842 -0.2112
20317W        W36391  12.788  17.811   4.817  0.0450  0.0579  0.2822
20318W        W36392   3.105  15.305   2.491  0.0080 -0.0467  0.0800
20319W        W36393   8.851   8.120   4.938 -0.2668 -0.1924  0.2303
20320W        W36394  10.766   3.217   0.627  0.4975 -0.2340  0.3084
20321W        W36395   6.492   5.416   3.225  0.0186  0.2304 -0.1482
20322W        W36396  16.536  12.386  16.482 -0.2823 -0.0492  0.0977
20323W        W36397  14.692   9.238   2.181  0.1199 -0.0175 -0.1094
20324W        W36398  16.265  10.672   2.875  0.2211  0.1760  0.1639
20325W        W36399  15.864   4.572  13.473  0.1143  0.3606 -0.0605
20326W        W36400   9.821   0.032  14.036 -0.2487  0.4040  0.2694
20327W        W36401  12.786   2.947  14.149 -0.1020  0.3031 -0.1605
20328W        W36402   7.894  10.559   1.854 -0.1444  0.0034 -0.2874
20329W        W36403  10.337   5.523   0.544  0.3969  0.1720 -0.0360
20330W        W36404  17.016  15.830  14.335  0.0998  0.2099  0.1255
20331W        W36405   5.311   9.188  13.743  0.3408 -0.1439 -0.1566
20332W        W36406  16.572  16.329   2.980 -0.1112  0.1411 -0.1479
20333W        W36407   9.176   4.762   5.535 -0.2536 -0.0282  0.0303
20334W        W36408   0.630  15.204   1.032  0.3539 -0.1099 -0.1465
20335W        W36409   5.208   7.027   2.077  0.0120  0.1777  0.0277
20336W        W36410   1.432   5.114  10.797  0.3206  0.1500  0.0893
20337W        W36411   3.611   8.849   0.915  0.1917 -0.0296  0.0714
20338W        W36412  13.948   4.493   4.286 -0.2490 -0.1767  0.3809
20339W        W36413   8.447   9.033  14.114  0.1017 -0.1193  0.1927
20340W        W36414   1.133  17.714   3.247  0.0357  0.1752  0.1530
20341W        W36415   9.825  12.272   0.572 -0.2777  0.1453  0.1242
20342W        W36416   0.004  17.165   4.498  0.2734 -0.0176 -0.1756
20343W        W36417   6.539  15.743   4.121  0.0638 -0.3196  0.0419
20344W        W36418   9.454   0.821   0.095 -0.1599  0.2814 -0.0923
20345W        W36419  10.739   8.825  12.347  0.5727  0.4387 -0.0032
20346W        W36420  16.784  13.033  12.952  0.2882 -0.3864 -0.0906
20347W        W36421   7.206   3.067   3.470 -0.0843  0.1640  0.0612
20348W        W36422   6.908  17.759   2.973 -0.0020  0.0717  0.2819
20349W        W36423  12.375   5.044   2.142  0.0044 -0.1328 -0.0689
20350W        W36424  14.227   7.578   4.387 -0.0601  0.0815  0.2838
20351W        W36425  10.610  12.835   5.371 -0.0576 -0.0157  0.1225
20352W        W36426  11.628  13.732   3.974  0.4658  0.3404 -0.0122
20353W        W36427   9.678  16.652   0.120 -0.2679 -0.0460  0.3949
20354W        W36428  18.226  16.875   2.928  0.1134  0.1110  0.1288
20355W        W36429   9.758  10.929   2.170  0.2928  0.0096  0.1434
20356W        W36430  11.016   0.723   5.370 -0.1589  0.0890  0.0301
20357W        W36431   4.828  15.995  14.260 -0.1621 -0.0906  0.1353
20358W        W36432   6.038   5.527   1.823  0.1978  0.0113  0.2756
20359W        W36433  13.725  14.400  13.113  0.0491  0.2207 -0.0700
20360W        W36434   0.370   5.093  15.317 -0.1892  0.0393 -0.0130
20361W        W36435   6.369  10.067   0.194 -0.0656  0.0196 -0.1524
20362W        W36436  13.499   0.187   3.215 -0.2414  0.0580  0.2466
20363W        W36437  14.686  10.888   2.567  0.1637 -0.0974 -0.1611
20364W        W36438   2.341  16.985  14.903  0.0631  0.3174  0.1921
20365W        W36439  16.508   2.826  13.134 -0.0590  0.0614  0.1500
20366W        W36440  11.943  15.989   1.700 -0.0691 -0.0532  0.0395
20367W        W36441  12.151   6.561   0.824 -0.2112 -0.0025  0.2551
20368W        W36442   6.881  12.046   1.995 -0.2108 -0.0918 -0.0740
20369W        W36443  13.940   9.230   3.917 -0.1133  0.1622 -0.1625
20370W        W36444   7.635   2.668  15.701 -0.1510 -0.0044  0.1606
20371W        W36445   4.667   9.131  15.603  0.0106  0.1368  0.0067
20372W        W36446  13.553  10.040  11.626  0.0922  0.0030  0.1842
20373W        W36447   0.999  14.413  16.440  0.1392  0.1385 -0.1919
20374W        W36448  10.168  14.885  16.409 -0.0569 -0.1226 -0.0844
20375W        W36449   5.586   8.551   0.504  0.3970  0.0526  0.0580
20376W        W36450  13.106   3.626   1.533  0.1107  0.3273 -0.2552
20377W        W36451  13.834   5.548  13.465  0.1986 -0.0814  0.1863
20378W        W36452  11.347   8.785  15.446  0.0830  0.2881 -0.3057
20379W        W36453  16.801  10.097   2.617 -0.1056 -0.0477  0.0088
20380W        W36454   8.361   0.311  14.544 -0.0936  0.2463  0.0546
20381W        W36455   1.661   0.571   1.792  0.0190 -0.1006  0.1336
20382W        W36456  13.630  13.211   0.705 -0.0944  0.1759 -0.0940
20383W        W36457   1.351   6.512   1.758 -0.1391 -0.1763 -0.0597
20384W        W36458  14.507  12.846   0.259  0.2581 -0.0155  0.3309
20385W        W36459  17.601   8.157  15.872  0.0274  0.2468  0.2684
20386W        W36460   5.742  17.462  12.160 -0.2076  0.1509 -0.0047
20387W        W36461   0.032   3.801  15.683 -0.1649 -0.1882 -0.0526
20388W        W36462  10.879  11.001  16.137 -0.0212 -0.2132  0.2341
20389W        W36463   3.120   4.023  11.445 -0.2461 -0.0718 -0.1679
20390W        W36464  15.941  11.717   4.630 -0.1415 -0.0101 -0.7411
20391W        W36465  13.960   2.837   4.752 -0.1788 -0.0195  0.2824
20392W        W36466   8.426  13.693   4.898  0.1014 -0.3297  0.3307
20393W        W36467  12.328   6.561  12.530  0.1377  0.2632 -0.2793
20394W        W36468   3.144  15.054  11.429  0.0560 -0.1675  0.3431
20395W        W36469  13.373   4.343   2.608  0.3039  0.1214  0.0073
20396W        W36470   2.986   4.597  15.956 -0.1224 -0.1804 -0.3550
20397W        W36471   5.375  10.006   1.212 -0.3544 -0.0064 -0.0768
20398W        W36472   8.459   8.153  13.472  0.1046  0.1218  0.1834
20399W        W36473  16.470  17.455  16.227  0.0286 -0.3810  0.1554
20400W        W36474   8.433   4.402   1.847  0.2138  0.2157 -0.0442
20401W        W36475   4.778   1.729  13.931  0.1138 -0.0851  0.0834
20402W        W36476  13.752  13.690   5.213  0.1392 -0.4333  0.5164
20403W        W36477  12.906   9.431  11.387 -0.0531 -0.1809 -0.2232
20404W        W36478  10.847  12.244   1.519 -0.0630 -0.1148  0.1731
20405W        W36479  13.741   7.134  13.154  0.0265  0.0584  0.0362
20406W        W36480   9.623   7.621   4.574 -0.0782 -0.4383  0.1354
20407W        W36481   2.196   0.459  16.018  0.0850  0.0276 -0.0859
20408W        W36482   0.819  13.641   4.022  0.0430  0.1180 -0.1069
20409W        W36483   7.074  16.211  12.299  0.0618  0.0615 -0.2684
20410W        W36484   8.486  17.131  13.466 -0.2844 -0.2639 -0.3390
20411W        W36485  17.758   7.643   0.167  0.1556 -0.2514 -0.2181
20412W        W36486  15.290  16.290   2.903  0.3455 -0.2400 -0.1396
20413W        W36487  13.987  11.503   1.388 -0.1642 -0.0007  0.0784
20414W        W36488  14.718   1.280  15.492  0.1431  0.3485 -0.1307
20415W        W36489   5.720  17.567   5.243  0.1837 -0.3887  0.1869
20416W        W36490   0.483  11.654  12.121  0.2333 -0.0191  0.2854
20417W        W36491   4.752   5.918  12.998  0.0493 -0.0532 -0.2194
20418W        W36492   5.843  14.779  11.162  0.0690 -0.0063 -0.1206
20419W        W36493  14.901   0.555  14.168 -0.3556 -0.2302 -0.1561
20420W        W36494   3.159   3.848   3.387  0.2498  0.6471 -0.1643
20421W        W36495  14.952  13.318   5.190 -0.2588 -0.0822  0.0706
20422W        W36496   1.848  11.648  15.724 -0.0228 -0.0961 -0.1242
20423W        W36497   6.497  13.500   2.609  0.0563  0.0371 -0.2558
20424W        W36498   7.500  11.009   4.625 -0.0021 -0.0576 -0.1046
20425W        W36499  15.021   9.943  13.993  0.0116  0.0181  0.0213
20426W        W36500   9.506  13.360   3.215 -0.1414 -0.0447  0.1491
20427W        W36501   1.384  16.758   2.181 -0.0701  0.1068 -0.1732
20428W        W36502   8.136   3.029   5.764 -0.0061 -0.1951  0.0291
20429W        W36503  15.095  10.542  15.010 -0.1345  0.1718 -0.1491
20430W        W36504  10.420   3.759  14.914  0.1778  0.0673  0.0508
20431W        W36505   0.648   6.991   5.999  0.0745  0.2386 -0.1622
20432W        W36506   9.927  11.166  15.433  0.3517  0.2479  0.1070
20433W        W36507  13.866   8.026  14.268 -0.3702  0.0052  0.0279
20434W        W36508   0.836   1.440  16.390  0.0149 -0.0178  0.1224
20435W        W36509   4.711   5.077   1.420 -0.0444  0.1413  0.0617
20436W        W36510   1.895   7.162  13.845  0.3894 -0.1150  0.0495
20437W        W36511   7.224  11.095   2.913  0.1118  0.1784  0.1627
20438W        W36512  18.000  12.714   1.363 -0.1220  0.1454 -0.1139
20439W        W36513  11.617  15.467   5.320  0.3080 -0.0916 -0.3021
20440W        W36514   4.962  12.930   2.749  0.0310  0.2218 -0.2294
20441W        W36515   8.428   3.112  11.726 -0.2778  0.0178  0.1297
20442W        W36516   1.741  14.659   4.328  0.0153  0.0663 -0.2288
20443W        W36517   5.968  12.401   0.640  0.0980 -0.2569 -0.2148
20444W        W36518  14.512  12.789   5.327  0.0954  0.2419  0.3026
20445W        W36519  11.677  10.901  13.084 -0.0840 -0.0404  0.0964
20446W        W36520  11.183  12.682   1.317 -0.0201  0.0840  0.0351
20447W        W36521  12.877   7.284  16.037  0.0626  0.0761 -0.2678
20448W        W36522   8.971   6.644  14.778 -0.2792 -0.1035  0.3398
20449W        W36523   9.132   2.708  11.628  0.3562 -0.1182 -0.2072
20450W        W36524   2.766   8.652  14.581  0.0782  0.3079 -0.1212
20451W        W36525  11.906  14.357  16.192 -0.0812 -0.1337  0.0140
20452W        W36526   8.153  10.832  11.793 -0.1403 -0.0397 -0.5063
20453W        W36527   8.051   1.266  13.302  0.2034 -0.1054  0.2959
20454W        W36528  11.297   8.767   3.562  0.0812 -0.0000 -0.2810
20455W        W36529  14.075  11.934   5.256  0.0896  0.0666 -0.0674
20456W        W36530  10.186   9.466  16.390 -0.0168  0.0422  0.1873
20457W        W36531   9.397   5.282  14.075  0.1377  0.2354  0.1132
20458W        W36532   7.565   3.883  13.235  0.2574 -0.1380 -0.0365
20459W        W36533  12.315   9.695   4.381 -0.1212  0.4072 -0.0974
20460W        W36534   9.193   1.289   4.835 -0.1077  0.1339  0.1776
20461W        W36535   4.181   8.906  12.168 -0.0211 -0.1768 -0.0955
20462W        W36536   1.704  13.388   1.505  0.0831 -0.1209  0.0885
20463W        W36537  12.421   7.569   3.424 -0.1648  0.2799  0.1814
20464W        W36538   3.917  10.379   2.203 -0.3722  0.0135  0.0921
20465W        W36539   2.852  14.573  12.543 -0.0146 -0.2432  0.1720
20466W        W36540   9.253   3.398  12.131  0.1866 -0.2681  0.3029
20467W        W36541   4.869  10.727  12.553  0.3950  0.0820  0.2813
20468W        W36542   9.169  15.069  14.891 -0.2735  0.3264  0.1606
20469W        W36543  17.160  13.632  14.130  0.0527  0.0679 -0.0142
20470W        W36544   0.715  13.963   4.757 -0.0472  0.1254  0.1742
20471W        W36545   6.800   2.412   2.853 -0.0218  0.3855  0.0376
20472W        W36546  13.081  15.737  15.175  0.2946 -0.0310  0.1263
20473W        W36547   6.749   9.072   6.332 -0.0769  0.1739 -0.1080
20474W        W36548   0.843  10.922   5.107 -0.1180  0.0196 -0.2222
20475W        W36549   4.194  13.628  14.165 -0.1796 -0.5808 -0.1562
20476W        W36550   6.911   0.996  15.871  0.2977  0.0904  0.0508
20477W        W36551   9.675  10.026  11.830 -0.3214  0.2312 -0.0658
20478W        W36552   6.259   9.740  13.096  0.0127 -0.2207  0.2844
20479W        W36553  17.042  14.491  16.223 -0.0220 -0.1406  0.1404
20480W        W36554  13.232   2.687   2.715  0.1549 -0.2305 -0.2528
20481W        W36555   1.010   8.536  16.081  0.0457 -0.0072 -0.2475
20482W        W36556   6.347  11.727  15.269  0.2231 -0.5780  0.2404
20483W        W36557   5.702   5.192   3.123 -0.2966 -0.1091 -0.0895
20484W        W36558   2.080   9.185  15.623 -0.0523 -0.0607 -0.2700
20485W        W36559  17.098   2.718  14.468 -0.1464 -0.1650  0.0167
20486W        W36560  11.109   5.647   0.714  0.0254  0.0352 -0.1401
20487W        W36561   0.269   3.551   2.350 -0.3957  0.1554  0.1186
20488W        W36562  14.292   8.535   1.790 -0.0443 -0.0155 -0.0083
20489W        W36563  14.035   5.981   2.274  0.0790  0.0101  0.1580
20490W        W36564   5.776   1.491   1.678  0.2081  0.0038  0.2071
20491W        W36565   2.890  16.156   0.725 -0.1361  0.0027  0.0484
20492W        W36566   4.843   5.922  12.440 -0.0580  0.2307 -0.2133
20493W        W36567  16.463   9.648  15.423  0.0746 -0.0388 -0.1693
20494W        W36568   2.258  11.917  13.238 -0.0989 -0.0887 -0.0104
20495W        W36569   1.565   1.314   2.347 -0.0406 -0.0252  0.2449
20496W        W36570  11.252   7.433  12.010 -0.3766 -0.2661 -0.4593
20497W        W36571   2.013   6.927   1.168 -0.0076 -0.1121  0.2679
20498W        W36572   3.778   8.220   0.839 -0.1062 -0.3177  0.0925
20499W        W36573   3.897  11.434  14.359 -0.3930  0.3987  0.0862
20500W        W36574  17.150  14.078  13.917 -0.2421 -0.2325 -0.0091
20501W        W36575  15.330   2.415  14.739  0.2393 -0.4330 -0.0642
20502W        W36576  16.736   7.605  14.299 -0.0059  0.0112 -0.1738
20503W        W36577   2.082   6.219  16.089  0.0754 -0.1177  0.1045
20504W        W36578   0.862   3.233   5.880  0.2771  0.2680  0.0757
20505W        W36579   0.400   5.573  15.488 -0.0059 -0.4808 -0.0248
20506W        W36580   5.371   0.275   2.255  0.1440  0.0179 -0.1726
20507W        W36581   5.658  15.422  11.518 -0.1141  0.0096 -0.0886
20508W        W36582   9.351   6.752   1.723 -0.1013 -0.3026  0.1501
20509W        W36583  17.111  17.719   4.506 -0.0299  0.1247 -0.0549
20510W        W36584   5.399  16.400   4.547 -0.2071  0.0891 -0.0123
20511W        W36585   4.501  10.315  14.375  0.2571 -0.4575 -0.0507
20512W        W36586  16.120   3.876   4.531 -0.1637 -0.1000  0.1039
20513W        W36587   6.427   8.330   2.201 -0.0877 -0.2800  0.1316
20514W        W36588   4.736  14.667   3.778 -0.2728  0.1194 -0.2091
20515W        W36589  14.584   4.850  12.528  0.4432 -0.0510 -0.0136
20516W        W36590  10.674  12.496   1.965  0.0966  0.1288  0.1444
20517W        W36591   3.975  16.118  14.650 -0.3617  0.2271 -0.0517
20518W        W36592   1.098   6.030  10.826 -0.3409 -0.1577  0.2253
20519W        W36593  12.782  12.966   0.697 -0.1331 -0.0253 -0.2935
20520W        W36594  16.095  12.908  15.035  0.1735  0.0818 -0.0782
20521W        W36595   3.219   7.488   4.058 -0.1759 -0.1850 -0.1604
20522W        W36596   2.720   7.138  14.859  0.3657 -0.4178 -0.1334
20523W        W36597  11.239  17.475  11.878  0.0991  0.0868 -0.0892
20524W        W36598   2.624  11.218   2.911 -0.0784  0.1470 -0.2871
20525W        W36599   1.421   8.957  11.283  0.1551  0.0720 -0.3021
20526W        W36600   8.250   5.162   4.714  0.0648  0.1117 -0.3166
20527W        W36601   8.191   9.894  12.227  0.2325  0.1197  0.0444
20528W        W36602  16.368   3.242   5.308  0.0438 -0.2843  0.0735
20529W        W36603  15.132   2.878   5.184  0.1608 -0.1312  0.2240
20530W        W36604   6.827   2.291  12.366 -0.2895 -0.1070 -0.1023
20531W        W36605   4.245   4.793   1.666  0.1337 -0.0417  0.0508
20532W        W36606  12.571   7.319   1.399  0.0851 -0.0182  0.0440
20533W        W36607  13.867   1.242   0.468 -0.1825 -0.2183  0.0505
20534W        W36608   7.622  13.165   2.474 -0.1325  0.0964  0.0935
20535W        W36609  17.488  16.476   1.998  0.1732 -0.3123  0.1054
20536W        W36610  16.353   1.598  13.156 -0.0981 -0.1443  0.3657
20537W        W36611   9.765  12.607  16.349  0.1954 -0.0295  0.0930
20538W        W36612   1.825   1.770   3.967  0.2161  0.0693  0.6048
20539W        W36613   6.965   1.701   5.521  0.0988  0.1036  0.0497
20540W        W36614   6.544  16.482  15.148  0.3409 -0.1967  0.2827
20541W        W36615  10.805  13.025  15.543 -0.2637 -0.0176  0.2048
20542W        W36616   4.132  12.633   1.041 -0.2647  0.0841 -0.1013
20543W        W36617  17.638  12.624   0.201  0.0116 -0.0049 -0.1349
20544W        W36618   0.071   7.142  13.807 -0.2957  0.1919 -0.0200
20545W        W36619   6.384  16.361  14.675  0.1071  0.0143  0.2497
20546W        W36620   7.358  12.695   3.619  0.3114 -0.1422  0.2716
20547W        W36621  11.067   8.511  11.985  0.1012  0.1842 -0.1363
20548W        W36622  11.507   6.609  12.358  0.0071 -0.0691 -0.0436
20549W        W36623   0.246   4.638  10.581  0.1324 -0.1239 -0.1751
20550W        W36624   0.313   8.167  11.740 -0.1427 -0.0492  0.3442
20551W        W36625   5.340   4.565   4.463 -0.0244 -0.1859  0.0239
20552W        W36626   4.580  11.348   3.356 -0.0629  0.0394  0.1381
20553W        W36627  14.472   7.199   2.277 -0.0085 -0.2656  0.0117
20554W        W36628  10.505  10.468   5.965 -0.0504 -0.2493  0.2635
20555W        W36629  16.843  10.830   3.412 -0.1911 -0.5201  0.1767
20556W        W36630   2.311   9.539   6.077  0.0359  0.1372  0.1144
20557W        W36631   1.071  11.755   2.513  0.2221 -0.2248  0.1186
20558W        W36632   2.454   9.441  15.387  0.0030  0.0374  0.0742
20559W        W36633  18.111  10.909  15.475  0.0209 -0.1290  0.1442
20560W        W36634  14.484   5.378   2.448  0.2717 -0.1992  0.0584
20561W        W36635   7.799   5.967   4.521 -0.0563  0.5269 -0.0716
20562W        W36636  14.258  12.535   0.649 -0.2242  0.2508  0.5275
20563W        W36637  16.807   6.137  12.255 -0.0436 -0.0882 -0.0330
20564W        W36638  12.336   3.298  13.350 -0.0292 -0.1675  0.3148
20565W        W36639  12.917  16.553  15.689  0.0178  0.0345 -0.1081
20566W        W36640   7.801   8.932   0.552  0.0745 -0.2177 -0.0767
20567W        W36641   8.919   4.704   3.221 -0.0130  0.2175 -0.0680
20568W        W36642   7.736  15.958   5.701  0.0188 -0.2308 -0.0651
20569W        W36643  13.123   0.540   3.151  0.2338  0.0436  0.2241
20570W        W36644  10.120   0.924  11.474 -0.1461  0.1239  0.3072
20571W        W36645   5.395   1.530   5.682  0.0719  0.1966 -0.0033
20572W        W36646  13.407  11.299   3.661 -0.2127 -0.0992  0.0386
20573W        W36647   9.474  17.727   1.276  0.1441 -0.0630  0.0299
20574W        W36648   9.036  12.633  16.495 -0.0387  0.0302  0.1242
20575W        W36649  17.940  11.453  12.924 -0.0096 -0.0135 -0.0708
20576W        W36650   4.929  10.531  12.116 -0.2082 -0.0118  0.0717
20577W        W36651   3.915  10.580  16.044 -0.2419  0.1862 -0.1705
20578W        W36652   5.591  10.555  11.048 -0.2367  0.0903  0.1720
20579W        W36653   4.246   1.592   5.367  0.1788  0.2420 -0.0554
20580W        W36654   9.700   1.141  12.370  0.0366  0.0372 -0.2188
20581W        W36655   1.288  13.140   0.266 -0.0341 -0.0486 -0.2067
20582W        W36656  14.092   3.063   0.389 -0.2222  0.0051 -0.1732
20583W        W36657  15.836   9.563   5.353  0.2401  0.2670 -0.1070
20584W        W36658  10.724   8.887   0.041 -0.1239 -0.0190  0.0480
20585W        W36659  11.928   2.940  11.395 -0.0814 -0.1795  0.0844
20586W        W36660   5.277   8.224   2.629  0.0708 -0.2143 -0.2213
20587W        W36661   4.904   9.729   4.963 -0.1501  0.1840  0.1258
20588W        W36662  10.945  14.345  13.462  0.2656  0.2728  0.0839
20589W        W36663   4.365   5.695   1.599  0.0516  0.0026 -0.4805
20590W        W36664   2.237   4.351   5.202 -0.1943  0.1251 -0.2023
20591W        W36665  12.166   7.604   5.815 -0.4041 -0.2080 -0.2428
20592W        W36666   7.916   5.845  12.027 -0.2430 -0.1518 -0.0783
20593W        W36667   6.105   7.192   6.203  0.0239 -0.1986 -0.1271
20594W        W36668   4.611   7.705   3.734  0.0635  0.1709  0.0921
20595W        W36669   1.112   9.241  15.135  0.0062 -0.1188  0.0100
20596W        W36670  16.403   2.050  14.441  0.3210 -0.4326 -0.2227
20597W        W36671   6.383  12.155   1.881  0.1144  0.0420  0.2947
20598W        W36672  18.118   5.482  14.815 -0.0014  0.1977  0.0591
20599W        W36673   2.924  17.022   1.918 -0.3117 -0.4811  0.0121
20600W        W36674   7.146  15.987   6.116 -0.0836  0.2437 -0.2440
20601W        W36675  16.660   0.340   2.587  0.0490  0.1614 -0.1018
20602W        W36676   7.033  10.706   0.190 -0.0077 -0.0655 -0.1319
20603W        W36677  11.391   9.520   2.435 -0.0066  0.0639  0.1509
20604W        W36678   2.375   0.098   2.577  0.0763 -0.0578 -0.1303
20605W        W36679   6.116  12.831   2.977  0.0903 -0.2884 -0.0316
20606W        W36680  12.017   4.837   4.686 -0.2124  0.1481 -0.5101
20607W        W36681   9.920  10.661  16.280 -0.1610  0.0277 -0.2315
20608W        W36682  13.876   0.749   1.741 -0.0816  0.0025 -0.3002
20609W        W36683  15.803   3.436   2.566  0.1226  0.1974  0.1445
20610W        W36684  12.131   6.193  14.675  0.2650  0.0522 -0.1447
20611W        W36685   2.740   8.983  13.387 -0.1115  0.1268 -0.1205
20612W        W36686   4.258   1.210  13.344  0.3167 -0.1450 -0.4833
20613W        W36687   1.473  14.574  14.450 -0.0134  0.0320  0.1651
20614W        W36688  12.565   6.700  13.523 -0.2118  0.3293  0.3743
20615W        W36689  10.226   3.190  11.490  0.1373 -0.2595 -0.0895
20616W        W36690  16.582  15.728   3.298  0.2014  0.2267 -0.1902
20617W        W36691   2.906   0.202  13.796  0.0664 -0.0045 -0.0250
20618W        W36692  14.478   6.374  15.520  0.2079  0.0664 -0.3452
20619W        W36693   9.290   7.293  11.796  0.2194 -0.0131  0.0162
20620W        W36694   1.292   7.456  12.768  0.3928 -0.3416  0.1544
20621W        W36695  15.338  16.246  15.713 -0.2062  0.2234  0.2392
20622W        W36696   2.643   7.431   3.378 -0.1192 -0.4845  0.2370
20623W        W36697   4.508  17.362   0.048  0.1295  0.0179  0.1280
20624W        W36698  11.695  16.806   4.073 -0.2046 -0.0707  0.1538
20625W        W36699   5.132   0.928  11.291  0.1137 -0.1549  0.0230
20626W        W36700   5.867  15.123   0.424  0.0455 -0.2299 -0.4438
20627W        W36701   8.532  16.531  14.597  0.0640  0.3055  0.0847
20628W        W36702   7.213  17.487   2.633 -0.0290 -0.1651  0.2691
20629W        W36703   7.195  12.594   6.240 -0.0472  0.3716 -0.0935
20630W        W36704   7.123  13.783   1.875  0.0776 -0.4536  0.1071
20631W        W36705  13.773  13.000  13.691 -0.1851  0.3339 -0.0392
20632W        W36706  11.548  13.509  14.588 -0.2600 -0.0727 -0.1318
20633W        W36707  12.771  13.340   4.983  0.1977  0.1648 -0.4474
20634W        W36708   9.115  18.215   4.054  0.1480  0.2902  0.0345
20635W        W36709   3.003  14.028   3.227 -0.1389  0.2141 -0.3653
20636W        W36710   4.275  14.062  14.659 -0.2335 -0.1413  0.2258
20637W        W36711   5.249   9.286  16.338  0.0311 -0.1825  0.4466
20638W        W36712   7.325   3.003   2.988 -0.1740  0.1567 -0.0580
20639W        W36713  13.557  13.577   5.838  0.0971 -0.0301  0.0794
20640W        W36714  12.997   2.732   3.803 -0.1107 -0.0168 -0.2171
20641W        W36715   6.762   8.426   4.266  0.1861  0.1799  0.2305
20642W        W36716  11.474  17.647   0.713 -0.0747 -0.1291 -0.2173
20643W        W36717   8.810  13.011   2.143 -0.1217  0.0871  0.4252
20644W        W36718   6.156   7.752   0.876  0.3336  0.1103 -0.2027
20645W        W36719  10.610  17.439  15.316 -0.2957 -0.1592 -0.2671
20646W        W36720   8.429   3.395   4.139  0.0378  0.0134 -0.0279
20647W        W36721   1.743   0.871   3.151 -0.2901 -0.1013 -0.1939
20648W        W36722   5.934  16.540  13.677 -0.0604 -0.0160  0.2509
20649W        W36723   8.199   4.578   0.650 -0.0044  0.1357 -0.0285
20650W        W36724  12.416   4.336  13.239 -0.0594 -0.2905  0.2043
20651W        W36725   7.132   9.711   4.758  0.1383  0.1219 -0.0759
20652W        W36726  10.141  13.099   5.027 -0.4817 -0.1529 -0.1906
20653W        W36727   4.843   7.311   2.400 -0.0817 -0.3050  0.1555
20654W        W36728   2.806  10.623   4.751 -0.1120  0.3851  0.1405
20655W        W36729   6.835  10.320   0.922 -0.2629  0.0607  0.2398
20656W        W36730   1.287  13.239  13.987 -0.2218  0.4457  0.4670
20657W        W36731  12.500   7.177   1.896  0.0291 -0.0656  0.2145
20658W        W36732  13.418   4.105   1.697  0.4982  0.1771 -0.3628
20659W        W36733   3.312   9.479  13.012 -0.0882  0.0283 -0.0562
20660W        W36734  15.539  18.064  15.139  0.2458  0.1230  0.0839
20661W        W36735  15.028  14.461  14.997  0.0298  0.2114 -0.3588
20662W        W36736  13.566   4.919  13.631 -0.1602 -0.3112 -0.1681
20663W        W36737  15.629  10.312   2.210 -0.0992 -0.0121  0.0285
20664W        W36738   6.864   7.902  14.875  0.2994 -0.2185  0.1596
20665W        W36739   0.720   7.993  12.116 -0.1301  0.0880  0.2570
20666W        W36740   0.983   6.067  12.337  0.3836  0.3049  0.4334
20667W        W36741  11.361   7.775  14.162  0.0409  0.1347  0.2141
20668W        W36742   9.704  15.078   5.067 -0.2085  0.1431 -0.0455
20669W        W36743  15.953  17.918  14.710 -0.0142 -0.1026 -0.2671
20670W        W36744   1.481  12.899   1.635 -0.1444  0.2889  0.0383
20671W        W36745  15.105  16.631  15.460  0.1455  0.1140  0.0955
20672W        W36746   7.276  12.008   0.201 -0.2762 -0.0475  0.0164
20673W        W36747   0.201  10.247  13.963 -0.0171  0.2648  0.0076
20674W        W36748  11.231  10.411  14.313  0.0218  0.1118  0.2819
20675W        W36749   2.276   8.253   1.943 -0.0570 -0.0271 -0.0939
20676W        W36750   1.619   5.218   3.455 -0.1025 -0.1260 -0.1619
20677W        W36751   9.905   6.192  12.372  0.2625  0.1103  0.0953
20678W        W36752  17.172   3.948   2.734 -0.4526 -0.0036 -0.1190
20679W        W36753   0.410  10.288  15.864 -0.1499 -0.1002 -0.1955
20680W        W36754  16.350   7.807   2.742 -0.4398  0.1340 -0.1005
20681W        W36755   8.876  10.517  14.957  0.0571  0.1779 -0.0710
20682W        W36756  18.206   6.264  12.346  0.0381 -0.1168 -0.1557
20683W        W36757  17.091  11.120  13.444 -0.0317 -0.0244 -0.1196
20684W        W36758  17.808   6.523   0.301  0.1039 -0.0278 -0.1705
20685W        W36759  15.066  15.836   4.539  0.0932 -0.4827  0.0299
20686W        W36760  16.382  11.740   4.452  0.0376  0.1597  0.0578
20687W        W36761  15.703   0.985   4.029  0.0426 -0.5326 -0.1178
20688W        W36762   8.705  15.472   4.869 -0.1178  0.0828 -0.0472
20689W        W36763   4.512  14.003  11.706 -0.2349 -0.0640 -0.1955
20690W        W36764   0.415  10.494  16.361 -0.0695 -0.1635  0.2443
20691W        W36765   0.044   5.137   2.743 -0.1611  0.0670 -0.2193
20692W        W36766  11.433  11.310  12.653  0.0416 -0.2230 -0.0451
20693W        W36767  12.148  16.934   0.350 -0.0195  0.1151  0.3283
20694W        W36768  14.389   1.806  10.285  0.0510  0.1114 -0.1267
20695W        W36769  13.543  16.464  14.680  0.1841  0.2263 -0.0678
20696W        W36770  17.377  11.908  12.915 -0.0351 -0.3368  0.0827
20697W        W36771  16.826   5.789  12.924  0.0464 -0.0429  0.0509
20698W        W36772   5.577   6.710  13.440  0.2307 -0.1140  0.0469
20699W        W36773   6.930   9.498   5.702 -0.1315 -0.3270 -0.0243
20700W        W36774  15.125   8.106   4.938  0.1989 -0.1356 -0.1276
20701W        W36775  16.715   9.996   4.559 -0.0205  0.1128 -0.0242
20702W        W36776   9.008   3.048  13.212  0.0476 -0.0728 -0.0605
20703W        W36777  13.200   2.971   0.000 -0.0226 -0.0537  0.1212
20704W        W36778   3.260   4.951  15.725 -0.0696 -0.0053  0.1587
20705W        W36779  10.048   8.101   1.879 -0.1191 -0.3440 -0.0986
20706W        W36780   8.360  10.387   1.933 -0.2056  0.1354 -0.3160
20707W        W36781   0.033  17.915   0.152 -0.1407  0.0267  0.1168
20708W        W36782  11.809   1.170   4.163  0.1209 -0.0576 -0.3708
20709W        W36783  15.837   0.278   4.625 -0.4181 -0.1343  0.0133
20710W        W36784   2.169  11.833  11.268  0.0490 -0.2619  0.1268
20711W        W36785   2.372   3.826   5.557  0.3180 -0.0287 -0.0642
20712W        W36786   0.681   8.203  15.870  0.0166  0.0895  0.2118
20713W        W36787  12.948   6.482  14.239 -0.4918  0.3263  0.3328
20714W        W36788   4.712  16.000  15.468  0.0040 -0.0345 -0.0691
20715W        W36789  13.625  14.397   4.601 -0.0632  0.0387 -0.1723
20716W        W36790   9.046   7.052   0.699 -0.1206  0.2881  0.2283
20717W        W36791  15.679   5.938   0.921 -0.3128  0.0788 -0.2193
20718W        W36792   1.549  18.078  14.480 -0.5830  0.1583 -0.0914
20719W        W36793   4.359  12.768   4.101 -0.0876 -0.3718  0.2327
20720W        W36794  16.737  15.937   1.596 -0.0271  0.0976 -0.1389
20721W        W36795   7.502   3.089  14.354  0.0528 -0.5803 -0.1916
20722W        W36796   1.159   9.022   0.995  0.2587  0.1974 -0.2103
20723W        W36797   2.480   0.520  15.606 -0.4251 -0.1249  0.0829
20724W        W36798   6.601   9.600  13.391 -0.0425  0.3185 -0.0291
20725W        W36799   4.290   3.688   4.805 -0.3435 -0.0412  0.1553
20726W        W36800   8.594   5.269   4.178 -0.0596  0.1134 -0.0400
20727W        W36801  16.279  12.735   2.465 -0.0226  0.1739  0.0577
20728W        W36802  12.570  14.849  13.427  0.0960  0.0962  0.0833
20729W        W36803  11.546  16.122  14.054 -0.1547 -0.0414  0.0096
20730W        W36804  18.007   2.466  12.122 -0.1943  0.4810  0.0687
20731W        W36805   6.066   0.427  12.981 -0.0845 -0.0085 -0.0120
20732W        W36806   2.886  12.231  15.037 -0.0388 -0.0635  0.1455
20733W        W36807  12.452  11.264   3.324 -0.0158 -0.0953 -0.3384
20734W        W36808  15.651   7.915   3.193 -0.3063  0.0521  0.0112
20735W        W36809  11.292  10.250   5.081 -0.1624 -0.1550 -0.1636
20736W        W36810   5.522  10.571   0.167  0.1966  0.0867 -0.0531
20737W        W36811  14.417  17.569   1.242 -0.0298  0.0006  0.0538
20738W        W36812   1.879   3.440   1.786  0.0959  0.0426 -0.0383
20739W        W36813   4.076  11.211   1.169  0.1227 -0.0946 -0.1638
20740W        W36814   0.616   3.144  15.410 -0.1058  0.1940 -0.0592
20741W        W36815  10.151  11.473   4.216 -0.0980  0.2482  0.1219
20742W        W36816   0.475   3.740   4.077 -0.0309  0.0756  0.1830
20743W        W36817  11.758   6.654   2.399 -0.0608 -0.2565  0.2455
20744W        W36818   3.249   7.948   1.662 -0.1031  0.1295  0.1076
20745W        W36819   7.093  12.611   1.678 -0.1141 -0.3377 -0.0560
20746W        W36820   5.334  15.619   5.394  0.0619 -0.0189 -0.2869
20747W        W36821   3.365  13.103  15.971  0.3376  0.3838 -0.1318
20748W        W36822   0.595  14.380   2.029 -0.0160  0.0024  0.0479
20749W        W36823   3.164  10.963   0.745  0.1805 -0.3198  0.0425
20750W        W36824  18.151  17.263   1.021  0.2398 -0.1856 -0.3162
20751W        W36825  17.253   8.763  13.189  0.0017 -0.2237 -0.1659
20752W        W36826   3.812   3.503   2.956  0.0175 -0.2038  0.1304
20753W        W36827   6.948   3.460   1.668  0.2885  0.0140  0.2291
20754W        W36828   7.733  11.757  15.882  0.0213  0.0841  0.2171
20755W        W36829   9.751   6.868   2.977  0.2267 -0.1164  0.0016
20756W        W36830   4.446   6.461  12.195  0.2210  0.0836  0.3589
20757W        W36831   5.494  12.147   3.172  0.0227  0.0110 -0.1198
20758W        W36832  16.716  17.432   0.611 -0.1545  0.4460 -0.0666
20759W        W36833  16.544   2.540  13.749 -0.0415  0.3209  0.1770
20760W        W36834   5.446   3.894   2.552 -0.0158 -0.1436 -0.1355
20761W        W36835  16.050  10.359  15.288  0.0322  0.1578  0.1468
20762W        W36836  16.243  10.215   3.227 -0.0756 -0.2748  0.0594
20763W        W36837  18.163  13.033   0.921  0.2054 -0.0909  0.0981
20764W        W36838  16.600  10.344  13.025 -0.1774 -0.1557  0.2996
20765W        W36839  14.606  11.833   4.337 -0.0333 -0.3697  0.0529
20766W        W36840   3.135  13.600   3.486  0.2325 -0.2148  0.2350
20767W        W36841   8.348  11.954   4.111  0.2484  0.2089 -0.1490
20768W        W36842   4.980  10.494  13.413  0.0971 -0.2600  0.0517
20769W        W36843   9.908  13.347   5.774 -0.0541  0.0512  0.2845
20770W        W36844   3.417   8.453   3.552 -0.4426 -0.0978  0.0878
20771W        W36845  10.125   9.500   4.781 -0.0197 -0.4141 -0.1506
20772W        W36846  17.651  12.393   1.316  0.2129 -0.2459  0.1954
20773W        W36847   5.370   1.008   5.272 -0.1246  0.2685 -0.1796
20774W        W36848   1.545  15.740   4.681 -0.0705 -0.1925 -0.0884
20775W        W36849   5.723  15.306   2.779  0.0452  0.0455 -0.0873
20776W        W36850  16.536  14.626   5.224  0.0161  0.1684  0.2247
20777W        W36851  17.216  15.815  13.402  0.1318 -0.1096 -0.1561
20778W        W36852   9.950  12.370   1.036  0.0105  0.0130  0.3918
20779W        W36853  13.715   6.122  12.743  0.0342  0.3295  0.3439
20780W        W36854  17.729  10.362   2.055  0.0054 -0.2456 -0.1691
20781W        W36855  13.186  16.375   1.421 -0.1624  0.0189  0.1003
20782W        W36856   5.556   2.790  15.786  0.1037  0.0343 -0.0716
20783W        W36857  12.705   8.860   5.220 -0.0012  0.0784  0.0076
20784W        W36858   4.895   6.681   0.665 -0.0885 -0.1521  0.1700
20785W        W36859  16.786  10.130  11.895  0.2009 -0.1690 -0.1755
20786W        W36860  15.701  11.219   1.843  0.4102  0.2588  0.0624
20787W        W36861  11.606   6.243   2.041 -0.0311 -0.1373  0.0376
20788W        W36862  16.396   9.892  14.350 -0.0356 -0.0414  0.0634
20789W        W36863   0.810  10.514  11.712 -0.0253  0.2588 -0.1203
20790W        W36864  18.133  12.379  13.230  0.0942 -0.0212 -0.0468
20791W        W36865   2.837  16.111  13.345 -0.0884 -0.2482 -0.1642
20792W        W36866   6.004  13.067  15.777  0.1554  0.0277  0.1422
20793W        W36867   2.775   6.568   2.116 -0.1226 -0.0551  0.1863
20794W        W36868  16.464   2.880   3.781 -0.0395 -0.0776  0.2626
20795W        W36869  12.805  12.072   3.519  0.2158 -0.0911 -0.0326
20796W        W36870  16.933  13.001   1.203 -0.0079  0.2613  0.0481
20797W        W36871  18.156  17.128   1.670 -0.1834 -0.0445 -0.0324
20798W        W36872  16.433   2.108  11.889 -0.1498 -0.2371  0.3988
20799W        W36873   6.716   0.318   0.148 -0.0821 -0.1598  0.1820
20800W        W36874  16.696  10.545   1.008 -0.2878 -0.0680 -0.5325
20801W        W36875   3.189   5.487  13.054 -0.1278  0.0203  0.0202
20802W        W36876   9.277  11.570   3.257 -0.3705 -0.3654 -0.3116
20803W        W36877   3.948  14.789   4.941  0.2329 -0.1239 -0.3179
20804W        W36878  13.682   6.698   2.946 -0.1319 -0.2323 -0.1334
20805W        W36879   6.410  15.278  13.518 -0.0913 -0.0523 -0.2404
20806W        W36880   0.737   0.577   2.019  0.1213 -0.2220  0.0165
20807W        W36881  14.216  15.282  14.843 -0.1186  0.2491 -0.2351
20808W        W36882  18.083  17.565   3.362  0.0695 -0.2475 -0.2605
20809W        W36883   7.190  14.590   0.124  0.2547 -0.2963 -0.1314
20810W        W36884  14.564  14.371  13.291 -0.2307 -0.1112  0.0417
20811W        W36885   2.011  16.512  14.260  0.1309 -0.2988 -0.1763
20812W        W36886  10.857   1.143  16.249  0.1925 -0.2094 -0.4452
20813W        W36887   8.338  16.086  11.998  0.1167  0.2580  0.0155
20814W        W36888  12.988   3.732  13.197 -0.1185  0.1796  0.0926
20815W        W36889   0.591   6.885  15.477  0.0280  0.1301  0.2572
20816W        W36890   0.648  17.222  12.529  0.1225 -0.0723  0.0080
20817W        W36891   8.579  17.052  15.774  0.0650  0.2835 -0.1413
20818W        W36892   7.493   4.503  12.293  0.0673 -0.2127  0.0357
20819W        W36893   1.527  12.915  11.886  0.0079  0.1057  0.1625
20820W        W36894   6.667   5.007  12.689 -0.0777  0.0031  0.0152
20821W        W36895  15.112  15.158  14.318 -0.0807 -0.2881  0.2253
20822W        W36896   4.389   5.941  14.778 -0.0155 -0.2135 -0.3169
20823W        W36897   3.651   3.975   5.097  0.2833  0.1600  0.2041
20824W        W36898   0.378  15.236  13.713  0.0487  0.2779 -0.1040
20825W        W36899  17.746   0.559  16.017  0.0833 -0.0586  0.2628
20826W        W36900  13.807  17.545   4.516  0.1366 -0.0096  0.2544
20827W        W36901   4.132   0.251   3.089 -0.2430  0.1127 -0.1530
20828W        W36902  10.292   7.844   4.697  0.1089  0.1566  0.0348
20829W        W36903   0.429   2.990   3.450  0.3265 -0.0466  0.1203
20830W        W36904   7.156   2.023   4.158 -0.2671  0.0660  0.2380
20831W        W36905   7.250   0.548   1.396  0.0326  0.0879 -0.0507
20832W        W36906   2.569   6.245  15.957 -0.0046  0.1787  0.1325
20833W        W36907   3.859  14.897   5.841  0.0995  0.0954  0.1755
20834W        W36908  11.700   8.022   2.941  0.1037 -0.2344  0.0366
20835W        W36909   4.631  15.952  15.934  0.1553  0.1828  0.0569
20836W        W36910  15.831  10.917   2.696 -0.1686 -0.1358  0.6676
20837W        W36911   3.672   6.511   5.325  0.3471  0.1452 -0.0879
20838W        W36912  11.188  16.008   4.166  0.0156 -0.0552  0.0751
20839W        W36913  15.928  18.169  13.678 -0.1419 -0.0438 -0.0709
20840W        W36914   9.218  15.841   2.411  0.0261  0.1429  0.0742
20841W        W36915  16.132  10.225   0.324  0.1598 -0.1532  0.1121
20842W        W36916  12.304   1.484   1.869 -0.1330  0.0466 -0.0658
20843W        W36917  16.030  13.864   2.027  0.0049 -0.1105 -0.0896
20844W        W36918  14.359   2.451   3.777 -0.0231 -0.1151 -0.0537
20845W        W36919  16.277  11.239   4.227 -0.1085 -0.1069  0.0433
20846W        W36920   0.202   2.565  14.810  0.1462 -0.2992  0.2439
20847W        W36921   7.742   3.661   1.812  0.2617  0.0701 -0.0609
20848W        W36922   7.574   2.953   1.150  0.2821 -0.0129 -0.2295
20849W        W36923  14.483  13.704   5.117 -0.1959 -0.0122 -0.0490
20850W        W36924  12.685   2.122   4.349 -0.0133 -0.0241 -0.0030
20851W        W36925  14.765  17.456   4.110  0.1436  0.1896  0.2967
20852W        W36926  14.976   2.492   4.957 -0.1914 -0.1049 -0.0069
20853W        W36927  17.066   8.633   0.428  0.2542 -0.0952 -0.1867
20854W        W36928   4.966   5.858   4.097 -0.1345  0.1797  0.0081
20855W        W36929   6.382   5.355   1.479 -0.3997 -0.0473  0.1485
20856W        W36930  11.356  11.547  15.858  0.3706  0.3693  0.1571
20857W        W36931   9.382  16.454   3.781  0.0108 -0.1707 -0.2672
20858W        W36932   5.691   8.743  14.791 -0.0876 -0.4298  0.0800
20859W        W36933   2.357   5.315   2.075  0.0480  0.2725 -0.0529
20860W        W36934  16.877  10.114  16.039  0.1240  0.1255 -0.2854
20861W        W36935   7.622   1.903   3.521 -0.0162  0.1001 -0.0821
20862W        W36936   8.710   6.784   5.279  0.0134  0.1305  0.1761
20863W        W36937  11.572  12.259  14.691 -0.2755 -0.3710  0.2127
20864W        W36938   0.191   7.519  12.995  0.0445 -0.0404 -0.1360
20865W        W36939  14.029  14.413   1.086  0.1842 -0.0684  0.4170
20866W        W36940  11.950   7.637   0.236  0.2433  0.0140 -0.0442
20867W        W36941  16.210  13.316  13.582 -0.0288 -0.0088 -0.0776
20868W        W36942  10.439   9.968  16.024  0.0129 -0.1656 -0.0159
20869W        W36943   0.525   7.041   2.734  0.1653 -0.1681 -0.0468
20870W        W36944   7.312   8.214   0.799 -0.0087  0.2219  0.0539
20871W        W36945  12.609   8.195   4.995  0.2621 -0.0367 -0.2147
20872W        W36946   9.551  12.015  15.337  0.2715  0.1742 -0.1748
20873W        W36947   2.022   0.225   3.857 -0.1108  0.2131  0.3350
20874W        W36948  10.374   5.323  11.213  0.1363 -0.0719 -0.2893
20875W        W36949  11.446   7.566   3.195  0.0933  0.1120 -0.2495
20876W        W36950   3.091   0.407  12.193 -0.0161 -0.0090 -0.0645
20877W        W36951   5.114   2.224  12.295  0.1270  0.0362  0.2117
20878W        W36952   0.975   8.202  16.462  0.2095  0.1538  0.1439
20879W        W36953  12.542   2.313   5.852 -0.3368  0.2277 -0.0294
20880W        W36954  14.937  13.979  13.936  0.0763  0.0496  0.0457
20881W        W36955   1.149  10.266   4.689 -0.3456 -0.0021  0.0819
20882W        W36956   6.981  13.654  11.580 -0.0603 -0.2780 -0.1376
20883W        W36957   6.451  10.368   0.600  0.0708  0.0563  0.1591
20884W        W36958   5.714   5.703   5.092 -0.2068  0.0771  0.1654
20885W        W36959  11.549  10.971   1.419 -0.2120 -0.4526 -0.3651
20886W        W36960   4.804   4.945   0.511 -0.3599 -0.2068  0.1341
20887W        W36961   0.684   3.013  13.942 -0.2157 -0.1579 -0.1516
20888W        W36962  15.809  17.657  16.121 -0.0794 -0.0430  0.2493
20889W        W36963   9.600  13.393  13.599 -0.3952 -0.1680 -0.0930
20890W        W36964   0.578  12.596  11.043  0.0007  0.4067  0.2274
20891W        W36965  11.309   1.483   1.287  0.0930  0.0876 -0.0105
20892W        W36966   8.618   1.800  14.681 -0.0360 -0.2243 -0.1774
20893W        W36967  12.114  12.304   6.517  0.1306  0.3023 -0.0664
20894W        W36968   4.809  17.678  13.991 -0.2661  0.0579 -0.2567
20895W        W36969   1.398   7.720   4.549 -0.1101 -0.1890  0.2238
20896W        W36970  10.086   4.396  15.755  0.1060  0.2613 -0.0457
20897W        W36971  10.595  15.176  13.644  0.0322 -0.0927  0.0614
20898W        W36972  17.905   3.787  16.104  0.0506 -0.0008  0.0108
20899W        W36973  14.911   8.744   4.087  0.3072 -0.1170 -0.1456
20900W        W36974  13.792  10.347   1.628 -0.0765  0.3661  0.1220
20901W        W36975   9.070  12.047   3.497 -0.0585  0.2779 -0.3622
20902W        W36976  12.619   3.281   2.861  0.0155  0.5927  0.1132
20903W        W36977   7.133   9.359   0.176  0.2397 -0.0774 -0.0270
20904W        W36978   0.446  12.949   2.967 -0.1631  0.1735 -0.4025
20905W        W36979  17.539  11.443   3.909  0.0021 -0.0070 -0.1692
20906W        W36980   7.419   3.083   1.925  0.0062 -0.0115  0.2185
20907W        W36981  17.102   1.417   2.531 -0.3154 -0.1031  0.1160
20908W        W36982   2.705  18.048   0.805 -0.0906 -0.1663 -0.1568
20909W        W36983   4.874   7.696  13.747  0.0159  0.3820  0.0667
20910W        W36984  16.093   4.075  13.811  0.0967  0.0987  0.3406
20911W        W36985   6.836  12.247   1.544 -0.2174 -0.1548  0.2684
20912W        W36986  10.877  14.439  15.173  0.2991 -0.1444  0.1444
20913W        W36987  12.693  13.730   4.173  0.0398 -0.1091 -0.4559
20914W        W36988  12.969  17.383   1.584  0.0173  0.0620  0.0057
20915W        W36989   7.839   1.036   4.552 -0.1281  0.0921  0.1520
20916W        W36990   5.017   8.783   1.986 -0.0726  0.2499  0.0868
20917W        W36991   9.507  17.419   4.598  0.2584 -0.2105  0.1620
20918W        W36992   7.963   5.000   3.645 -0.1443 -0.1025  0.0980
20919W        W36993   2.761   8.124   0.199 -0.1663  0.2643 -0.1937
20920W        W36994  15.312   8.823   4.719  0.2926 -0.1946 -0.3439
20921W        W36995   5.296   8.896  14.478  0.0768  0.1089  0.1746
20922W        W36996  15.275   1.826   4.254  0.0352  0.0707  0.2931
20923W        W36997  11.284   1.151   2.616 -0.3837 -0.0407  0.3897
20924W        W36998   4.915   1.281   5.770  0.0171  0.1283 -0.0745
20925W        W36999   6.385   7.038  16.253  0.1335  0.1340  0.2908
20926W        W37000   0.842  17.154   4.516 -0.0836 -0.1233  0.0540
20927W        W37001   6.416  10.473   1.622 -0.1885  0.0390 -0.4644
20928W        W37002   4.672   9.582  11.223 -0.0692  0.2178  0.1626
20929W        W37003  15.677   8.051  11.581  0.0962  0.1857 -0.1561
20930W        W37004   3.769  17.892  12.322  0.0406  0.0016  0.0748
20931W        W37005   3.425  11.481   2.291  0.1379  0.0058  0.0615
20932W        W37006  16.821   1.859   4.218 -0.2984  0.1844 -0.1589
20933W        W37007   3.054   6.849  13.772  0.3619 -0.0819 -0.1334
20934W        W37008  16.352  13.282   0.439  0.0987  0.1555  0.0699
20935W        W37009  14.194   2.028  16.534  0.2509 -0.0236  0.1939
20936W        W37010   6.358   0.999  14.686  0.4165 -0.0895 -0.3365
20937W        W37011  13.573   0.463  16.034 -0.2007 -0.3728  0.2602
20938W        W37012   3.330   7.860  14.599  0.1722 -0.2415 -0.2085
20939W        W37013  16.946   7.885  13.094 -0.0354  0.1857  0.0611
20940W        W37014   9.514  15.377   2.569 -0.3133  0.0887  0.2056
20941W        W37015  13.513   5.912   1.367 -0.4863  0.0732 -0.3121
20942W        W37016   1.308   8.628   1.354  0.3429 -0.1851  0.1266
20943W        W37017   7.616   2.155   3.060 -0.0758  0.0220  0.1521
20944W        W37018  12.280   6.928   1.166  0.1212 -0.0922  0.0298
20945W        W37019   2.424  10.473   3.790  0.0555 -0.2064 -0.1812
20946W        W37020  17.950   6.403  11.883 -0.3904 -0.1407 -0.0681
20947W        W37021   1.888  12.370   2.650  0.2772  0.1708 -0.5164
20948W        W37022  16.383   6.900   2.840 -0.0172 -0.2616 -0.2109
20949W        W37023   9.062  13.214  14.274  0.3642 -0.1389  0.1815
20950W        W37024   6.954   6.581  11.688  0.1739  0.0002  0.1518
20951W        W37025  11.973   9.472  12.783 -0.0794 -0.2212  0.2043
20952W        W37026  15.307  15.390  12.426  0.0856  0.0976  0.2415
20953W        W37027   7.633  11.423   4.368  0.1177 -0.1487  0.1596
20954W        W37028  16.351   5.455  11.263 -0.0365 -0.2741  0.0708
20955W        W37029   2.505   1.607   2.420 -0.0958  0.1888  0.0341
20956W        W37030  15.556   9.654   4.815 -0.2702 -0.1095 -0.1889
20957W        W37031  15.519   7.127  15.612 -0.1857 -0.0958  0.3165
20958W        W37032  12.720   7.464  15.624  0.0215  0.0911  0.0174
20959W        W37033  10.175  12.149  12.246 -0.1586 -0.3036 -0.1766
20960W        W37034   3.991  15.676  11.835 -0.1678 -0.0263  0.2576
20961W        W37035   0.701  10.232   4.449  0.3791 -0.0973  0.1138
20962W        W37036  13.278   3.890  15.285 -0.1005 -0.0614 -0.1239
20963W        W37037  12.126   5.463  14.806 -0.1178  0.0316 -0.0243
20964W        W37038  15.420  14.468   4.935 -0.1013  0.2189 -0.1891
20965W        W37039   7.080   4.503  15.737 -0.0626  0.1224  0.3424
20966W        W37040   9.753  10.703  13.560  0.1601 -0.2156  0.2638
20967W        W37041   0.057  10.202   0.146 -0.1691 -0.0182  0.1958
20968W        W37042  14.787   3.467   2.815  0.2399 -0.0096 -0.2317
20969W        W37043  14.416   8.892   4.819  0.0023 -0.3920  0.2610
20970W        W37044  18.018  11.840   3.770  0.0509  0.1677  0.0571
20971W        W37045   8.023   5.678   0.954 -0.2564  0.0302 -0.1017
20972W        W37046   6.911   0.159  14.314 -0.0122  0.0538  0.2300
20973W        W37047   5.254  13.023   6.266  0.0161 -0.1240 -0.1801
20974W        W37048  15.452   0.223  12.577  0.3532  0.1407  0.0173
20975W        W37049   7.389  13.908  16.051 -0.0795  0.0020  0.1590
20976W        W37050   2.154  11.500   2.385  0.2036  0.0279 -0.0047
20977W        W37051  11.173   5.294   1.193  0.1163 -0.3220  0.1157
20978W        W37052  15.131   5.663   4.704  0.1856  0.0750  0.0659
20979W        W37053  17.811   0.778  15.592 -0.0995 -0.0466 -0.0727
20980W        W37054   3.185  11.334  15.874 -0.1055 -0.1779 -0.0182
20981W        W37055   8.948   4.265   4.129 -0.0450 -0.0873  0.1976
20982W        W37056   5.412   2.572  13.608  0.2285  0.1564  0.1974
20983W        W37057  16.457   8.432   1.265  0.3049 -0.2094  0.2471
20984W        W37058   2.307   1.008  12.848 -0.1498 -0.0390 -0.1588
20985W        W37059   7.788   2.413  16.431 -0.1593  0.0885  0.1268
20986W        W37060   9.509   5.131  12.729 -0.0494  0.0487  0.1131
20987W        W37061  11.058  16.398   3.904  0.0200  0.0303 -0.3262
20988W        W37062   5.904   6.759   4.883  0.1247  0.0484 -0.1110
20989W        W37063  18.168  13.112   2.893  0.1355  0.0025 -0.0559
20990W        W37064   7.864  14.813   5.393 -0.1428 -0.0644  0.1495
20991W        W37065   3.033   3.507   1.275  0.2466 -0.0716  0.0859
20992W        W37066   0.769   3.455   4.701  0.0082 -0.0247 -0.1493
20993W        W37067  17.426   4.163   1.750 -0.0627 -0.0690  0.0267
20994W        W37068  13.881   0.383   5.655 -0.1144  0.1726 -0.3146
20995W        W37069   6.781  13.250  11.786  0.2775 -0.3910  0.2529
20996W        W37070   8.507   9.340   1.943 -0.0766  0.0570 -0.3237
20997W        W37071   9.324   4.573   4.042  0.2733 -0.1610  0.3658
20998W        W37072   1.450   3.642  14.463 -0.1676  0.2328 -0.1238
20999W        W37073  10.293   7.787   6.078 -0.0097  0.0033  0.2442
21000W        W37074   1.427  17.588  15.862 -0.1051 -0.1620 -0.2770
21001W        W37075  11.007   3.705  15.945 -0.2104 -0.0183 -0.2785
21002W        W37076   3.834   9.812  16.457 -0.1859  0.0740 -0.2243
21003W        W37077  10.842  15.853   1.557  0.1879 -0.1593 -0.0291
21004W        W37078  17.030   1.689  14.940  0.2258  0.1061 -0.2078
21005W        W37079   4.453  11.802   5.104 -0.0904 -0.0746 -0.1884
21006W        W37080  16.311   7.858  15.489  0.0085 -0.1736  0.1648
21007W        W37081   7.871   9.974   4.550  0.1697  0.3083 -0.2101
21008W        W37082   2.801   8.977  15.007 -0.0089 -0.2007  0.0010
21009W        W37083  13.671  16.422   3.759 -0.0747  0.0358  0.2732
21010W        W37084  14.973  15.169   0.180  0.1007 -0.2694 -0.2215
21011W        W37085   3.454  13.519  13.774  0.2746 -0.3118  0.0418
21012W        W37086   1.983   8.998  13.662  0.0761  0.2130 -0.2533
21013W        W37087  16.160  10.898  11.093  0.0430 -0.1764  0.1546
21014W        W37088   5.489   2.390  16.337 -0.3150  0.0086 -0.0321
21015W        W37089   8.022  15.077   0.569 -0.2140 -0.0286  0.0174
21016W        W37090  16.367   6.097   0.006 -0.0780 -0.1787 -0.2316
21017W        W37091   2.578  17.883  15.579  0.1724  0.3102  0.1228
21018W        W37092  15.514  17.317   2.510 -0.1053 -0.0833  0.1238
21019W        W37093   2.823   2.762  15.881  0.0957 -0.1021 -0.2152
21020W        W37094  13.799   2.366   5.153  0.2963 -0.0165  0.2982
21021W        W37095   6.257  12.217  12.234 -0.2697 -0.0897 -0.0028
21022W        W37096  14.760  12.790  16.230  0.1740  0.0790 -0.0894
21023W        W37097   7.979   7.174   4.742 -0.1917 -0.3333  0.2280
21024W        W37098   4.600   6.539   3.252 -0.1150  0.0749 -0.0455
21025W        W37099  15.104  13.620  16.474  0.0346  0.1828 -0.3565
21026W        W37100   4.430   5.128   3.724 -0.0211  0.3577  0.0215
21027W        W37101  17.541   3.260   1.271  0.0829 -0.2332  0.0134
21028W        W37102   9.402   4.831   6.535 -0.0499  0.0600  0.1222
21029W        W37103   3.549  17.832   4.388 -0.0586 -0.1676 -0.0417
21030W        W37104  10.109  16.110  13.637 -0.2465 -0.1374  0.4610
21031W        W37105  17.746   9.728   0.347  0.3265  0.1736  0.1846
21032W        W37106  15.358  17.215  11.180  0.1761  0.0419  0.3755
21033W        W37107   2.863   1.953   0.421  0.0434  0.1564  0.0630
21034W        W37108   9.533   0.696  13.752  0.5032  0.0814 -0.2979
21035W        W37109  14.972  15.308  11.862  0.0747 -0.0178  0.2075
21036W        W37110  15.583   3.198   2.944 -0.0474  0.1216 -0.0219
21037W        W37111   8.363  17.783  11.990  0.0766  0.0406  0.3228
21038W        W37112   0.332   5.934  15.899 -0.4448  0.1981 -0.1358
21039W        W37113  15.732  16.236  16.214  0.0575 -0.0528  0.1891
21040W        W37114   7.739  11.251  12.230 -0.0209  0.1602  0.0375
21041W        W37115  17.517  17.211  16.292  0.1738  0.2316  0.2467
21042W        W37116   8.874   8.062  13.257  0.3900  0.2299  0.1744
21043W        W37117  10.141  12.822   4.576  0.0965  0.0367  0.1183
21044W        W37118  10.120   3.358  15.818  0.1409 -0.0971 -0.0360
21045W        W37119   1.527  15.007   2.282  0.0395 -0.0872 -0.2734
21046W        W37120   9.856   5.346   3.984  0.0421 -0.1314  0.1703
21047W        W37121   6.405   5.427  12.687 -0.1461  0.4855 -0.3093
21048W        W37122  15.228  11.407   6.469 -0.1121  0.0917  0.0043
21049W        W37123  16.545  12.752  11.297  0.1204 -0.1645 -0.1373
21050W        W37124   9.769   1.162  15.606 -0.0644  0.3114 -0.0249
21051W        W37125   8.104  14.900   2.833  0.0891  0.0719  0.0797
21052W        W37126   3.962   6.090   0.889  0.0169  0.1517 -0.0447
21053W        W37127   8.678  13.683   3.109  0.1257 -0.1421  0.1912
21054W        W37128   2.313   2.172  16.214 -0.1232  0.2133 -0.0046
21055W        W37129  12.343  10.683   5.938  0.3347 -0.2199 -0.1008
21056W        W37130   2.608   7.114  15.754  0.1357  0.1940  0.1315
21057W        W37131   3.939   6.111   5.999 -0.3894 -0.0912 -0.1769
21058W        W37132  16.439  17.810   2.031  0.0353  0.1634 -0.2652
21059W        W37133  11.121   8.019   3.527 -0.3563  0.0796 -0.0291
21060W        W37134  17.074   4.420   0.106 -0.2320 -0.1403 -0.0234
21061W        W37135   5.918   5.629   3.270  0.0691 -0.1625  0.1702
21062W        W37136   9.341   0.585  14.427 -0.2785 -0.0652 -0.1699
21063W        W37137  13.144  14.352  14.287  0.2476  0.1663 -0.2313
21064W        W37138  15.298  13.147  16.448  0.3136 -0.0728  0.1708
21065W        W37139   1.519  17.435  13.199  0.0674  0.4183 -0.0470
21066W        W37140   7.375  17.422   0.737 -0.0895  0.1248 -0.1373
21067W        W37141   2.217  17.320   1.440 -0.1173  0.1693 -0.2553
21068W        W37142  13.564   7.787  13.049 -0.1521 -0.1294  0.3765
21069W        W37143   3.143   8.827   4.335 -0.0371 -0.2152  0.0818
21070W        W37144  14.561  11.129   5.147 -0.0733 -0.0223  0.0484
21071W        W37145   4.894   0.642  13.626  0.2115  0.1536  0.2248
21072W        W37146   1.036  13.292  12.493 -0.0173  0.0372  0.1929
21073W        W37147  11.761   3.195   0.219  0.2180  0.0531 -0.2204
21074W        W37148   7.633  18.081  11.072  0.3136  0.0087 -0.1069
21075W        W37149  16.655   3.419   0.917  0.1517 -0.0546 -0.0402
21076W        W37150  18.210   8.140  14.900  0.1186 -0.1703  0.2797
21077W        W37151   1.727   5.672  14.785 -0.0816  0.0776 -0.0113
21078W        W37152   0.778   2.680   1.173 -0.1466  0.0138 -0.0886
21079W        W37153  18.055  14.571   0.870  0.0237  0.1130 -0.3959
21080W        W37154  18.036   6.938  15.147 -0.0949 -0.0842  0.4749
21081W        W37155  16.829   8.416   4.372  0.1788 -0.0933 -0.1263
21082W        W37156   5.856  13.331   4.707 -0.0670  0.1808  0.0706
21083W        W37157  11.792   6.205   2.774  0.1999 -0.3251  0.0538
21084W        W37158   4.837  16.571   3.252  0.0404  0.0103 -0.1116
21085W        W37159  10.489   0.595  13.381 -0.3153  0.1302 -0.0786
21086W        W37160   5.380  13.746  15.625  0.2784 -0.0033 -0.0950
21087W        W37161  15.920   4.107  15.117 -0.2635  0.0790 -0.1347
21088W        W37162   9.595  15.919  12.315  0.0888  0.2383 -0.0874
21089W        W37163  11.341   1.269   0.641 -0.2314  0.0439 -0.1664
21090W        W37164   7.956   3.567   5.984 -0.4024  0.2037 -0.0018
21091W        W37165   3.239  11.161   1.957 -0.0750 -0.0448  0.2380
21092W        W37166   1.557   1.196  15.902 -0.2336 -0.1244  0.0422
21093W        W37167   6.421  18.158  12.849 -0.0852  0.1746 -0.1513
21094W        W37168   2.933   0.660  15.853 -0.1678  0.2525  0.2200
21095W        W37169   7.624   0.541   5.393  0.1424  0.0660  0.0499
21096W        W37170   2.483  11.491  14.037  0.2365 -0.0570 -0.1244
21097W        W37171   7.033   9.131  14.024  0.1646 -0.1180  0.0278
21098W        W37172  10.156  14.982   4.937  0.0867  0.3436 -0.1481
21099W        W37173  17.077  17.748  12.994  0.1277 -0.4511 -0.0572
21100W        W37174  18.112   6.850  11.727 -0.0984 -0.3231  0.0960
21101W        W37175  15.423   9.751   0.873 -0.1500 -0.1059 -0.1277
21102W        W37176  17.025  13.796   2.404 -0.1982  0.0785  0.0274
21103W        W37177  13.306  17.007  14.061  0.1969  0.0327  0.3770
21104W        W37178   0.309   4.593  14.306 -0.2160 -0.0739  0.0075
21105W        W37179  15.362   7.296  16.539  0.5571 -0.0137 -0.1057
21106W        W37180  12.144   7.414   1.153  0.1227 -0.1072 -0.3425
21107W        W37181  17.696   9.569  16.397 -0.0580 -0.0706 -0.1995
21108W        W37182   3.955  13.289   4.962  0.3994  0.3891 -0.3200
21109W        W37183  15.462  12.951  11.706  0.1538  0.1512 -0.0657
21110W        W37184  15.073  11.133   3.344  0.0110 -0.0758 -0.0753
21111W        W37185  12.902   2.572  16.239 -0.0702  0.1858 -0.0461
21112W        W37186   7.804  14.577  15.281  0.0588 -0.3416  0.2427
21113W        W37187  13.236   7.369  13.099 -0.0930 -0.1729 -0.0558
21114W        W37188   8.760  13.996   2.106 -0.0407  0.0337 -0.1483
21115W        W37189   8.780  12.277  14.924 -0.0573  0.2039 -0.1056
21116W        W37190   7.608   1.672  14.543 -0.1799  0.0340  0.1814
21117W        W37191  11.961  12.123   0.983 -0.1933 -0.2729 -0.0442
21118W        W37192   3.911   3.419  12.412  0.1897 -0.4330 -0.1439
21119W        W37193  15.386   1.032   0.612  0.0283  0.1800  0.1180
21120W        W37194  10.303  17.448   0.163 -0.1234  0.0152 -0.0036
21121W        W37195  11.576  16.529   3.293  0.1450 -0.1427 -0.3439
21122W        W37196   9.295   4.133   4.445  0.0102 -0.2667  0.2772
21123W        W37197   6.333  15.653  13.222 -0.0313  0.2119  0.0560
21124W        W37198   4.830  17.471  16.213  0.0935 -0.2598 -0.2507
21125W        W37199  17.774   1.783   5.987  0.3841  0.2497  0.0959
21126W        W37200   3.632  13.919  16.018 -0.2036 -0.0536  0.1559
21127W        W37201   0.227   3.649  14.697  0.0772 -0.1495 -0.4063
21128W        W37202   0.953   1.078   3.461 -0.1094 -0.2758 -0.2742
21129W        W37203   2.372  11.673  15.746  0.2456 -0.1118  0.0414
21130W        W37204   1.802   0.099   1.992  0.0212  0.1518 -0.0220
21131W        W37205  15.059   9.418  12.758 -0.0214 -0.0414  0.2748
21132W        W37206   5.760   1.600   2.652  0.0852 -0.1880 -0.1571
21133W        W37207   9.046  10.952  14.954  0.1265 -0.3103  0.0840
21134W        W37208   6.523   3.916   0.152  0.1124  0.0066 -0.1467
21135W        W37209   4.012   7.709  16.168  0.1185 -0.1695  0.1967
21136W        W37210   3.919   5.756   1.280 -0.0310  0.0032  0.2356
21137W        W37211  13.538  12.445   4.569 -0.2626 -0.1377 -0.0876
21138W        W37212  15.979   0.879  16.540 -0.0850  0.0055  0.1721
21139W        W37213  12.596   7.355   0.852 -0.0624 -0.0404  0.0469
21140W        W37214  16.324  15.636   1.886  0.0428  0.1726 -0.0453
21141W        W37215  13.308  14.102   3.603 -0.1492  0.2919  0.1308
21142W        W37216  16.810   4.300   0.503  0.0666 -0.1185  0.0353
21143W        W37217  17.325   6.292   5.490 -0.1230  0.0571 -0.0711
21144W        W37218   3.945   4.191   2.588  0.1608 -0.3735 -0.1330
21145W        W37219  15.607   9.977   5.226 -0.1906  0.1715  0.2067
21146W        W37220  11.367   1.628   4.828  0.1399 -0.3613  0.2048
21147W        W37221  18.091  10.825  13.638  0.0445 -0.0535  0.2625
21148W        W37222   4.271   8.693  14.483  0.3480 -0.2814 -0.0102
21149W        W37223  13.259  11.602   1.982 -0.0746  0.0892 -0.1510
21150W        W37224  11.229   8.107   2.923  0.0264  0.1037  0.1514
21151W        W37225  11.036  13.449   0.339 -0.3437 -0.1457 -0.1139
21152W        W37226   1.093  17.495   0.588  0.3527  0.0246 -0.0955
21153W        W37227   4.692  14.847  12.857  0.2715 -0.1921 -0.0756
21154W        W37228   1.006   5.446   3.181 -0.1908 -0.1635 -0.0061
21155W        W37229   6.838  18.048   1.399  0.3146  0.0021 -0.2899
21156W        W37230   5.605   3.075  12.987 -0.3111 -0.1682 -0.1469
21157W        W37231  13.025   2.828   4.920 -0.0335 -0.2458  0.2557
21158W        W37232   7.183   0.768  11.048  0.0733 -0.3964  0.0237
21159W        W37233   8.254  10.462   4.313  0.0602 -0.1918 -0.3068
21160W        W37234  15.798   7.555   2.291  0.1280  0.2667 -0.0282
21161W        W37235   9.555   9.008   3.413  0.4643  0.0188 -0.1293
21162W        W37236  16.337  15.577   2.402  0.2432  0.0964  0.0738
21163W        W37237   7.661  16.815   2.668 -0.2080 -0.2425 -0.2154
21164W        W37238   2.693  14.209  15.173 -0.0953 -0.0712  0.0370
21165W        W37239  15.244   3.407   3.215  0.0243  0.1733 -0.0328
21166W        W37240   3.339   2.147   1.667 -0.1273 -0.0289  0.0809
21167W        W37241  14.979  10.746   2.146  0.4441 -0.2023  0.1354
21168W        W37242   3.990   1.484  14.573  0.1177  0.1051  0.1438
21169W        W37243   8.506   7.224  12.573 -0.2041  0.1071  0.0380
21170W        W37244   8.932  16.993  13.240 -0.0498  0.2162  0.3192
21171W        W37245   0.707  15.763  14.263 -0.2108  0.1005  0.0295
21172W        W37246   1.024   1.931  12.154  0.0568  0.2692 -0.1818
21173W        W37247  14.620   4.027  15.151  0.2712 -0.1530  0.0706
21174W        W37248  10.604  15.044  12.932 -0.1979  0.2987  0.0759
21175W        W37249  16.613   5.218   3.993  0.0541  0.0617  0.6341
21176W        W37250   3.430   2.310   0.774  0.1761  0.1783  0.0852
21177W        W37251   1.636  10.597   3.830 -0.2000  0.0463  0.4154
21178W        W37252   4.479   4.881   0.924  0.2766 -0.3505  0.4823
21179W        W37253   5.260   4.367   2.831 -0.0171 -0.2186  0.3851
21180W        W37254  12.361   9.306  14.541 -0.0904  0.1622 -0.0223
21181W        W37255  17.772   7.569   1.252  0.1016  0.0692 -0.3042
21182W        W37256   8.276  17.765   1.473  0.1395 -0.0885  0.0801
21183W        W37257   1.853   3.217  12.863  0.2231  0.0334  0.1503
21184W        W37258  15.739   9.379   0.483 -0.4373  0.1278 -0.0740
21185W        W37259   2.838   6.633   2.594  0.0999  0.1577 -0.3096
21186W        W37260  10.436  16.463  12.185 -0.0974  0.0538  0.2319
21187W        W37261   2.954  13.237   0.678  0.0094  0.1423  0.0891
21188W        W37262   7.593   3.939   0.432 -0.2351  0.1848  0.4200
21189W        W37263   8.534   5.984   1.727  0.1160 -0.0396  0.0656
21190W        W37264   2.018   7.580   4.955 -0.0762 -0.1159 -0.0710
21191W        W37265   1.109   5.258   4.718 -0.2631 -0.0661  0.0090
21192W        W37266  14.677   3.164  14.054 -0.2304  0.2859  0.0136
21193W        W37267   5.587  15.450   2.190  0.1210  0.1047 -0.2518
21194W        W37268   1.831  14.496   3.032  0.1882  0.1684  0.1689
21195W        W37269   6.205  11.397  13.747  0.1608  0.1655 -0.2661
21196W        W37270   7.684   9.218   2.497  0.1433  0.1169  0.1111
21197W        W37271   8.734  16.765  15.007  0.3022  0.0319 -0.3378
21198W        W37272  17.673  17.129   4.975 -0.0053 -0.0360 -0.1401
21199W        W37273   2.661  14.819   2.224 -0.3554  0.1089 -0.1780
21200W        W37274   8.301  12.767  13.621 -0.1416  0.2970 -0.0231
21201W        W37275   0.917  14.910  15.808 -0.0842  0.2633  0.1021
21202W        W37276  16.644  11.040   1.123 -0.0622  0.1716  0.1107
21203W        W37277   7.887  14.047   4.810  0.2525  0.2454  0.0970
21204W        W37278  11.816  17.268   0.572  0.0806  0.0811 -0.1731
21205W        W37279   7.533   7.013  12.448  0.0098  0.0519  0.4044
21206W        W37280   1.184  12.747  13.903  0.0827  0.1617 -0.2215
21207W        W37281   2.996  14.794  15.797 -0.1592 -0.0594 -0.0096
21208W        W37282  15.997  17.027  14.843 -0.0291  0.0434  0.0168
21209W        W37283   0.871   6.755   3.180  0.1193  0.2066  0.0439
21210W        W37284  15.091   8.509  15.485  0.1126  0.3705  0.0889
21211W        W37285  13.370   2.732   1.766  0.4244  0.0758 -0.3149
21212W        W37286  10.779  15.054   2.403 -0.0285 -0.1671  0.0840
21213W        W37287   9.537   9.538  16.034  0.2296  0.0889 -0.4698
21214W        W37288   7.861   0.403   3.803  0.4650 -0.0916 -0.0323
21215W        W37289   9.422  11.363   2.142 -0.1286  0.1937  0.0779
21216W        W37290   4.925  16.044  16.349  0.0245  0.0119 -0.0351
21217W        W37291   7.819  10.600  13.869 -0.1986 -0.0685  0.1141
21218W        W37292   6.851  15.277  13.892  0.2938  0.1103  0.0721
21219W        W37293   2.169   9.507   3.462 -0.1632 -0.1181 -0.0006
21220W        W37294  11.461   0.538   0.227  0.6612 -0.2614  0.1257
21221W        W37295   5.689  11.041   3.473 -0.3382  0.2789  0.1791
21222W        W37296  18.097   3.171  12.503 -0.3623 -0.1380  0.1193
21223W        W37297  15.645  11.394   1.221 -0.0100  0.0597 -0.2675
21224W        W37298  12.934   8.440  13.325  0.0078  0.0206 -0.2801
21225W        W37299   7.005   2.484   5.444 -0.2601  0.1845  0.0617
21226W        W37300  15.341  17.850   0.854 -0.0272 -0.0165  0.1101
21227W        W37301  10.005  15.628   0.095  0.2283 -0.2215 -0.3910
21228W        W37302  15.598  15.584   1.815  0.1865 -0.2416  0.0545
21229W        W37303  16.916   4.544  13.646 -0.2905 -0.0416 -0.0784
21230W        W37304   0.790   8.828  15.091  0.0672  0.0564  0.2484
21231W        W37305  17.206  10.059  13.706 -0.0763 -0.0601  0.1108
21232W        W37306  13.337   7.250  12.151 -0.1005 -0.3126 -0.1346
21233W        W37307  10.671   0.729   3.625  0.1540 -0.2329 -0.0064
21234W        W37308   9.107   1.588  14.858  0.2069 -0.1624  0.0711
21235W        W37309   3.421   1.968   6.146 -0.0369 -0.0586 -0.1929
21236W        W37310   6.867  13.786  15.226  0.0739 -0.0361  0.1843
21237W        W37311   0.409   1.244   3.354  0.0421  0.0455 -0.1110
21238W        W37312  16.197  14.465  14.719  0.4308 -0.0869 -0.0015
21239W        W37313  14.545   5.684   3.556 -0.1071 -0.1066 -0.2418
21240W        W37314   7.414   7.510  14.229  0.1478  0.2057  0.1746
21241W        W37315   3.244   0.339  14.106 -0.0303 -0.0311 -0.1694
21242W        W37316   4.326   5.692  13.167 -0.2534  0.0638  0.2479
21243W        W37317  17.645   8.602  14.094  0.1929  0.2038  0.0178
21244W        W37318   7.523   3.113   0.010 -0.0415  0.1564 -0.1799
21245W        W37319   7.923   6.349  14.007  0.1577 -0.0534 -0.2770
21246W        W37320   8.098   2.324   2.037 -0.4329 -0.1522  0.4029
21247W        W37321   7.017  12.712  11.712  0.3064 -0.2857 -0.0375
21248W        W37322   2.970   8.273  14.931 -0.2782 -0.2024 -0.1372
21249W        W37323  16.850  17.930  11.537 -0.0701  0.1027 -0.0745
21250W        W37324   9.203   7.956   4.401  0.1586  0.0969 -0.0317
21251W        W37325  16.534  11.119  14.039 -0.0459 -0.1215  0.0919
21252W        W37326  17.254   9.204  16.231  0.2224  0.0173 -0.2070
21253W        W37327  11.985   4.841  13.979  0.0672 -0.1017  0.3354
21254W        W37328   1.638   4.461   1.111 -0.0992 -0.2194  0.3323
21255W        W37329   5.677   1.316  12.999 -0.0146  0.0189 -0.0519
21256W        W37330   6.348   6.557   3.812 -0.2095  0.0894 -0.0581
21257W        W37331   5.079   5.343   4.787 -0.1686  0.1280  0.3717
21258W        W37332  15.573   1.471  12.665  0.0100 -0.0883 -0.0404
21259W        W37333   8.856  12.362   0.412  0.1437 -0.2863 -0.0739
21260W        W37334  18.026   8.725   0.654 -0.2773  0.1876  0.0699
21261W        W37335  10.611   0.281   0.526  0.5833  0.1892 -0.0150
21262W        W37336   6.527  11.922  16.466  0.1742 -0.2380 -0.0920
21263W        W37337   7.568   0.233  12.906  0.2489  0.0225 -0.1610
21264W        W37338  14.448  16.349   5.091 -0.3018  0.0178 -0.0392
21265W        W37339   3.588   9.384   6.122 -0.4072  0.1004 -0.1736
21266W        W37340   4.766   0.359  12.187 -0.2973  0.0736  0.0233
21267W        W37341   5.881  10.498  15.541 -0.2939 -0.1827 -0.0350
21268W        W37342   9.751  11.504   3.913  0.0521 -0.1451  0.5011
21269W        W37343  10.643   6.835  15.627  0.2607  0.0960  0.0876
21270W        W37344   8.220   1.420   2.184  0.2282 -0.1373  0.0841
21271W        W37345   1.521   5.091   4.480  0.2685  0.1061 -0.3819
21272W        W37346  12.077   1.121  12.472 -0.3044  0.0011 -0.2819
21273W        W37347   4.332   7.451  11.052  0.1624 -0.0204  0.0709
21274W        W37348   3.851   7.730   2.531  0.1374  0.1825 -0.1033
21275W        W37349  10.370  14.318   5.257 -0.2094  0.1299  0.0413
21276W        W37350   6.268  14.418   1.329 -0.1122 -0.3885  0.3714
21277W        W37351   5.172  11.390  14.243  0.1147 -0.2117  0.2216
21278W        W37352   2.556  13.476  13.591  0.3821  0.0765  0.0396
21279W        W37353   8.846  10.031  11.736  0.2995  0.1459  0.2684
21280W        W37354  17.325   9.408   1.953  0.1448  0.2972 -0.1267
21281W        W37355   5.161   5.796  13.246  0.1153 -0.0148 -0.0920
21282W        W37356  15.376  11.449  11.626 -0.0511  0.2510  0.1352
21283W        W37357   2.196  12.243   4.532  0.2170  0.3219 -0.2469
21284W        W37358   9.125  14.320   1.932 -0.1417  0.1106 -0.2897
21285W        W37359  13.755   6.580  11.919 -0.1747  0.0965 -0.1896
21286W        W37360   6.133   2.598   3.854 -0.1240 -0.2626  0.0427
21287W        W37361   9.832   3.926   2.255 -0.0134  0.0382  0.2812
21288W        W37362  16.518  17.359   4.110  0.0271 -0.5209 -0.1706
21289W        W37363   6.658   9.580  16.495  0.0932 -0.0281  0.0439
21290W        W37364  10.515  12.692   3.845  0.0341  0.0935  0.1943
21291W        W37365   9.055  12.098  15.973 -0.5607  0.0358 -0.2596
21292W        W37366  10.955   3.658  12.766  0.0328 -0.0480  0.2804
21293W        W37367   8.864   0.349   2.870 -0.3621 -0.1209  0.1181
21294W        W37368  11.578  11.151   2.842  0.3732  0.1559 -0.3362
21295W        W37369   4.325   0.533  15.436  0.2039  0.1934  0.3308
21296W        W37370   4.299   7.461   2.226 -0.1784  0.1267  0.1247
21297W        W37371   4.064   7.240   3.821  0.1793 -0.1706 -0.1440
21298W        W37372   4.847  16.465   0.731  0.1803 -0.0236  0.1327
21299W        W37373  11.179   8.702   0.232  0.1282  0.0033  0.0476
21300W        W37374   2.398   4.522   0.967  0.1884 -0.0408  0.0374
21301W        W37375  12.329  17.210  16.058 -0.0013  0.0347 -0.0562
21302W        W37376   9.701  16.501  12.193  0.0347 -0.0115 -0.1960
21303W        W37377   2.971   5.268  14.392  0.0371  0.1288 -0.0067
21304W        W37378   9.576  12.540   3.963 -0.0469  0.4133 -0.1813
21305W        W37379   1.992   7.712  15.551  0.0061 -0.3370  0.1070
21306W        W37380  12.727   3.491   2.326 -0.1046  0.0802  0.2311
21307W        W37381   7.776  12.012   0.622 -0.1431  0.2588  0.1263
21308W        W37382  14.764   3.208   3.360  0.1351  0.0612  0.0850
21309W        W37383  13.224  13.625   4.017 -0.1056  0.2592 -0.3560
21310W        W37384  10.682   1.762  11.747 -0.0865 -0.0876  0.0111
21311W        W37385  16.113   2.991   2.950  0.2227  0.1948  0.0779
21312W        W37386   2.947   8.414   4.191 -0.1003  0.2180  0.1918
21313W        W37387   3.334  11.347  14.969 -0.2885  0.0440  0.0669
21314W        W37388   9.034  15.549   0.988 -0.1971 -0.0666 -0.1499
21315W        W37389   1.043   1.790   1.550  0.0148 -0.2007  0.0533
21316W        W37390   2.470  14.951  16.467 -0.2255  0.1731 -0.0416
21317W        W37391   3.704   0.727   2.266  0.2822 -0.1378 -0.2315
21318W        W37392   5.358  17.926   5.247  0.0083  0.2960 -0.1091
21319W        W37393  14.482  17.553   3.039 -0.2935 -0.0735  0.1941
21320W        W37394  14.744  10.291  12.031 -0.1234  0.1170 -0.1559
21321W        W37395   3.580   8.996  13.347 -0.4095 -0.1165  0.1057
21322W        W37396  17.761  17.441   0.100 -0.4093 -0.2300 -0.0694
21323W        W37397  13.639   4.882  12.857  0.0741  0.0961  0.0504
21324W        W37398   4.329   9.653  16.205  0.0479  0.0077  0.1508
21325W        W37399  10.414   5.545   3.349 -0.2765 -0.2708 -0.1201
21326W        W37400   7.608   9.151  14.231 -0.3510  0.3528 -0.3084
21327W        W37401   6.206  12.077  14.850  0.1203  0.2274 -0.1445
21328W        W37402   5.652  11.863   4.977  0.3220  0.0109 -0.1124
21329W        W37403  10.294   3.292  10.949 -0.0908 -0.4209 -0.3184
21330W        W37404  15.607  12.078  11.999  0.1424 -0.0735 -0.0461
21331W        W37405   3.336  16.168  12.217  0.1577 -0.1035 -0.2037
21332W        W37406  12.992   8.016  13.031  0.3534 -0.0813  0.2344
21333W        W37407  16.963   9.541  14.789 -0.3128  0.2450 -0.4419
21334W        W37408   0.583  11.424   3.290  0.0585 -0.0018  0.3410
21335W        W37409   4.007   1.212   5.725 -0.1013  0.1233  0.0064
21336W        W37410  15.932   8.690   4.270 -0.0412 -0.0084 -0.2738
21337W        W37411   7.476  14.971  11.941 -0.0313 -0.2169  0.2794
21338W        W37412   3.349   3.965  12.952 -0.0334 -0.0224 -0.1649
21339W        W37413   0.398   7.450   0.711 -0.1859  0.0616  0.0181
21340W        W37414   4.219  16.328   3.762  0.2469  0.1166  0.1213
21341W        W37415   5.881   2.820  13.447  0.0768  0.2342 -0.2442
21342W        W37416   0.421  14.676   3.545 -0.0452 -0.3760  0.2241
21343W        W37417   8.711   3.396  15.167 -0.0934 -0.2758  0.1626
21344W        W37418  16.959   7.573   2.873  0.0640  0.0262  0.1648
21345W        W37419  14.488  16.814   1.593  0.1276  0.0254 -0.2899
21346W        W37420  10.956   8.411  14.671  0.0414 -0.2406  0.0358
21347W        W37421   8.076   7.017  16.264 -0.0229  0.4320 -0.1426
21348W        W37422  17.713   4.130  14.569  0.2474  0.0179  0.0848
21349W        W37423   6.799  13.529   0.680  0.1805 -0.2744  0.3035
21350W        W37424   9.404   0.279   1.873  0.3401 -0.0689 -0.0091
21351W        W37425   1.000   4.867   0.130 -0.4681  0.0009 -0.0166
21352W        W37426   2.566  13.679  14.275 -0.0292  0.0467 -0.0631
21353W        W37427  10.764   1.172   2.667  0.0718  0.0510  0.1541
21354W        W37428   4.269  12.426  12.163  0.0256 -0.1326  0.0148
21355W        W37429  14.110   6.290  16.499 -0.0164  0.3378  0.2327
21356W        W37430  11.336   9.679   6.007 -0.1893  0.2557 -0.1594
21357W        W37431   9.426   9.628  15.545  0.0476 -0.1427  0.1240
21358W        W37432  17.574  13.970  16.082 -0.3859 -0.1654 -0.1626
21359W        W37433   1.315   8.476  13.410 -0.2872  0.0816 -0.0316
21360W        W37434   3.489  14.722   4.728 -0.0890  0.1655 -0.1684
21361W        W37435   9.142   1.739   1.425  0.2646  0.0420  0.0945
21362W        W37436   8.931  15.835  15.301 -0.0051 -0.3528 -0.3618
21363W        W37437  10.785   5.910  12.279  0.1011  0.1314 -0.2820
21364W        W37438   8.118   2.629  15.296  0.0024 -0.1939 -0.2710
21365W        W37439  14.826   0.358   5.907 -0.0235 -0.0174  0.2631
21366W        W37440   3.707  16.853  11.208  0.1794  0.4104 -0.0606
21367W        W37441   0.623  17.477   0.844  0.1282  0.0931  0.1305
21368W        W37442   2.759   1.329   4.041  0.4001  0.1055  0.0456
21369W        W37443  17.077   9.146   5.160  0.1400 -0.2609 -0.1416
21370W        W37444   4.992  11.481   3.887  0.1212 -0.4278 -0.0714
21371W        W37445  17.789  13.183  14.797 -0.0582  0.1865  0.1181
21372W        W37446   0.430   3.450  13.116  0.1636 -0.0698  0.3922
21373W        W37447  12.804   5.398  12.595  0.0871 -0.0550 -0.0919
21374W        W37448   4.199   7.835   4.002 -0.0227 -0.2198  0.0767
21375W        W37449  14.168  14.135   1.496  0.0464  0.0635 -0.0756
21376W        W37450  12.370   2.317   5.371 -0.0400 -0.0892  0.1222
21377W        W37451   6.590  16.216   3.982 -0.1503 -0.0651  0.0703
21378W        W37452   5.713   3.713   6.087  0.0704 -0.2013 -0.2367
21379W        W37453   6.464  10.037  14.772  0.0410  0.0058 -0.1096
21380W        W37454   9.260   4.261  15.779 -0.2491 -0.1436  0.1765
21381W        W37455   3.451   0.894   1.203 -0.4024 -0.1033 -0.3162
21382W        W37456  12.709  12.782   2.570 -0.1662  0.3253 -0.0626
21383W        W37457  12.171   2.821   2.940  0.0855  0.3687 -0.2780
21384W        W37458  17.263   6.950  15.893 -0.1061  0.0524  0.0749
21385W        W37459   9.160  16.319   0.900  0.0427  0.2936 -0.3890
21386W        W37460  15.503   1.444   3.986 -0.2753 -0.0480  0.0130
21387W        W37461   0.091   8.294   0.546 -0.1132 -0.0777 -0.1385
21388W        W37462  11.129  11.733  15.401  0.0074 -0.1190 -0.0904
21389W        W37463  12.469   7.433  12.753  0.1396  0.3257  0.0635
21390W        W37464   5.739   7.507  11.543  0.1812  0.0140 -0.0307
21391W        W37465   5.659  13.930   5.023 -0.1312  0.0677 -0.2629
21392W        W37466  10.838   8.686  13.783 -0.2341  0.2647  0.1267
21393W        W37467   2.818   7.046   5.455 -0.0793  0.1712 -0.1305
21394W        W37468  14.376   0.267   3.425 -0.1357  0.3193  0.0537
21395W        W37469  17.915   6.574   2.320 -0.1472  0.0028  0.3757
21396W        W37470  17.172   5.442  13.208  0.2782 -0.0634  0.1715
21397W        W37471  10.247   4.654   3.456  0.1382 -0.2334 -0.0703
21398W        W37472  17.292   6.653   1.669 -0.0231  0.0985  0.1778
21399W        W37473   7.039   7.264   1.792 -0.1254  0.1517  0.3428
21400W        W37474  16.924  15.829  11.965 -0.0993  0.1977 -0.1504
21401W        W37475   5.755  11.975   2.785  0.1512 -0.4754  0.3419
21402W        W37476  15.988   5.787  12.830 -0.3885  0.1098 -0.1297
21403W        W37477   4.582   9.783   0.354 -0.1224  0.0823  0.2688
21404W        W37478  14.878   8.954  15.269  0.0524 -0.2482 -0.1083
21405W        W37479   2.063   5.131  13.843  0.2435  0.1367  0.1167
21406W        W37480  17.609   4.273  10.775  0.0808 -0.3955  0.0296
21407W        W37481   7.570   1.824   0.605 -0.1198 -0.1689 -0.2435
21408W        W37482   9.579   7.731  11.503 -0.0325 -0.0803 -0.1460
21409W        W37483   9.395   6.666   3.254 -0.2034  0.2169  0.1407
21410W        W37484  12.981  15.757  13.603 -0.1517  0.4743 -0.2611
21411W        W37485  16.080   9.988   5.634 -0.2196  0.2046  0.1254
21412W        W37486   6.228   5.882  15.243 -0.3868  0.2304 -0.1247
21413W        W37487   5.142  11.024   1.972 -0.1522 -0.0118 -0.0294
21414W        W37488   4.009   9.853   4.598  0.1055  0.0194 -0.0930
21415W        W37489   8.239   6.409  12.834  0.1445 -0.3534 -0.2277
21416W        W37490  14.821   7.596  14.042  0.0228 -0.2004  0.1716
21417W        W37491   5.884  14.798  15.073 -0.0093  0.1461  0.1264
21418W        W37492  14.616   7.284  15.918 -0.2039 -0.2534 -0.2129
21419W        W37493   0.435   9.795  14.824  0.0189 -0.0286  0.1316
21420W        W37494  11.303   0.762   2.927 -0.1219 -0.0136 -0.1121
21421W        W37495  12.019   4.687   3.512  0.2555 -0.2256  0.1479
21422W        W37496   1.654  11.353   3.283  0.1685  0.0145 -0.4306
21423W        W37497  15.380  14.849  14.111 -0.1143 -0.3090 -0.4204
21424W        W37498  15.030  18.147  12.889 -0.0448 -0.0500 -0.0607
21425W        W37499   8.904   6.477   2.281  0.2564  0.1846 -0.4990
21426W        W37500   3.319   4.625   0.600 -0.0108 -0.2333 -0.0471
21427W        W37501  15.378   0.768  15.363  0.0900  0.3154  0.2813
21428W        W37502  16.610  17.692   1.044  0.0044 -0.1140  0.0782
21429W        W37503   9.436  13.293   3.713  0.2235 -0.1549 -0.1378
21430W        W37504   7.213   2.593  14.248 -0.1618  0.2510  0.3220
21431W        W37505   3.177  15.332   1.859  0.0952  0.3933  0.1865
21432W        W37506  12.711  12.302   4.511 -0.2548  0.2602 -0.0137
21433W        W37507  14.115  15.024  15.295 -0.0903  0.2082  0.2856
21434W        W37508   2.199   4.331  11.822  0.3170 -0.3874 -0.1116
21435W        W37509   5.942   3.232   0.702  0.2192 -0.2298 -0.3124
21436W        W37510  17.142  13.448  11.624  0.0081 -0.2572 -0.2004
21437W        W37511   3.044   7.653  11.703  0.2836  0.0948  0.0302
21438W        W37512   9.253   2.398  12.754 -0.1421  0.0502 -0.0373
21439W        W37513  12.084   8.663   0.294 -0.2424  0.0174 -0.1161
21440W        W37514   0.831   9.661   5.445  0.0731 -0.1249  0.3881
21441W        W37515   0.215   0.205  15.199 -0.2560 -0.1350 -0.4815
21442W        W37516   5.379  16.600  11.942 -0.2193  0.0002 -0.3853
21443W        W37517  10.219   8.436   5.850 -0.2478 -0.0128  0.2325
21444W        W37518   3.789  10.592   2.685  0.1434  0.0167 -0.0107
21445W        W37519   6.499   2.588  13.093  0.0364  0.2369  0.0191
21446W        W37520   4.245   2.690   2.569 -0.0588  0.1037  0.0710
21447W        W37521  16.615   3.683  12.046 -0.0797 -0.0689  0.0548
21448W        W37522  11.122   1.153   4.851  0.0907 -0.1122 -0.2745
21449W        W37523   3.566  12.261  12.482 -0.0300 -0.2180 -0.0065
21450W        W37524  13.135   0.329  13.902 -0.0972 -0.0199  0.1094
21451W        W37525   8.430  16.095   0.693  0.0510 -0.0238  0.1541
21452W        W37526   0.169  16.291  16.307  0.1257 -0.3506  0.2989
21453W        W37527  12.898   4.182  11.762  0.2432  0.1566 -0.0290
21454W        W37528   4.347  14.499  14.061 -0.0275 -0.1544  0.0184
21455W        W37529  11.667   9.681   0.044 -0.1462 -0.0414  0.0944
21456W        W37530   7.588   9.885  13.290 -0.3728  0.3472 -0.0001
21457W        W37531   5.523  17.011   1.227  0.2393 -0.0483 -0.3648
21458W        W37532   1.181   5.777  15.219  0.3963 -0.0750 -0.0382
21459W        W37533   3.919   6.641   4.916  0.2483 -0.0205  0.0830
21460W        W37534   3.119  10.265   3.840  0.2273 -0.1595  0.0947
21461W        W37535  18.127   0.781  12.667 -0.0919  0.1116  0.0172
21462W        W37536   9.983   3.379   4.483 -0.0029  0.1574 -0.0213
21463W        W37537  10.269   0.731   0.274  0.0661 -0.1336  0.0585
21464W        W37538   1.720   9.203   5.304  0.2117 -0.0177  0.1576
21465W        W37539   5.432   7.902   5.903 -0.2156 -0.0617 -0.2862
21466W        W37540   4.303   0.673   5.413 -0.2129 -0.0239 -0.1354
21467W        W37541   0.296  17.523  12.016  0.0072 -0.4798 -0.1673
21468W        W37542  17.492  16.588   3.428 -0.0385 -0.1641 -0.1274
21469W        W37543   5.795   9.737   3.060 -0.0283 -0.2324 -0.3385
21470W        W37544   6.827  13.930  12.785 -0.1627 -0.1144  0.0436
21471W        W37545   9.557   8.193   1.758  0.0570  0.3208  0.1417
21472W        W37546  16.240   4.785   4.778 -0.0510  0.2961 -0.0749
21473W        W37547  11.915  17.486  15.786  0.0033 -0.0467  0.2529
21474W        W37548  11.790  10.285   1.130 -0.3133  0.1179 -0.5449
21475W        W37549  11.802  11.591   1.234 -0.3092 -0.1552  0.1050
21476W        W37550   7.393   2.132   1.414  0.0231 -0.3380  0.2551
21477W        W37551   1.992  16.062   2.335 -0.2680 -0.1706 -0.0208
21478W        W37552  14.002   1.889   4.905 -0.3466 -0.0082  0.2195
21479W        W37553   5.031  16.067  10.727 -0.1018  0.0224  0.3413
21480W        W37554   8.070   3.393  15.093  0.0768  0.1911  0.4552
21481W        W37555  13.592  14.596   5.537 -0.1279  0.0343 -0.2044
21482W        W37556  12.964   4.931   0.565 -0.0798  0.1044  0.3490
21483W        W37557  15.386   6.170   3.229  0.1617 -0.0116 -0.0158
21484W        W37558  13.257  14.124  12.960  0.1226  0.1669  0.0313
21485W        W37559  10.821  17.113   5.631 -0.0289  0.2109 -0.1459
21486W        W37560   3.944  17.701  14.973  0.2003 -0.0305 -0.0511
21487W        W37561  14.272   0.024   5.289 -0.0616 -0.0535 -0.0250
21488W        W37562   7.045  12.422   3.317 -0.0726  0.4006  0.0138
21489W        W37563   3.914  17.404  14.046  0.0752  0.4029 -0.2258
21490W        W37564   5.729   2.169   2.842 -0.2001  0.0795  0.0757
21491W        W37565  16.021   4.786   2.818  0.0136  0.0376  0.1044
21492W        W37566   7.043   7.510   3.990 -0.1472  0.0701  0.2891
21493W        W37567  12.053  10.051   3.079  0.1369 -0.0540 -0.0904
21494W        W37568   5.905   0.244   2.302  0.0991 -0.2799  0.2744
21495W        W37569   0.508  13.704   2.718 -0.0084 -0.1749  0.0217
21496W        W37570  10.991   0.014   1.995 -0.3017  0.0182  0.2348
21497W        W37571  13.475   3.497  14.655 -0.1213 -0.3234 -0.0333
21498W        W37572   2.670  11.557  11.492 -0.0934 -0.2628 -0.1931
21499W        W37573   2.851   7.623  16.489  0.3785 -0.2669 -0.0331
21500W        W37574   8.831   2.839  12.016 -0.0585 -0.2146 -0.0307
21501W        W37575  17.274  16.175  14.622  0.2279 -0.0757 -0.0462
21502W        W37576   9.747   4.465  13.552  0.2995 -0.0729  0.0554
21503W        W37577  14.080  13.883   0.309  0.1690  0.0512  0.1159
21504W        W37578   7.138   8.353   5.272 -0.6214 -0.1124 -0.0210
21505W        W37579   9.664   1.235   4.871 -0.2046 -0.1658  0.0635
21506W        W37580   1.619  12.881   4.995 -0.1042 -0.0138 -0.2883
21507W        W37581   6.658   6.533  12.103 -0.0642 -0.0050  0.1506
21508W        W37582   7.207   8.077   5.809  0.0061 -0.1172 -0.2253
21509W        W37583   9.960  12.101   4.097 -0.1429 -0.0298  0.1278
21510W        W37584   7.309  17.494   3.188  0.0393  0.0010  0.2779
21511W        W37585  16.360  16.609  13.529  0.2404  0.1934 -0.0334
21512W        W37586   9.892   6.811   5.135  0.0323 -0.1941  0.0061
21513W        W37587   9.185   6.061  15.815 -0.0974 -0.2449  0.4390
21514W        W37588   6.975  12.964  14.995  0.0732  0.1627  0.1476
21515W        W37589   3.075  12.770  15.137 -0.0929 -0.2823  0.1891
21516W        W37590   9.319   9.046   2.917  0.0407  0.0092  0.0759
21517W        W37591   0.174  15.811  11.692  0.2270 -0.0771 -0.0068
21518W        W37592  11.287   3.894   5.387 -0.4394  0.3032  0.0255
21519W        W37593   1.139   3.969   2.391  0.1272 -0.3371 -0.1221
21520W        W37594   0.050   3.178  12.976  0.0153 -0.1486 -0.1435
21521W        W37595   3.037  17.223  11.443 -0.0035  0.2091 -0.2367
21522W        W37596   9.340   7.067   3.958 -0.0207  0.2170  0.0266
21523W        W37597   9.407   6.544  15.636  0.1583  0.1263  0.0108
21524W        W37598   1.618  10.273  14.386 -0.1042 -0.1788  0.2015
21525W        W37599  13.086   0.682  11.697 -0.1784  0.1007  0.0118
21526W        W37600  12.714  10.026   4.464 -0.1485  0.2194 -0.2961
21527W        W37601  10.805   2.386  11.960 -0.2117 -0.0740 -0.0374
21528W        W37602   6.140  14.802   0.885 -0.0497  0.2139 -0.3088
21529W        W37603   0.785   9.857   4.774 -0.0370  0.1351  0.0869
21530W        W37604   0.325  17.808  14.549  0.1323  0.0860  0.1191
21531W        W37605  17.363  14.551   2.099 -0.0841 -0.2822  0.0795
21532W        W37606  18.001   0.886   1.623  0.0679 -0.0413 -0.0522
21533W        W37607  13.897  14.557  12.700  0.0192 -0.3777 -0.0437
21534W        W37608   4.426   7.287   3.377  0.0558  0.4106  0.0283
21535W        W37609   8.863   5.190   0.511 -0.1408 -0.1098 -0.0917
21536W        W37610  11.814  10.567  13.440 -0.1838  0.0086 -0.3944
21537W        W37611   4.534   4.145  12.718 -0.1161  0.3346  0.1697
21538W        W37612  14.367   4.024  14.587  0.3900  0.2981 -0.1871
21539W        W37613   1.943   6.263   4.968 -0.1303  0.1061  0.2586
21540W        W37614  13.403  16.857   0.672  0.1311 -0.3457 -0.1053
21541W        W37615   2.743   3.193  12.763  0.0530 -0.0351 -0.0388
21542W        W37616  17.107  14.520  14.721 -0.0372  0.4718 -0.2815
21543W        W37617   0.524   0.339  16.211  0.1359  0.0674 -0.1863
21544W        W37618  10.231   3.256   3.156  0.3714  0.1134  0.1278
21545W        W37619   9.789  12.420   5.417 -0.1051  0.1956 -0.0012
21546W        W37620   2.101  14.012   4.317  0.2943 -0.0495 -0.0271
21547W        W37621   3.854  11.442  12.291 -0.0853 -0.2802  0.3270
21548W        W37622   9.148   8.479  12.246 -0.0143 -0.2095 -0.0229
21549W        W37623   4.296  14.925   1.609  0.3705 -0.1733 -0.0379
21550W        W37624  10.852  15.368  15.506 -0.0416  0.0088 -0.3196
21551W        W37625  16.436   4.610   5.583  0.0860 -0.2932  0.0126
21552W        W37626  11.171  15.499   1.158  0.0829  0.1656  0.0164
21553W        W37627  12.896   8.462  15.058  0.1437 -0.1160 -0.1639
21554W        W37628  13.458  17.585   0.806 -0.2743  0.0851  0.0700
21555W        W37629   5.387   7.529   5.506  0.0585  0.0109 -0.1648
21556W        W37630   6.057   0.464  14.678 -0.1040  0.2266  0.1092
21557W        W37631  12.293   7.970   5.439 -0.0007 -0.0093 -0.1706
21558W        W37632   7.164   4.009  15.934  0.1280 -0.0245 -0.0558
21559W        W37633  11.435   1.639   0.222  0.1392  0.2124 -0.0950
21560W        W37634   4.114  15.798  13.610  0.3505 -0.0789  0.0762
21561W        W37635  16.673   1.719   4.744  0.1027 -0.2124 -0.0244
21562W        W37636   7.118   3.582  16.123 -0.1431  0.0764 -0.2529
21563W        W37637   2.612  17.013   1.458 -0.1823  0.1217  0.0199
21564W        W37638  10.599   0.134  12.931 -0.0241 -0.0473 -0.4084
21565W        W37639  15.028  12.605  14.552  0.1121  0.1500  0.2166
21566W        W37640   3.290  13.031  14.711  0.0978 -0.2241 -0.3679
21567W        W37641  14.611   9.045  11.595  0.3236  0.0797  0.0003
21568W        W37642   2.329   1.860  12.694  0.1160 -0.0795  0.0595
21569W        W37643   1.359   2.327  14.820  0.1696 -0.0247  0.0180
21570W        W37644  18.099  13.606   3.842  0.1968  0.1513  0.2338
21571W        W37645   7.154  17.788  13.685 -0.2141 -0.1328 -0.0646
21572W        W37646  15.408   7.877   2.545 -0.5067 -0.0509  0.2964
21573W        W37647   4.360   8.802   6.442 -0.0988  0.1019  0.1521
21574W        W37648   2.416  10.426  12.409 -0.0169  0.1316  0.1624
21575W        W37649  16.632  17.092   5.024 -0.2844 -0.0205 -0.0848
21576W        W37650  14.159   3.780   4.528  0.0821  0.0965  0.4578
21577W        W37651   8.441  15.199   1.059  0.1334  0.0528 -0.1759
21578W        W37652   8.381  14.177   4.914  0.3358 -0.0182 -0.2151
21579W        W37653  12.491  10.484  14.673 -0.1621  0.0835 -0.4496
21580W        W37654   7.330   5.906  14.224 -0.2082  0.4371  0.1833
21581W        W37655  13.559   5.226   3.683 -0.2357  0.0158 -0.0182
21582W        W37656  17.715  15.297  16.084 -0.0135 -0.0534  0.1412
21583W        W37657  11.512   6.951  13.761  0.0787 -0.4134 -0.0879
21584W        W37658  13.679   8.044  15.332  0.2146 -0.0642  0.1175
21585W        W37659  11.626   8.977   0.407 -0.1661 -0.2354  0.2254
21586W        W37660   8.197   6.222  14.918  0.1261  0.1460  0.3089
21587W        W37661   2.619  14.244   4.846  0.0682  0.1270 -0.2112
21588W        W37662  11.852   8.481  16.200 -0.1230  0.0371  0.0488
21589W        W37663  10.256  10.555  15.924 -0.3036 -0.0426  0.0235
21590W        W37664   9.446  12.815   2.454  0.0725 -0.0997  0.0074
21591W        W37665   5.932   8.829   4.995  0.0920 -0.1015  0.1773
21592W        W37666  16.702   6.373  14.514 -0.0652  0.1441 -0.0595
21593W        W37667  17.011   5.905   5.510  0.1085 -0.3542  0.0512
21594W        W37668  15.497  13.064   4.239 -0.0191  0.3938  0.0308
21595W        W37669   3.353  17.281   5.460 -0.0108 -0.1549  0.0964
21596W        W37670   3.523  17.796  14.139  0.0031  0.1663  0.1307
21597W        W37671   4.892   5.049   5.225 -0.0899  0.2173 -0.0656
21598W        W37672   9.225   4.357  15.192 -0.3054 -0.0737  0.1973
21599W        W37673   9.893   0.202   2.629  0.2658  0.0693 -0.1167
21600W        W37674   1.504   6.914   0.085 -0.2402 -0.0615  0.1886
21601W        W37675  17.904  14.814   0.331 -0.1172  0.1689  0.1216
21602W        W37676   4.886  17.489   3.531  0.2523  0.1645  0.0692
21603W        W37677   1.761  17.240   0.150 -0.2174  0.1332 -0.1281
21604W        W37678   0.676  17.232   0.404  0.3342  0.0120  0.1234
21605W        W37679  11.224  13.671  13.655 -0.1627  0.0589  0.0071
21606W        W37680   0.542   3.483  14.359  0.2490  0.1202  0.3702
21607W        W37681  10.773   5.977   0.301 -0.1883  0.3292  0.0047
21608W        W37682  15.165  15.964  11.656 -0.2557 -0.1044 -0.0680
21609W        W37683   7.631  14.029  11.695  0.2531 -0.0143  0.2986
21610W        W37684   6.726   9.080  11.776  0.4483  0.3304  0.3746
21611W        W37685  14.448   8.063   1.817 -0.1410  0.3188 -0.1022
21612W        W37686   1.387   4.579  14.041  0.0535 -0.0588  0.0410
21613W        W37687  11.191   9.999  11.824  0.0879 -0.1761  0.0351
21614W        W37688   3.461  13.220   0.507  0.2086 -0.0504  0.0396
21615W        W37689   3.436  12.807   0.296  0.0728 -0.4587  0.0647
21616W        W37690   9.875   6.309   5.526  0.0357 -0.2192  0.0889
21617W        W37691   5.851   1.599   5.548  0.0615 -0.0875  0.0088
21618W        W37692   1.744   3.519   0.031  0.1264 -0.3363 -0.0507
21619W        W37693   1.326   2.000   0.540 -0.1319  0.1767 -0.2817
21620W        W37694   5.114  11.614  15.236 -0.1390 -0.2105 -0.2750
21621W        W37695   2.354   7.521  15.809  0.1640 -0.1251 -0.2905
21622W        W37696  13.052   2.136  15.584 -0.1237  0.0280  0.0321
21623W        W37697   7.979  17.202  16.090 -0.1327 -0.0424 -0.4692
21624W        W37698   5.236  11.260   3.385  0.0563 -0.2612  0.1561
21625W        W37699   2.993  17.580   2.685 -0.1638  0.2876 -0.0618
21626W        W37700   6.764  18.217   5.265 -0.4260  0.0686 -0.2780
21627W        W37701  13.782  17.468  13.707 -0.0779 -0.4512 -0.3023
21628W        W37702   6.588   4.074  15.761  0.3263 -0.1097  0.1973
21629W        W37703  12.138   4.511   6.227 -0.1936  0.1885 -0.0919
21630W        W37704   3.744   4.663  15.935  0.0915 -0.1865 -0.0986
21631W        W37705   5.156   1.858  11.415  0.4381  0.1481 -0.1201
21632W        W37706  16.000   1.203  15.710 -0.0563  0.2704 -0.2053
21633W        W37707   3.894  10.177  14.604  0.1121  0.2415 -0.0537
21634W        W37708   7.971  17.173   2.484 -0.1887 -0.1463  0.3834
21635W        W37709   7.086  16.297  13.973 -0.1035 -0.4215  0.1238
21636W        W37710  12.895   8.257  14.633  0.0594  0.1216  0.1826
21637W        W37711  10.740   9.225  16.130 -0.0564 -0.3076 -0.1548
21638W        W37712   1.778   2.198  12.086 -0.0127 -0.1584  0.1132
21639W        W37713  16.344   3.541   3.008  0.1200  0.3052 -0.1563
21640W        W37714   0.637   3.998   2.421 -0.1828 -0.1802 -0.1550
21641W        W37715   7.952   3.360   5.456 -0.0194 -0.1166 -0.1384
21642W        W37716  11.326   8.587  13.703  0.3718  0.0431  0.1977
21643W        W37717   2.549   0.990  12.334  0.2739  0.1284 -0.4344
21644W        W37718  11.543  14.706  13.987  0.0739 -0.0109  0.0148
21645W        W37719   2.635   3.821  13.645  0.0910  0.1328  0.1964
21646W        W37720   6.478   4.593  12.524 -0.2198  0.1039 -0.1854
21647W        W37721  15.641   7.341   4.955  0.1850  0.3250 -0.0245
21648W        W37722   8.653   1.083   2.007  0.2534 -0.0949 -0.1653
21649W        W37723   9.269   7.813   1.462  0.5599  0.1696  0.0581
21650W        W37724   7.725   9.022  11.107 -0.2416 -0.0739 -0.1494
21651W        W37725   3.856  11.892   0.175 -0.2451  0.1703  0.1482
21652W        W37726   1.320   9.907  12.659  0.2856 -0.1536 -0.2503
21653W        W37727   3.591  12.850   4.778 -0.0706  0.0684  0.0476
21654W        W37728   4.073   0.959  12.134 -0.2773  0.0343  0.2116
21655W        W37729  13.758  11.056   2.511 -0.1500  0.0591 -0.0961
21656W        W37730   0.272   3.824  15.177  0.1936 -0.0505  0.3728
21657W        W37731  13.890   8.954  12.906  0.1148  0.2116 -0.0717
21658W        W37732   9.382   7.895  14.368  0.3973  0.0837 -0.3207
21659W        W37733  15.811  15.500   0.894 -0.2401 -0.2774 -0.0801
21660W        W37734   2.591   4.350   2.883 -0.3955  0.3348  0.1163
21661W        W37735   1.685   7.146  13.311 -0.1902 -0.5566 -0.1262
21662W        W37736  11.195   6.164  13.090  0.0084 -0.1429 -0.0697
21663W        W37737   5.139   2.714   1.790 -0.0514  0.4056  0.1085
21664W        W37738   7.817   2.213  12.598  0.5158 -0.1641 -0.1003
21665W        W37739  14.358  12.929  12.257 -0.0510  0.3355  0.2468
21666W        W37740  15.793  17.916  14.183 -0.4196  0.1362  0.2545
21667W        W37741  14.775  16.293  12.188 -0.1674 -0.1381 -0.1193
21668W        W37742  13.079   0.974   1.091  0.1606 -0.0980  0.3366
21669W        W37743  14.303  11.281  15.861  0.1123  0.1842  0.2292
21670W        W37744   0.285   5.792  11.245  0.0215  0.1540  0.0399
21671W        W37745  10.745   5.430  12.357  0.1439 -0.0626 -0.0611
21672W        W37746  15.508   9.714   1.527 -0.2731  0.4386  0.0320
21673W        W37747  14.230   5.608  12.542 -0.2237  0.3640  0.2677
21674W        W37748  15.935   1.077   4.846  0.4220  0.0665 -0.2797
21675W        W37749   2.194  17.634  11.962  0.0887 -0.0956  0.0435
21676W        W37750   5.032   2.775   5.446  0.0522  0.1190  0.2043
21677W        W37751  11.817  11.271   2.249 -0.2219 -0.0165 -0.0346
21678W        W37752   8.377   4.297   0.171  0.1360  0.1429 -0.2679
21679W        W37753  10.100   9.555   3.859  0.0709 -0.7470 -0.0595
21680W        W37754   6.307   9.633   3.210 -0.2930  0.1089  0.0524
21681W        W37755  13.406   8.579   5.847 -0.1354  0.2481  0.2377
21682W        W37756  13.685  15.976   5.141  0.0354 -0.1482  0.2459
21683W        W37757   1.505   0.457   3.222  0.3497 -0.0475 -0.1617
21684W        W37758  14.914   0.333  15.506  0.0346  0.0579  0.0381
21685W        W37759  16.170  11.602   3.277  0.0266  0.1126 -0.1140
21686W        W37760  13.952   8.219   1.960  0.0032 -0.0515 -0.0217
21687W        W37761  12.323  15.749   4.945  0.2086 -0.2651  0.1501
21688W        W37762   7.095  11.324  15.977 -0.0577  0.2306 -0.2561
21689W        W37763  10.172  14.801  13.125 -0.2413 -0.1369 -0.0660
21690W        W37764  13.925   7.285   5.650  0.1951 -0.2478 -0.0969
21691W        W37765  13.826   2.835  12.369  0.3049 -0.0778  0.2059
21692W        W37766  15.239   6.089   2.430  0.2980 -0.0015 -0.0124
21693W        W37767   4.666   8.380  11.816  0.0244  0.0850  0.0533
21694W        W37768   8.007   2.030   1.581 -0.1765  0.3200  0.2415
21695W        W37769  17.936   3.964  13.823  0.0526  0.3225  0.5896
21696W        W37770  16.924   0.666  15.113  0.0955 -0.0692 -0.0692
21697W        W37771  15.083  12.103   0.452  0.1039  0.0224 -0.0732
21698W        W37772  12.833   0.941  11.283 -0.3838  0.2091 -0.0549
21699W        W37773  15.275  10.504  13.054 -0.1920  0.1482  0.0741
21700W        W37774  18.067  16.035  12.566 -0.1433 -0.0757 -0.2982
21701W        W37775  13.817   3.138   3.609  0.0531 -0.1857 -0.0177
21702W        W37776  11.368  11.261  13.296 -0.0022 -0.1789 -0.1715
21703W        W37777  14.973   4.904  13.370  0.1046 -0.0718  0.0320
21704W        W37778   5.721   4.735   2.365  0.1385 -0.3482  0.2011
21705W        W37779   9.131   2.532  15.289 -0.0081  0.0183 -0.2130
21706W        W37780  13.802  17.623   1.786 -0.1067  0.1612 -0.0244
21707W        W37781  15.177  13.428   1.779  0.2019  0.0127  0.2211
21708W        W37782  17.270   0.517   5.841  0.1164  0.0642 -0.1972
21709W        W37783   6.167  12.147   4.025  0.2412  0.0361 -0.0313
21710W        W37784  17.547  16.845   9.889  0.0499  0.3090 -0.1820
21711W        W37785   0.070   3.963   4.329 -0.0850 -0.2822 -0.0227
21712W        W37786  11.070  14.457   3.159  0.0220  0.3282 -0.1026
21713W        W37787  17.810   0.864   2.102 -0.1443 -0.1677  0.2663
21714W        W37788  17.810  11.336   3.512 -0.1371 -0.0487  0.0981
21715W        W37789  10.594   7.371   1.805 -0.0159 -0.3809 -0.3434
21716W        W37790   7.768   6.266  12.592  0.3279  0.0062  0.0569
21717W        W37791   4.261  10.502  15.699 -0.2138  0.2599  0.1806
21718W        W37792   5.972  15.564   0.036 -0.1286  0.0840 -0.1717
21719W        W37793   2.550   3.333   4.313 -0.0205 -0.1729  0.1377
21720W        W37794   2.082  16.581   4.487 -0.1505 -0.0325  0.1508
21721W        W37795   4.878   1.359   3.288 -0.1668  0.0718  0.1845
21722W        W37796   2.332   7.011  16.208  0.1749 -0.3960 -0.4093
21723W        W37797   0.426  11.183  12.369 -0.2279 -0.1577  0.1763
21724W        W37798   5.726  12.342   4.863  0.1847  0.2895 -0.0965
21725W        W37799   4.671   8.009  15.138  0.1549  0.1281  0.2178
21726W        W37800   9.174  16.049   3.962 -0.0450 -0.1998  0.0016
21727W        W37801   4.160  11.427   2.932  0.0338  0.1589 -0.0292
21728W        W37802  16.173  16.038   0.160  0.1588 -0.0114 -0.0146
21729W        W37803  16.787   1.501   3.865  0.0533  0.1279  0.0297
21730W        W37804  10.812   4.756   2.036 -0.3049 -0.5245  0.0194
21731W        W37805  11.282  12.339  13.250 -0.0520  0.0155 -0.1224
21732W        W37806   4.557   1.179   2.965  0.2369 -0.1708  0.1278
21733W        W37807  12.043  11.128  14.336 -0.1795 -0.0699 -0.2506
21734W        W37808  15.945  17.042   4.522 -0.0880  0.0033 -0.0543
21735W        W37809   2.975  10.888   2.984  0.1846 -0.0415  0.0033
21736W        W37810   8.919   9.132  10.655 -0.0131 -0.2358  0.2208
21737W        W37811  12.830   3.163  13.242  0.0033 -0.1238 -0.0186
21738W        W37812   8.012  16.918   1.168 -0.1341  0.1536  0.0272
21739W        W37813   9.333  13.041   0.912  0.0043  0.0686  0.0349
21740W        W37814   6.172   6.613  16.537 -0.1920 -0.0070 -0.2578
21741W        W37815   0.070  14.888  15.317 -0.4593 -0.2073  0.1109
21742W        W37816   5.995   0.569   0.709 -0.0808 -0.1169 -0.0010
21743W        W37817   0.234  11.853   1.034 -0.1738 -0.1358  0.0829
21744W        W37818   0.339  17.508   1.754  0.0307 -0.0711 -0.2281
21745W        W37819   0.469   7.247  13.500 -0.1604  0.2064 -0.0399
21746W        W37820   3.605  13.236  16.454  0.1469  0.1816  0.1484
21747W        W37821  13.582   0.062   5.910  0.1054  0.1255  0.2624
21748W        W37822   9.195  10.947   2.119  0.1680  0.2507  0.0734
21749W        W37823  10.156  13.573   4.911 -0.1233  0.0237  0.0525
21750W        W37824   3.341  13.236   5.145  0.0134  0.2623  0.0798
21751W        W37825   4.433   8.080  11.488 -0.1607  0.3444  0.3105
21752W        W37826  11.085   7.783   0.573  0.3287  0.1624 -0.0199
21753W        W37827   3.774   9.846  15.515  0.0217  0.2340  0.0721
21754W        W37828   4.483  12.312  12.697  0.0093 -0.2143  0.0832
21755W        W37829  12.831   7.247   3.305  0.1004 -0.1560  0.0291
21756W        W37830  12.366  15.391  12.110  0.2342 -0.0663  0.1212
21757W        W37831   3.092  14.135   3.778  0.1305  0.1328 -0.1223
21758W        W37832   7.116  18.002   0.711  0.0005  0.1352  0.0094
21759W        W37833   6.301   7.378  13.743 -0.2264  0.1023 -0.1178
21760W        W37834  16.988   1.014   1.274  0.1157  0.2365 -0.0410
21761W        W37835  16.624  12.214   3.179  0.3686 -0.2325 -0.0351
21762W        W37836   6.029   0.873  12.756 -0.2792  0.0851  0.3094
21763W        W37837   6.205  14.760  12.132  0.2649 -0.1491 -0.1904
21764W        W37838  15.727  17.851  10.206 -0.0680  0.1320 -0.1830
21765W        W37839  14.500   3.356   0.160 -0.0149  0.0085  0.2739
21766W        W37840  10.291  10.739   5.003 -0.0159  0.3742 -0.1401
21767W        W37841  14.098   6.773  13.419 -0.0855  0.1999 -0.1403
21768W        W37842  13.984   5.121   0.679 -0.0764 -0.2181 -0.1002
21769W        W37843   2.191   0.542   4.242 -0.0191  0.2406  0.1551
21770W        W37844   2.521  17.720   4.164  0.2344 -0.1602 -0.0458
21771W        W37845   7.136   0.551   5.588 -0.0470 -0.1796 -0.2831
21772W        W37846   3.965   0.689  13.592 -0.1337 -0.2141  0.2542
21773W        W37847  10.388   8.375  12.221  0.3442  0.0007  0.0873
21774W        W37848  18.008  10.235  15.638  0.0128  0.1098 -0.1866
21775W        W37849   0.285  16.620  14.997  0.1710  0.3739 -0.1440
21776W        W37850  16.127  16.062   4.541 -0.2446 -0.2472 -0.1750
21777W        W37851  14.856  13.698  12.044  0.2583  0.0504  0.3055
21778W        W37852   5.410  10.117  12.863  0.2034 -0.0624 -0.0379
21779W        W37853   5.615   8.684  13.514  0.2030  0.0886 -0.2835
21780W        W37854  15.847   7.308   2.792 -0.2336 -0.0285  0.0503
21781W        W37855   3.507   5.742   1.506 -0.0462 -0.0782 -0.0206
21782W        W37856   2.596  16.528  12.839 -0.0019  0.2839 -0.1587
21783W        W37857   0.254  10.230  15.002  0.0217  0.2621 -0.4969
21784W        W37858   1.935   0.440   4.691  0.1967 -0.3398 -0.0265
21785W        W37859   4.821  11.999  13.022  0.1563  0.0004 -0.3785
21786W        W37860  13.312   2.166   5.562  0.1977  0.1695 -0.4080
21787W        W37861   3.341  11.500  11.810 -0.0508 -0.4649 -0.1107
21788W        W37862   6.885  11.613  16.551  0.1562  0.2564  0.0266
21789W        W37863   6.964  15.006  11.077 -0.1562 -0.0432  0.1593
21790W        W37864  17.103   1.533  15.402  0.0342 -0.2156 -0.0159
21791W        W37865   2.251  11.640   4.568 -0.4243 -0.2702 -0.1490
21792W        W37866  14.144  10.588   1.877 -0.1400  0.1868  0.2842
21793W        W37867   9.452  17.149   3.642  0.0418 -0.0236 -0.4252
21794W        W37868   9.922   1.196   3.744  0.1683  0.1752 -0.0430
21795W        W37869  10.903   1.164  15.434  0.2452  0.0487 -0.2335
21796W        W37870  12.591   4.443   0.040  0.1033  0.2071  0.0196
21797W        W37871   8.115   9.584   2.242  0.1407 -0.1673 -0.0557
21798W        W37872  12.381  13.746   5.680 -0.4651  0.3153 -0.2072
21799W        W37873  14.467   4.667   4.648  0.0888  0.0922  0.0558
21800W        W37874  10.056   0.063   1.704 -0.2842 -0.2303 -0.0801
21801W        W37875  10.418   1.715  14.172  0.0262 -0.1481 -0.1476
21802W        W37876  17.106   7.511  13.455  0.0288 -0.2701  0.0980
21803W        W37877   6.565   1.587   1.632 -0.2645 -0.0908 -0.2441
21804W        W37878   2.413   3.572  16.488  0.1456  0.2276  0.1569
21805W        W37879  10.604   4.653  11.687  0.1250 -0.1642  0.2355
21806W        W37880  11.430  10.118   4.546 -0.1225  0.0578  0.1311
21807W        W37881  14.493   6.085   1.907  0.0796 -0.1995 -0.3244
21808W        W37882  11.735   6.799  14.181 -0.0339 -0.1247  0.2137
21809W        W37883  14.349   4.760   4.159  0.2464 -0.2142  0.0518
21810W        W37884  16.682  16.504  12.595  0.1287  0.2482 -0.0070
21811W        W37885   6.323  14.427  14.260  0.2245 -0.2808 -0.1330
21812W        W37886   9.780  13.905   6.036  0.3502 -0.0906 -0.2364
21813W        W37887   8.455   5.725   0.642 -0.1730 -0.1679 -0.1201
21814W        W37888  16.927  12.514   4.906 -0.1979  0.3134  0.0314
21815W        W37889   5.502   1.348  14.495 -0.0987  0.1123  0.1724
21816W        W37890  17.903  13.797  10.504 -0.0609  0.2645  0.2366
21817W        W37891  15.984   9.206   1.584 -0.2800 -0.2572  0.0460
21818W        W37892   4.464  15.250   0.055 -0.2596  0.3214  0.0563
21819W        W37893  13.429   1.111   1.438 -0.1526 -0.4678  0.1789
21820W        W37894   1.841   2.340  13.900 -0.1658 -0.1066  0.2821
21821W        W37895   0.543   3.919  15.943 -0.1193 -0.4867  0.0247
21822W        W37896  17.341   6.501   2.157 -0.2294  0.3154 -0.0140
21823W        W37897   1.803   6.064  12.857  0.1000 -0.1711  0.0591
21824W        W37898   4.179   5.241  15.599 -0.3115 -0.0332  0.0060
21825W        W37899   8.468  14.499  13.238  0.0038 -0.2602 -0.1644
21826W        W37900  17.129   5.622   3.819  0.0963 -0.1029 -0.2358
21827W        W37901   1.726  16.885   0.928  0.0211  0.2480  0.1323
21828W        W37902  11.036   2.039   0.551 -0.1659 -0.1279  0.1008
21829W        W37903   2.646  18.002   2.059 -0.1363  0.3180 -0.0572
21830W        W37904  10.960  11.658   5.459  0.2000  0.1594 -0.2946
21831W        W37905   2.058   1.672  11.662 -0.1599 -0.3110  0.3909
21832W        W37906   7.565   0.465   3.416  0.0403 -0.2294 -0.0380
21833W        W37907   5.832   9.104  13.815  0.0566  0.0804  0.1416
21834W        W37908  17.539   4.687  14.870 -0.1523  0.0697  0.2152
21835W        W37909   9.619   3.101   2.444 -0.3093 -0.1141  0.0950
21836W        W37910  15.789   9.490   6.323 -0.2857  0.3028 -0.0833
21837W        W37911   8.292   1.860  13.461 -0.0185 -0.1276  0.0602
21838W        W37912   3.134   5.173   2.398  0.0535 -0.0028 -0.0334
21839W        W37913   5.966   4.822   1.032  0.1806 -0.1776 -0.0905
21840W        W37914   1.127  17.666  16.287 -0.1446  0.0915 -0.0801
21841W        W37915  16.385  13.203   5.339 -0.3554  0.2833  0.0046
21842W        W37916  17.570   2.256  16.477  0.1481  0.1650 -0.0573
21843W        W37917  12.916  15.488   3.630 -0.0613 -0.2783 -0.0413
21844W        W37918   0.403   9.215   2.888  0.3963 -0.1013  0.1828
21845W        W37919  12.634  13.486   2.571 -0.3307  0.3174  0.2209
21846W        W37920   1.015  14.509  10.897 -0.0165 -0.1051 -0.0353
21847W        W37921   6.438  11.854   4.359 -0.1258 -0.1771 -0.1722
21848W        W37922   1.958  14.795   0.811  0.1626  0.2939 -0.1183
21849W        W37923  13.662  14.005  12.011 -0.2332 -0.1462 -0.0661
21850W        W37924   8.775   2.938   2.196 -0.1782 -0.0376  0.3974
21851W        W37925   9.092  14.999  15.622  0.0620 -0.0988  0.2132
21852W        W37926  16.073   1.236  16.230  0.0201  0.0861 -0.1330
21853W        W37927   6.367   4.800   2.045  0.1227  0.1027 -0.0865
21854W        W37928   0.209  12.986   3.885  0.0807 -0.3334 -0.0103
21855W        W37929  13.126  16.418  11.540 -0.1066  0.0817  0.2002
21856W        W37930  16.835  16.298  14.742 -0.2245 -0.5014  0.0014
21857W        W37931  13.530  15.444   1.658  0.1645  0.1465 -0.3838
21858W        W37932  18.011   6.470  15.391  0.1508 -0.2493  0.2332
21859W        W37933  15.462  17.356   0.449 -0.3009 -0.4802  0.1118
21860W        W37934   6.616  13.865   3.722 -0.0135 -0.2309  0.2284
21861W        W37935  16.226   3.867  12.374  0.2331  0.5478  0.0447
21862W        W37936   4.621  11.915  15.841  0.0723  0.2232 -0.2663
21863W        W37937  15.469  15.806  16.202  0.1323  0.0881 -0.1656
21864W        W37938  10.076  13.054   2.299  0.2048  0.0989  0.0612
21865W        W37939  14.739  15.160   3.707 -0.0334  0.0495  0.0748
21866W        W37940  13.515  12.701   4.145 -0.0495 -0.1116  0.0058
21867W        W37941  11.679   8.742  14.031  0.0313 -0.0359 -0.1125
21868W        W37942   6.342  13.428  14.428  0.0025 -0.2502  0.1337
21869W        W37943   9.300   4.394  12.305 -0.3379 -0.2508 -0.3417
21870W        W37944   7.169   4.832   4.145 -0.2311  0.0810 -0.1957
21871W        W37945   2.052   5.579   3.397  0.1149  0.2178  0.0362
21872W        W37946   1.965   4.676  12.711 -0.1388  0.1376 -0.1295
21873W        W37947   0.401   6.219   0.958  0.5273 -0.1612 -0.0156
21874W        W37948   5.530  11.452   3.853 -0.0828 -0.2697  0.1035
21875W        W37949  11.103  13.163  12.711  0.0856 -0.1931 -0.0915
21876W        W37950   9.177  12.828   5.523  0.2193 -0.0861  0.0532
21877W        W37951   9.367  10.089   1.694  0.1078  0.1185  0.1248
21878W        W37952  12.457   9.351   3.852  0.0640  0.0984  0.3972
21879W        W37953  15.084   8.057   0.767  0.0638  0.2515  0.2725
21880W        W37954  17.088   4.051  11.157 -0.0787 -0.0432 -0.4971
21881W        W37955  14.689   6.385   5.087  0.1338  0.0680 -0.3830
21882W        W37956  17.366   5.503   1.381  0.3783  0.2263 -0.1690
21883W        W37957   8.466   8.146   0.179 -0.1074 -0.0950 -0.3763
21884W        W37958   1.798   6.424  14.958  0.2044  0.0050 -0.0402
21885W        W37959  14.586   7.822   0.764 -0.0881  0.1215 -0.2346
21886W        W37960  17.455  12.998  11.934  0.1493  0.2159  0.0810
21887W        W37961   3.777   1.729   1.662  0.0701  0.0739  0.1196
21888W        W37962  14.277   3.056  12.615 -0.1675 -0.0757 -0.1778
21889W        W37963   9.802  13.693   3.006  0.0209  0.2740 -0.1683
21890W        W37964   0.211   2.973  15.087 -0.2031  0.1963 -0.2393
21891W        W37965  15.175   5.670  15.178 -0.0578 -0.1724  0.0547
21892W        W37966   7.483   3.057  12.916  0.0314  0.0820  0.0400
21893W        W37967   1.393  11.622   2.895  0.0461 -0.0964  0.1314
21894W        W37968   2.152   0.139   5.128 -0.1050  0.0478  0.0663
21895W        W37969   6.601  14.901  13.745  0.0829 -0.4710  0.3743
21896W        W37970  10.553  12.099   3.212  0.2891 -0.0335  0.0798
21897W        W37971   8.322  10.218   0.064 -0.1329  0.2307 -0.0838
21898W        W37972   7.196  13.544   3.216 -0.0082  0.2015 -0.0587
21899W        W37973  11.019  12.985  12.010 -0.1111  0.0338  0.1946
21900W        W37974  12.403   3.831  15.534 -0.1241  0.2450  0.1359
21901W        W37975   7.371  16.411   5.198 -0.0981 -0.0249  0.2579
21902W        W37976   9.007   5.891   3.279  0.4129  0.1529  0.2125
21903W        W37977   1.036   8.872  11.622  0.1680  0.1945 -0.0815
21904W        W37978  14.832  14.338  15.492  0.4135 -0.0188  0.0286
21905W        W37979   0.797  10.947  13.293  0.0283 -0.0921 -0.1062
21906W        W37980   5.123   2.817  12.058  0.2267 -0.2557  0.1668
21907W        W37981  12.285   4.770  15.388 -0.0457 -0.3560  0.0368
21908W        W37982   7.561  12.362   5.025  0.1618 -0.1532 -0.1509
21909W        W37983   6.594   8.905   1.613 -0.0279 -0.2620 -0.0246
21910W        W37984   0.523  10.935   0.262 -0.0500  0.0046 -0.0375
21911W        W37985  17.865   0.782  14.603 -0.0361 -0.0863 -0.0369
21912W        W37986  18.019   6.662   4.813  0.0747 -0.3629 -0.2843
21913W        W37987   1.601   4.004  12.517 -0.0238  0.2402 -0.0851
21914W        W37988   6.778   6.073  13.415 -0.0387 -0.2877 -0.1181
21915W        W37989  16.395   2.314  13.321 -0.1688 -0.1819 -0.0334
21916W        W37990  15.314  13.337   2.370  0.3517 -0.1097  0.0382
21917W        W37991  10.890   2.929   0.126  0.0088  0.1556  0.3587
21918W        W37992  12.689   0.637  15.972 -0.3555 -0.0404 -0.0816
21919W        W37993   7.480  12.319   2.337  0.2994  0.2848 -0.0846
21920W        W37994  16.663   5.035   5.289 -0.0213 -0.0455 -0.0052
21921W        W37995   6.333  18.155  11.518 -0.0501 -0.2276 -0.4473
21922W        W37996   1.692  17.255   3.849 -0.0058  0.1828 -0.0809
21923W        W37997  14.224   5.722  10.920  0.1093 -0.1549 -0.1375
21924W        W37998  13.562   1.904   5.248  0.1352  0.1358  0.2602
21925W        W37999   2.262  16.208   4.259 -0.1286  0.2690  0.2037
21926W        W38000  15.566   9.437   3.919 -0.1329 -0.1238 -0.0195
21927W        W38001   6.481   3.909   4.298 -0.0112  0.1945 -0.0107
21928W        W38002   9.700   9.155  12.189  0.1368 -0.1470 -0.2536
21929W        W38003  10.887  11.775  16.121 -0.1518  0.2378 -0.3201
21930W        W38004   4.416   0.664  13.310  0.0634  0.2436 -0.0108
21931W        W38005   6.680  11.050   0.163  0.0284 -0.1333  0.1987
21932W        W38006  14.800  18.210  15.939  0.1598  0.0174 -0.1925
21933W        W38007   4.528   7.282  16.142  0.2626  0.1412 -0.3247
21934W        W38008  16.049  17.279  12.805  0.1374 -0.2585 -0.1969
21935W        W38009   1.021  11.982  12.633 -0.2867 -0.1154 -0.1413
21936W        W38010   3.672   4.384  14.540 -0.3583 -0.0876  0.1893
21937W        W38011  16.139  13.785   0.523 -0.1248  0.2942 -0.2852
21938W        W38012  17.608   2.938  15.707  0.2067  0.0887 -0.1580
21939W        W38013   2.748   4.671  13.948 -0.1584  0.3792 -0.1243
21940W        W38014  17.458  15.816   0.718  0.0046  0.3323 -0.2013
21941W        W38015   8.046   4.618   3.989 -0.1912 -0.0801 -0.0026
21942W        W38016  10.645  11.977   5.240 -0.1992 -0.3072 -0.2411
21943W        W38017   4.884   3.678   4.949  0.2908  0.0203  0.2312
21944W        W38018   4.410  13.996   3.322  0.0844 -0.2572 -0.0567
21945W        W38019   9.866  12.646  14.253  0.0623 -0.2134 -0.2524
21946W        W38020   0.474   2.476   3.161  0.0881 -0.0732 -0.0949
21947W        W38021   1.775   3.451   2.294 -0.1164  0.0961  0.0381
21948W        W38022  13.315   2.260   2.156 -0.0091 -0.2387  0.2047
21949W        W38023   2.182   4.219  15.454 -0.2134  0.2830  0.0843
21950W        W38024  10.133   0.010  13.290 -0.1293 -0.1193  0.0997
21951W        W38025  15.210   3.970  14.490  0.0688 -0.0576 -0.0192
21952W        W38026   8.439   9.730   5.628 -0.0014  0.3945  0.2118
21953W        W38027   5.021  11.342  10.644 -0.0529  0.2453 -0.3150
21954W        W38028   5.573   2.431  12.238  0.2843 -0.0287 -0.2712
21955W        W38029   0.780   5.833  14.354 -0.2145  0.1373  0.0144
21956W        W38030  10.335   1.205   2.879  0.1313  0.3592 -0.1429
21957W        W38031  14.870   9.163   1.237  0.0124 -0.0963  0.1160
21958W        W38032   5.230  15.290  14.576 -0.2236  0.0601  0.2106
21959W        W38033   6.205  11.655  10.693 -0.0376  0.1849  0.1566
21960W        W38034   1.024   3.446  14.215 -0.4773  0.0226  0.0817
21961W        W38035   7.564   9.876   0.817  0.1483 -0.2015 -0.0668
21962W        W38036  12.131  11.126  16.474  0.0631  0.4967  0.3659
21963W        W38037  11.605  13.326  15.639  0.1431 -0.0463  0.1815
21964W        W38038   3.386   2.809  14.171 -0.2737  0.0821  0.2822
21965W        W38039   1.957  11.462  16.169  0.0395 -0.1404 -0.2152
21966W        W38040   9.975   1.358  13.267 -0.1486  0.1791  0.0195
21967W        W38041  16.189  13.872  14.553  0.1544  0.0481  0.0250
21968W        W38042   8.461   1.165   1.348 -0.1303  0.4300  0.1012
21969W        W38043   6.956   8.104  13.619 -0.0940  0.0451 -0.0279
21970W        W38044   2.885  12.945  14.086 -0.2330 -0.0523 -0.1452
21971W        W38045  18.027   4.030   5.598 -0.0649  0.0895 -0.0215
21972W        W38046  11.954  13.875  12.561 -0.0276  0.2947  0.0362
21973W        W38047   1.127  14.852  10.534  0.3343 -0.0558  0.3033
21974W        W38048   1.352   1.236   3.238  0.2658  0.1020 -0.0317
21975W        W38049   6.030   3.392   4.181  0.2255 -0.4356  0.1581
21976W        W38050   2.583  12.837  10.924 -0.0513 -0.2166 -0.0020
21977W        W38051   2.271  13.782  12.649 -0.0905 -0.0820  0.4591
21978W        W38052   6.674   1.871  15.039  0.0911 -0.0884  0.0833
21979W        W38053   6.642   3.050  12.178  0.0474 -0.0312 -0.0739
21980W        W38054  12.087   5.354   4.104 -0.1310 -0.0476 -0.0395
21981W        W38055   7.857  16.430  15.454  0.0992  0.3751 -0.2946
21982W        W38056  14.987   5.092  12.325  0.2368 -0.1565 -0.3221
21983W        W38057  10.131   8.796   4.502 -0.0269  0.0110  0.1392
21984W        W38058   2.614   7.462   2.000  0.2998  0.1972  0.2271
21985W        W38059  13.349   0.775  13.122 -0.1766 -0.0241  0.2154
21986W        W38060  10.704  17.213   1.514  0.0236  0.3339  0.0272
21987W        W38061   2.711   6.463   4.462  0.1512 -0.1606 -0.0018
21988W        W38062   1.471  14.223   0.908  0.1738  0.1867  0.0728
21989W        W38063  17.396   9.197  15.297 -0.0231 -0.2444 -0.1238
21990W        W38064   0.501  13.658   6.346  0.1218  0.0020  0.1310
21991W        W38065   1.951  16.895  11.905 -0.1511 -0.1847  0.3580
21992W        W38066  15.737   6.332  15.546 -0.1258  0.0268 -0.0732
21993W        W38067   2.191   7.898  12.366 -0.1947  0.0739 -0.0207
21994W        W38068   0.734  16.751  16.065  0.0243 -0.2163  0.1558
21995W        W38069   8.436   7.012   4.757  0.3044  0.2736  0.0798
21996W        W38070   7.752  14.496  11.990  0.1700  0.0830 -0.0471
21997W        W38071   8.191  18.015   0.790  0.1865 -0.1467  0.3128
21998W        W38072  12.561  12.224  11.577  0.1160 -0.1767 -0.0399
21999W        W38073  10.020  14.017  11.695  0.3419 -0.1228  0.0274
22000W        W38074  14.296  13.064  11.568 -0.0695 -0.0189 -0.1430
22001W        W38075   7.171  17.234  13.695  0.0853  0.0995 -0.2708
22002W        W38076  12.357  17.933   5.069  0.2652 -0.5451  0.2703
22003W        W38077  12.412   6.900  11.652  0.2993  0.0573  0.1926
22004W        W38078   6.745  11.223   2.965 -0.1454  0.1891  0.2584
22005W        W38079  18.178  12.188  16.280  0.5038  0.2235  0.3340
22006W        W38080   0.995  16.232  16.348 -0.2122  0.0321  0.2148
22007W        W38081  11.713  10.558  11.965  0.1156  0.2950 -0.0412
22008W        W38082  11.989   7.379   4.573 -0.1275  0.2197 -0.1732
22009W        W38083  11.607  15.165   1.006  0.0897  0.0907 -0.3325
22010W        W38084  13.729   8.589   5.445 -0.0266 -0.0729 -0.2728
22011W        W38085   0.411   0.137  13.277 -0.0149  0.1411 -0.0550
22012W        W38086   5.899  11.723   4.167  0.2455  0.1468  0.2859
22013W        W38087   0.993  16.882  15.599  0.0004  0.1024 -0.1370
22014W        W38088  12.788   0.271   4.321 -0.4603  0.0697 -0.1047
22015W        W38089  14.505  12.262   1.939  0.1049  0.1323  0.1848
22016W        W38090  14.732   1.137  16.418  0.2828 -0.3144 -0.1584
22017W        W38091   8.351  15.447  16.310  0.0519 -0.2685 -0.3170
22018W        W38092   2.579   2.270  12.559  0.2170 -0.3607  0.1197
22019W        W38093   1.772  13.470   4.130  0.3813  0.2482  0.0479
22020W        W38094   0.725  12.609   1.365  0.1220  0.3907  0.3624
22021W        W38095   5.589  16.922   0.708  0.1679 -0.2016  0.0180
22022W        W38096  15.418   4.637  15.108 -0.3222  0.0942 -0.1254
22023W        W38097   1.775  18.116   2.606  0.0355 -0.1970  0.0585
22024W        W38098   2.341   4.862  12.992 -0.0136 -0.0898  0.0759
22025W        W38099  15.174   8.972   0.497  0.0250 -0.0096  0.1045
22026W        W38100   1.553  12.564  15.181 -0.0963  0.0338  0.0333
22027W        W38101  12.086   0.141  14.082 -0.3066 -0.0436  0.0851
22028W        W38102   9.928   0.298  15.228  0.0500 -0.2318  0.0044
22029W        W38103   8.072  17.068   2.972  0.4544  0.4137 -0.0660
22030W        W38104   8.407   1.700  13.909 -0.3601  0.1075  0.4218
22031W        W38105   9.670  13.725   6.537 -0.1041  0.1178 -0.3312
22032W        W38106   7.245  10.131   1.203  0.0061  0.2299 -0.0725
22033W        W38107  14.934   3.538  14.267 -0.2309  0.3767 -0.0254
22034W        W38108   0.429  15.572   1.390 -0.2315  0.1581 -0.3164
22035W        W38109  12.606   6.778  14.456 -0.0910  0.0135  0.0015
22036W        W38110  16.830  13.066  11.523  0.1520  0.1448 -0.0897
22037W        W38111   4.951  10.422  10.411  0.3590 -0.1405 -0.0809
22038W        W38112   7.481  11.823   5.780  0.0206  0.0819 -0.1408
22039W        W38113  16.140  18.159  13.218 -0.2340 -0.2007 -0.1525
22040W        W38114   1.557   7.607  13.159  0.1811  0.2994 -0.0582
22041W        W38115   3.537  15.869  12.576 -0.0462  0.1030 -0.0107
22042W        W38116  11.158   5.161  15.186 -0.1104 -0.0688  0.1938
22043W        W38117   7.764   2.245   2.559 -0.1217  0.2634 -0.1376
22044W        W38118   1.803  16.783   3.558  0.1174  0.2442 -0.0937
22045W        W38119  13.678   6.991  12.720  0.3024  0.1676  0.1731
22046W        W38120  17.604  14.539   3.133 -0.2517 -0.0048 -0.4212
22047W        W38121   8.359   6.560   2.468  0.0698 -0.0198 -0.0080
22048W        W38122   4.739  15.925   5.084 -0.0776 -0.0435  0.1320
22049W        W38123   8.336   8.420  16.343  0.1534  0.2326  0.3067
22050W        W38124  14.818   3.910   4.732  0.1637  0.2285  0.0133
22051W        W38125  13.768   8.969   5.836  0.0780 -0.2724  0.0276
22052W        W38126   1.573  16.380   1.030  0.1186 -0.2597 -0.1966
22053W        W38127  12.871   9.363  13.867  0.0650 -0.2571  0.4788
22054W        W38128  16.220  10.608  14.909  0.0170 -0.6286  0.3955
22055W        W38129  11.914   2.611  14.250 -0.1297 -0.0456  0.2621
22056W        W38130  14.641   8.167   4.686 -0.0167 -0.1003  0.1008
22057W        W38131   6.116   7.718  11.824  0.0800  0.0153  0.1200
22058W        W38132  16.192   8.884  12.430 -0.3400 -0.1105 -0.2892
22059W        W38133  15.396  15.724   1.123 -0.1417  0.0378  0.1070
22060W        W38134   7.740  10.419   2.288  0.1275 -0.0978 -0.0511
22061W        W38135  16.733  13.643  14.652  0.0909  0.0611  0.3635
22062W        W38136  10.682  14.439  12.270  0.0095  0.0582  0.0586
22063W        W38137   4.650  13.429   5.771  0.0234  0.1663  0.1570
22064W        W38138   6.810  13.064   0.752  0.4300  0.1199 -0.2912
22065W        W38139  15.419  15.560  11.947  0.0090  0.0089 -0.2151
22066W        W38140  18.096  10.355  14.636  0.1943 -0.3438  0.2152
22067W        W38141   2.674  13.025  13.628  0.0947  0.1579 -0.0384
22068W        W38142   2.210   9.964   0.900  0.0613 -0.4406  0.2401
22069W        W38143  16.382   4.053  15.232  0.1771 -0.0157  0.2132
22070W        W38144  15.922  12.601   1.091 -0.0792 -0.0683 -0.1353
22071W        W38145   1.113   8.329  11.794 -0.1229 -0.1191  0.1618
22072W        W38146  18.171   3.222  10.927  0.1422 -0.1471  0.0103
22073W        W38147   0.018   4.256   3.175 -0.0680  0.2495 -0.2581
22074W        W38148   1.023  16.674   0.040  0.2083  0.2605 -0.1224
22075W        W38149  18.058   8.296   3.282 -0.0548  0.2900  0.0663
22076W        W38150   6.222  16.266  13.337 -0.1104  0.1625 -0.2157
22077W        W38151  14.866   0.629   0.013  0.0491  0.1101  0.0839
22078W        W38152  11.661  14.741  12.170  0.3255  0.0725  0.0922
22079W        W38153   6.502   8.187  15.540 -0.1273  0.0546 -0.0343
22080W        W38154  11.535   1.430   3.831 -0.0997 -0.3046 -0.0768
22081W        W38155  10.785   6.659  11.778 -0.1249  0.3309 -0.0575
22082W        W38156   2.323   3.308   1.057  0.0230 -0.0821 -0.0082
22083W        W38157  14.088  10.768  11.814 -0.2575  0.0072 -0.2027
22084W        W38158  14.029   4.280  12.915  0.0417 -0.1142 -0.1232
22085W        W38159  13.423   4.474  16.008  0.2699 -0.0002  0.0885
22086W        W38160   7.748  15.609  11.444  0.0161  0.1452  0.1654
22087W        W38161   8.617  18.173   0.489 -0.0085  0.0829  0.1644
22088W        W38162  15.977   4.596   4.402 -0.0252 -0.2833  0.6664
22089W        W38163  15.430  11.224   2.563 -0.1141 -0.0136  0.0048
22090W        W38164  12.567   3.513   6.013  0.3202 -0.2149 -0.4264
22091W        W38165  12.624  14.721   4.997  0.0620  0.1414  0.2959
22092W        W38166  11.510   4.414  13.134  0.1647 -0.0772 -0.2261
22093W        W38167   4.603   8.736   2.431 -0.0823  0.2202 -0.1256
22094W        W38168  10.458   8.591  16.036 -0.0468  0.0150  0.1437
22095W        W38169   9.109   3.282   5.018 -0.0754 -0.1044  0.1283
22096W        W38170  12.693   3.835  11.110  0.0339  0.1831 -0.0502
22097W        W38171  17.186   3.144  11.060 -0.0865  0.2079 -0.0177
22098W        W38172   0.341  10.926   5.824  0.0856 -0.2653  0.3204
22099W        W38173  16.373  12.625   4.888 -0.1511 -0.1939 -0.4524
22100W        W38174   4.968   4.006  11.594  0.0881  0.1123 -0.0395
22101W        W38175   4.646   2.480  16.428 -0.1383  0.0671  0.0339
22102W        W38176  13.641   7.450  11.620  0.0176  0.1601  0.1372
22103W        W38177  13.944  16.644  11.965 -0.1342  0.2974  0.0254
22104W        W38178   4.926  12.802   0.228  0.1798  0.4147 -0.1129
22105W        W38179   4.247  15.122  12.771 -0.0821  0.1956  0.0148
22106W        W38180  16.833   3.412  10.850 -0.0022  0.0298 -0.0642
22107W        W38181   4.782  14.380   3.357 -0.0697  0.1387  0.2518
22108W        W38182   4.849  11.283  13.367  0.2814  0.0463  0.0605
22109W        W38183  15.768  12.244   3.664  0.3011  0.0018 -0.1742
22110W        W38184  11.822  12.342  11.715  0.2385  0.0568  0.1669
22111W        W38185   2.961   0.625   1.043 -0.0383 -0.0723 -0.1258
22112W        W38186   4.291  15.100   4.984 -0.1533  0.1808 -0.0201
22113W        W38187  15.479  16.001  14.777  0.1901  0.2370  0.0699
22114W        W38188   7.251  15.691   0.354 -0.1713  0.2752  0.0830
22115W        W38189   7.121   9.745   3.975  0.1316  0.2371  0.0037
22116W        W38190   1.071   6.214   2.453 -0.0983 -0.1536  0.0388
22117W        W38191   4.538  16.266  11.435  0.1968 -0.0038  0.0948
22118W        W38192   6.953  17.593   1.009  0.1957 -0.0896 -0.0058
22119W        W38193   9.048  14.706  14.533 -0.2158  0.0529  0.1193
22120W        W38194   4.059   1.251  12.656 -0.3628 -0.0806 -0.1228
22121W        W38195  10.429  13.787  16.020  0.0055 -0.0275  0.0160
22122W        W38196  15.429   9.056   0.104 -0.0933 -0.1539 -0.2080
22123W        W38197   8.292  16.947   5.392  0.3667 -0.2081  0.0879
22124W        W38198   1.960  15.918  15.354  0.1691 -0.0245 -0.2351
22125W        W38199  10.887   8.615  15.467 -0.0984  0.3715  0.0797
22126W        W38200   4.706   9.956  15.189 -0.0882  0.1073 -0.0187
22127W        W38201  13.229  10.335   4.373  0.1521 -0.0963  0.1951
22128W        W38202  16.830   3.229  12.251  0.1613  0.3104 -0.0646
22129W        W38203   4.050   5.164  12.049  0.0714  0.4970 -0.0474
22130W        W38204   4.393   5.325   0.436 -0.1921 -0.0056 -0.0482
22131W        W38205   0.716   9.844   0.822  0.1693 -0.0574 -0.0678
22132W        W38206  11.348   9.242   5.695 -0.0164  0.1774 -0.3478
22133W        W38207  10.407   5.683   0.105  0.2682  0.0819  0.4201
22134W        W38208   3.482   5.303   1.233 -0.4047  0.2399 -0.1787
22135W        W38209   1.482  12.959   4.312  0.0329  0.2507 -0.0539
22136W        W38210  16.429   8.417  16.269  0.1207 -0.3679  0.2174
22137W        W38211  16.710  12.525  10.796  0.3585 -0.1651  0.1176
22138W        W38212   5.235  15.334   2.536  0.3799 -0.1556 -0.0887
22139W        W38213   5.225  17.085  12.148 -0.0844  0.1849 -0.2021
22140W        W38214  13.196   0.822  15.771  0.3207  0.0549 -0.1097
22141W        W38215  11.976  13.753  14.380  0.2696 -0.1399  0.1474
22142W        W38216  14.915  17.109  15.226  0.1839 -0.0885  0.2918
22143W        W38217   8.570   2.524   3.678  0.1608 -0.1237 -0.0416
22144W        W38218  16.150  16.490   5.463 -0.1096  0.2379  0.2201
22145W        W38219   8.654   0.515  15.880 -0.4341 -0.0440 -0.0343
22146W        W38220   6.664   2.648   5.819 -0.1610 -0.3298 -0.0730
22147W        W38221   2.784   7.913  14.632 -0.0911 -0.1919  0.1906
22148W        W38222   5.000  10.606   2.270  0.0424 -0.0040 -0.1855
22149W        W38223   8.372  17.261   3.814  0.1532  0.3615 -0.0481
22150W        W38224  10.187  16.327  11.765  0.0435 -0.2614 -0.2903
22151W        W38225  16.994  14.639   0.691  0.0520  0.1338 -0.0674
22152W        W38226   5.863   1.189  14.799  0.0749  0.0448  0.3998
22153W        W38227   9.414   7.253  12.922  0.4634  0.0624 -0.2801
22154W        W38228  15.009  18.184   1.737  0.2133 -0.0088  0.7483
22155W        W38229   7.435  10.995  14.535  0.2420  0.1128 -0.1118
22156W        W38230   1.149  12.684   5.229  0.2539 -0.1998  0.1479
22157W        W38231   8.256  11.377   4.330 -0.3152 -0.1602  0.0569
22158W        W38232   9.269  15.730  13.315  0.2370 -0.3208 -0.0284
22159W        W38233   0.950   0.987  12.561 -0.0776 -0.1828  0.0647
22160W        W38234   7.220  13.104  11.909 -0.2590 -0.0124 -0.1797
22161W        W38235   3.166   7.672  16.129  0.1354  0.1435 -0.2141
22162W        W38236  17.150   2.067  15.291 -0.0848 -0.0468 -0.0968
22163W        W38237  18.058   4.453  14.931  0.0379  0.5100 -0.0770
22164W        W38238  15.462   0.336  13.603  0.4249  0.0897 -0.1732
22165W        W38239   4.560   0.967  15.243 -0.0238 -0.0403 -0.1191
22166W        W38240  13.837   2.718  14.795 -0.2712 -0.1481 -0.3153
22167W        W38241  18.053  10.825   4.088  0.0097 -0.0315  0.1549
22168W        W38242  13.828   3.291   2.547  0.1730 -0.2972 -0.3886
22169W        W38243  16.401   5.239   0.405 -0.0961  0.2497 -0.2007
22170W        W38244  10.766  10.933   2.798 -0.1020  0.1310 -0.0655
22171W        W38245   2.772  10.950   1.253  0.1631  0.0069  0.1554
22172W        W38246   2.806  17.017  13.774  0.3966  0.0966 -0.2038
22173W        W38247  10.868  12.321   2.381 -0.0492 -0.1284  0.0236
22174W        W38248   4.910  15.828  11.441 -0.2236  0.0976 -0.2622
22175W        W38249  17.637  15.938  14.266  0.2669  0.1705  0.0601
22176W        W38250   2.219   5.724   4.789  0.4017 -0.2832  0.2504
22177W        W38251   4.034   7.225  15.973  0.2180  0.2531  0.0460
22178W        W38252   6.740   9.262  14.920 -0.1268  0.0505  0.3027
22179W        W38253  10.677   7.289  14.826 -0.1894  0.0736  0.0131
22180W        W38254   9.248  16.731  12.001 -0.0576 -0.0851 -0.0398
22181W        W38255  16.068   6.648   5.108  0.0502  0.2349 -0.3281
22182W        W38256   8.785   2.198  12.964  0.0461 -0.0443 -0.0455
22183W        W38257   9.017  11.911   1.637  0.2175  0.1256  0.1479
22184W        W38258   1.189  10.844   3.126 -0.0677 -0.3815  0.1750
22185W        W38259  14.430  15.385  13.013 -0.2127  0.2464  0.0962
22186W        W38260   8.665   0.649   2.429 -0.0436  0.0336 -0.1071
22187W        W38261   3.449   2.962   2.248  0.3022 -0.2476  0.3797
22188W        W38262  12.503  17.647  15.200 -0.0002 -0.0088 -0.0174
22189W        W38263   8.560   3.051   1.453 -0.1038 -0.2048  0.1562
22190W        W38264   4.487   2.092  15.746  0.2378 -0.0614  0.1825
22191W        W38265   9.439  13.890   0.160 -0.3161 -0.1859  0.0029
22192W        W38266  17.118  11.277   5.623 -0.4107  0.1360 -0.0351
22193W        W38267  17.571  10.951  11.339 -0.0368 -0.0731  0.1970
22194W        W38268  14.151  10.371  13.563  0.1845 -0.1025  0.2870
22195W        W38269   3.423   7.260  13.609 -0.0745 -0.0931 -0.0381
22196W        W38270   8.633   6.094   3.562  0.0861 -0.0122  0.1622
22197W        W38271  14.941   0.793  15.715 -0.1294 -0.0284 -0.1037
22198W        W38272  10.406  16.734   5.208 -0.3477 -0.4229  0.0501
22199W        W38273   3.445  16.970   1.924 -0.1639 -0.1271  0.0262
22200W        W38274  12.641   3.690  12.268 -0.0401 -0.0320 -0.0892
22201W        W38275   3.060   7.430   5.831 -0.1653  0.0882  0.0563
22202W        W38276  11.022   4.449  12.889  0.0717 -0.2488  0.0460
22203W        W38277   4.471  15.515  15.744 -0.0555  0.0994  0.1375
22204W        W38278  10.356   7.199   5.132  0.2445 -0.1668 -0.1834
22205W        W38279   8.111  11.709  15.384  0.3690 -0.0417  0.0843
22206W        W38280   4.210   9.867   5.580  0.1343 -0.0917 -0.1703
22207W        W38281  11.108   0.252   5.192  0.3276 -0.2265 -0.1318
22208W        W38282  17.799  15.936   2.345 -0.2159 -0.1109  0.0945
22209W        W38283   4.667   2.524   0.865  0.2632 -0.2619 -0.0952
22210W        W38284  17.574  10.129   1.164 -0.4798 -0.0969 -0.1573
22211W        W38285  11.047  17.678  15.165  0.1295 -0.0835 -0.1312
22212W        W38286   3.984  14.708  14.411 -0.3769  0.1054 -0.2654
22213W        W38287   0.928   4.063   3.400 -0.0386 -0.0989 -0.0014
22214W        W38288   8.759  11.948   3.848 -0.0199  0.2522  0.4016
22215W        W38289   4.052   3.666   5.311  0.1160 -0.0711 -0.1707
22216W        W38290   4.152   5.922   3.880  0.1378  0.0486  0.1577
22217W        W38291  16.012  14.931   4.469  0.2973  0.2181 -0.1097
22218W        W38292  16.355  17.948   3.134 -0.0810 -0.0848 -0.1112
22219W        W38293  12.256   8.902   1.094  0.0912  0.1882  0.2201
22220W        W38294  14.907   9.575   5.156  0.0635 -0.3723 -0.0659
22221W        W38295   4.608   1.963   3.706 -0.2917  0.1378 -0.1915
22222W        W38296  12.859  10.760  14.784 -0.1351  0.1743  0.1472
22223W        W38297  17.092  13.006   5.685 -0.1722 -0.0941 -0.0666
22224W        W38298   2.805  11.553   5.046 -0.0251  0.0615 -0.5534
22225W        W38299  17.879   8.653   0.052  0.2019 -0.2089 -0.0681
22226W        W38300   7.997   4.093  16.049  0.1707  0.0212  0.4362
22227W        W38301   5.842   9.271  15.079  0.1746  0.0740  0.3088
22228W        W38302   6.547   8.178   3.357 -0.0577  0.2474 -0.0127
22229W        W38303  11.585  11.359   4.367  0.4427  0.0924  0.0662
22230W        W38304   1.855  14.795  16.450  0.1190 -0.0836  0.0467
22231W        W38305   2.626  10.451   1.244 -0.2708  0.1494 -0.0552
22232W        W38306  15.348   7.342  11.191 -0.1496  0.1755  0.1448
22233W        W38307  14.502   1.632  16.457 -0.3723  0.0371 -0.0456
22234W        W38308   5.501  14.132   1.183  0.2057  0.1738  0.1810
22235W        W38309  10.057   5.680  12.107 -0.0015  0.4629 -0.2141
22236W        W38310  11.265   3.507   0.259  0.2603  0.3046 -0.3277
22237W        W38311   2.637   0.498   5.013  0.0003  0.2133 -0.0759
22238W        W38312   7.930   4.698  14.893  0.1702  0.1507  0.5447
22239W        W38313  13.189  14.639  11.608 -0.0142 -0.1370  0.0120
22240W        W38314   0.621   8.670   6.019  0.2568 -0.2425 -0.1947
22241W        W38315   1.048   8.919   2.490  0.0405  0.3295  0.0500
22242W        W38316  14.003  17.294   5.332  0.0840 -0.1572  0.3182
22243W        W38317   4.732  15.409   4.913  0.0595 -0.2259  0.0201
22244W        W38318  13.956   9.686   5.269  0.3319  0.1157  0.1679
22245W        W38319  12.578  11.029   2.863 -0.0827 -0.1601  0.1402
22246W        W38320   3.697   8.454   4.480  0.1069  0.0729  0.1443
22247W        W38321   8.456   1.120   6.543 -0.0787 -0.0934  0.2928
22248W        W38322   4.472   4.751  11.513 -0.1674 -0.0832 -0.1647
22249W        W38323   2.864   1.023  16.242  0.1195  0.1958  0.3668
22250W        W38324   3.715   8.566  11.933  0.1491  0.0952 -0.4771
22251W        W38325  11.116  16.753  14.573  0.2782 -0.3867 -0.2474
22252W        W38326   0.204  16.506  13.933  0.1150 -0.1287  0.0840
22253W        W38327   9.000  17.716  13.529  0.2836  0.0791 -0.0751
22254W        W38328   8.820   5.655  13.246  0.1456 -0.0624  0.0388
22255W        W38329   3.107   5.389   1.472 -0.0105  0.0656  0.1075
22256W        W38330  13.260   6.784   2.322 -0.2080  0.0933  0.0981
22257W        W38331  12.013   6.336  12.243  0.1558 -0.2856 -0.0671
22258W        W38332   8.811   5.716  16.114 -0.1713 -0.1149 -0.1461
22259W        W38333  14.058  12.231  16.198  0.1188  0.0937  0.1885
22260W        W38334   1.863  15.678  11.284 -0.0686 -0.0244  0.0287
22261W        W38335   8.453   6.434   4.856 -0.1414  0.2238  0.1240
22262W        W38336  18.022   0.401  11.100 -0.1094 -0.2937 -0.1315
22263W        W38337  15.765  12.622  15.281  0.1225  0.0874  0.1048
22264W        W38338   1.086  11.108   0.337 -0.2036 -0.0652  0.3194
22265W        W38339   9.000  13.315   1.634 -0.0382 -0.5626 -0.2092
22266W        W38340   1.129   5.151  16.237 -0.3268 -0.0827 -0.1563
22267W        W38341   0.288  14.377   0.991  0.2185  0.0486 -0.1133
22268W        W38342   9.267  13.576  13.960 -0.2589  0.1462 -0.1797
22269W        W38343  17.818   6.310  13.489 -0.3260 -0.1609  0.3190
22270W        W38344   5.715   4.286  11.338 -0.0530  0.3042 -0.2408
22271W        W38345  12.259  10.834   3.420 -0.2061  0.3521  0.1235
22272W        W38346   3.107  11.697   1.555 -0.1443  0.3320 -0.0070
22273W        W38347   6.293  12.044   2.852  0.3925 -0.3642  0.3835
22274W        W38348  11.718   5.366   5.919  0.0499 -0.0129 -0.0254
22275W        W38349   8.341   0.838   5.898 -0.2157  0.3597  0.1003
22276W        W38350   8.835  16.563  12.886 -0.4383 -0.1284  0.0586
22277W        W38351   1.893   0.101  16.161  0.0460 -0.2599 -0.0212
22278W        W38352  16.891  12.572   0.823  0.0626 -0.3678 -0.1524
22279W        W38353  17.212   8.456  15.642  0.0598 -0.1115  0.2847
22280W        W38354  13.568   2.895   1.069 -0.0651 -0.4125 -0.1261
22281W        W38355   6.623  11.663  13.716  0.0087  0.0470 -0.1109
22282W        W38356   0.061  17.225   2.575  0.3189 -0.1632  0.0576
22283W        W38357  17.426   3.429  13.048  0.1311  0.0799 -0.2697
22284W        W38358   2.382  15.548   1.257 -0.2661 -0.4902 -0.1354
22285W        W38359  11.184  12.180  12.379  0.4416 -0.1560 -0.0855
22286W        W38360   9.370  15.923   4.420  0.0457 -0.2313 -0.0264
22287W        W38361  15.960   2.400   4.149  0.0068 -0.1060 -0.1169
22288W        W38362  17.422   7.017  14.490  0.0745  0.0705  0.1746
22289W        W38363   2.013   6.822  14.270 -0.0192  0.3183 -0.2875
22290W        W38364   9.703   1.140  11.715  0.0420 -0.1336 -0.1668
22291W        W38365   1.763   9.981  14.892  0.1330 -0.4085  0.1337
22292W        W38366  14.757  14.542  12.077 -0.0306  0.2041 -0.1388
22293W        W38367   7.176  12.335   1.146 -0.2146 -0.3617  0.0442
22294W        W38368  15.342  12.264  12.503 -0.0389 -0.1404 -0.0873
22295W        W38369   7.813  13.340   1.166  0.1031 -0.2294 -0.3637
22296W        W38370  17.370   7.849  13.341 -0.1302  0.3484 -0.0130
22297W        W38371   1.969   4.779  11.589  0.0635  0.1098 -0.1376
22298W        W38372  10.961   8.327   4.877 -0.2221  0.0034 -0.0169
22299W        W38373   0.149   3.387  15.421  0.0266  0.2582 -0.0481
22300W        W38374  10.067   5.692   4.384  0.3861  0.0600  0.0758
22301W        W38375   3.917  18.054   4.106 -0.1681 -0.0076 -0.1431
22302W        W38376   0.906   3.053  11.538  0.0871  0.1840  0.0799
22303W        W38377  13.270  17.153   1.906  0.2396 -0.0277  0.0542
22304W        W38378  11.163  17.185   1.716 -0.0562  0.0757  0.0070
22305W        W38379   6.375   2.664   1.236  0.1761 -0.0689 -0.3850
22306W        W38380  17.868   6.183  12.958 -0.1851 -0.1622 -0.0139
22307W        W38381   4.307  14.599  14.837 -0.2055 -0.0028  0.3718
22308W        W38382  14.156  17.902  12.962  0.2353  0.1216  0.3178
22309W        W38383   9.709   7.535   2.245  0.5003 -0.2521  0.2083
22310W        W38384  11.178   3.517   3.740  0.0916  0.1332 -0.2609
22311W        W38385   7.167   6.983  12.022 -0.2088 -0.3563 -0.0836
22312W        W38386  16.249   1.381   1.689 -0.3129  0.1340 -0.0368
22313W        W38387   8.418  14.892  12.447  0.2484  0.1311  0.2611
22314W        W38388  13.811   7.846   0.564 -0.0854 -0.1883  0.3375
22315W        W38389  17.608   2.991  14.747 -0.1301  0.0939 -0.0134
22316W        W38390   8.406  16.076   0.093 -0.1024 -0.0983 -0.2219
22317W        W38391  16.611   8.855  15.948 -0.1131  0.0836  0.1150
22318W        W38392  12.142   2.938  14.780  0.0040 -0.0960  0.0587
22319W        W38393  14.893  10.364   1.824 -0.0092 -0.1407 -0.1659
22320W        W38394   5.842   6.927  14.528  0.1340 -0.0617  0.0675
22321W        W38395   5.461   7.253  13.583 -0.3510  0.0818  0.2025
22322W        W38396  12.287   0.396  12.802 -0.0910  0.0715  0.0974
22323W        W38397  16.092  15.786  12.178 -0.0420  0.0399  0.1632
22324W        W38398   5.361   6.922   4.556 -0.1551  0.2630  0.0813
22325W        W38399   8.827  13.395   5.248 -0.0385 -0.2070 -0.0258
22326W        W38400  15.411   7.018  14.662 -0.2676  0.0325 -0.2388
22327W        W38401   4.887  14.063   0.582  0.0758 -0.0805  0.1814
22328W        W38402   6.677   9.950  12.999  0.1288 -0.0299 -0.2815
22329W        W38403  14.408   6.366   1.425  0.2070 -0.0350  0.0065
22330W        W38404  17.552   3.772   2.018  0.0954  0.3705 -0.2187
22331W        W38405  14.618   5.492   1.118 -0.1325 -0.0804 -0.3001
22332W        W38406  15.143  17.076  12.316 -0.1216 -0.1082 -0.2079
22333W        W38407  10.432  10.547   2.721 -0.0918 -0.1064  0.3627
22334W        W38408   8.608  11.179  14.072 -0.0579  0.2677 -0.2410
22335W        W38409  15.621   3.794  15.314 -0.1698  0.3454  0.4236
22336W        W38410  15.469  13.591  15.126  0.0722  0.2285 -0.0759
22337W        W38411  18.093   8.297   1.610 -0.1543  0.1765  0.0412
22338W        W38412  13.643  13.198   5.223  0.1089  0.0005 -0.1973
22339W        W38413   0.380   7.728   2.107 -0.0004 -0.0140  0.1134
22340W        W38414  18.005   5.846  11.064  0.3198 -0.1577  0.0025
22341W        W38415   8.651   7.846   1.750  0.0263  0.2820 -0.2079
22342W        W38416   3.215   9.829   0.970  0.1908  0.0776  0.4700
22343W        W38417   8.714  11.023   4.958  0.1314 -0.1882 -0.0367
22344W        W38418  13.950   0.046   4.950 -0.1974 -0.1274  0.2536
22345W        W38419   1.206  10.258  10.961  0.2559  0.0109 -0.0559
22346W        W38420  18.001   5.394   4.615 -0.2372 -0.0585 -0.1026
22347W        W38421   2.431  16.462  14.656 -0.2741 -0.1048 -0.1696
22348W        W38422   3.518   0.741  13.312 -0.1774 -0.0006 -0.1148
22349W        W38423   8.388   9.558  13.340  0.1249 -0.1476 -0.1806
22350W        W38424  12.586  12.488  14.533  0.1579 -0.2736  0.3618
22351W        W38425   8.521   3.889   4.039 -0.1280  0.1888  0.1636
22352W        W38426   8.407   7.490   4.784  0.0310  0.0541  0.0054
22353W        W38427   7.038   1.739   1.473 -0.1240  0.2733  0.0141
22354W        W38428  18.181   7.795   4.760 -0.0000  0.1098  0.0592
22355W        W38429  17.270   4.639  12.586 -0.2035 -0.0405  0.1726
22356W        W38430  13.349   3.086  15.567 -0.1952 -0.0496  0.1360
22357W        W38431   5.028   5.746   3.486 -0.0438 -0.0166  0.1087
22358W        W38432   0.594  15.762  11.333 -0.0928  0.2996  0.2066
22359W        W38433  14.175  10.105  14.513  0.0313  0.0950 -0.1722
22360W        W38434   1.469  12.073  12.520 -0.1307 -0.1383  0.2036
22361W        W38435   0.286  11.822   3.818  0.5397  0.0374  0.0041
22362W        W38436  12.411  17.378  13.658 -0.1105 -0.1028  0.1443
22363W        W38437  13.633  16.612   1.019 -0.0701  0.1335 -0.0579
22364W        W38438   5.746   6.848  11.926  0.1037 -0.0982 -0.0457
22365W        W38439  12.472  17.277   0.010  0.1953  0.3280  0.2543
22366W        W38440  11.011  10.041   5.537 -0.0067  0.1283 -0.1346
22367W        W38441  17.609   1.005   4.170  0.0156 -0.3361 -0.0455
22368W        W38442  10.462   9.139   4.763  0.1087 -0.1244 -0.0005
22369W        W38443  11.491   0.386   3.870  0.2504 -0.0321  0.1337
22370W        W38444   0.621   9.116  13.572  0.0959 -0.1588  0.0155
22371W        W38445  11.925   0.880   5.860  0.3065  0.0391  0.1232
22372W        W38446   2.260  10.501  15.568 -0.2501 -0.0464 -0.2652
22373W        W38447  17.814   3.473  13.476  0.0669 -0.1197 -0.1757
22374W        W38448   4.948  13.179  12.216 -0.2414  0.0050 -0.1061
22375W        W38449   4.245   1.824   6.217  0.3419  0.0990 -0.2495
22376W        W38450   3.427  15.610   5.758 -0.1846 -0.4607  0.2962
22377W        W38451   7.444  11.737   5.272  0.1523 -0.2570 -0.1082
22378W        W38452   5.424   0.911  11.699  0.0919 -0.0602 -0.0102
22379W        W38453   4.206   0.508  16.183 -0.0935  0.0222 -0.0493
22380W        W38454   9.225  11.768  13.824 -0.2023 -0.3789 -0.1168
22381W        W38455  15.413   3.100   0.496  0.0007  0.1206  0.0070
22382W        W38456   9.524  14.477  14.343  0.0267  0.0780 -0.0668
22383W        W38457  16.373   6.735  12.758 -0.1145 -0.1573  0.0242
22384W        W38458   4.185  13.222   5.489  0.2300  0.0177 -0.2555
22385W        W38459   1.695  10.331   2.159 -0.0157  0.0041 -0.0389
22386W        W38460   8.426   7.857   2.255 -0.4058  0.0791  0.0422
22387W        W38461   3.966   8.926  13.028 -0.0223 -0.1413 -0.1455
22388W        W38462   7.458  17.527   5.991  0.1494 -0.2692 -0.0690
22389W        W38463   9.253  14.864  16.444 -0.1021  0.0973  0.0060
22390W        W38464  14.296   8.348  13.469  0.5415 -0.0276  0.5731
22391W        W38465  17.034  16.522   2.259  0.1090  0.0448  0.0313
22392W        W38466   5.837  14.588   0.315  0.1525  0.0708 -0.1242
22393W        W38467  14.743   3.137   3.945  0.5272  0.3120  0.1778
22394W        W38468  14.495   4.137   0.436  0.1492 -0.1336  0.2706
22395W        W38469  11.097  13.562   4.613 -0.0298 -0.0847 -0.3334
22396W        W38470   4.444   9.427   4.832  0.2845 -0.1856  0.1564
22397W        W38471   5.183   2.991  13.317  0.1135 -0.1301 -0.0493
22398W        W38472   3.539   8.954   3.419  0.0489 -0.0792 -0.1131
22399W        W38473  14.271   8.223   1.022  0.0539 -0.6213  0.0170
22400W        W38474  10.057  18.096   2.277 -0.0449 -0.0490 -0.2020
22401W        W38475  12.800  12.874   6.180 -0.0886  0.1297 -0.0869
22402W        W38476  15.363  15.616  14.500 -0.1569  0.3407  0.1451
22403W        W38477  13.005  14.983  13.690 -0.0959 -0.0543 -0.1265
22404W        W38478  12.331  17.774   1.810  0.1341  0.2317  0.1352
22405W        W38479   4.666   0.913   0.458 -0.3029  0.2368  0.0669
22406W        W38480   1.409  14.728   4.729 -0.0959 -0.1975  0.4863
22407W        W38481   4.345   0.642   2.259 -0.1041  0.0385 -0.0936
22408W        W38482   6.498   2.388   5.398  0.1145 -0.2697  0.4678
22409W        W38483   4.112  16.025   1.739 -0.0180  0.0350  0.0507
22410W        W38484   7.035   3.846   3.421  0.0094  0.2076 -0.0339
22411W        W38485   4.208  13.145  12.773  0.0190 -0.1552  0.2915
22412W        W38486  17.817   2.182  13.555  0.0990 -0.2314  0.1182
22413W        W38487   7.500  12.776   2.116 -0.2440  0.1154  0.0486
22414W        W38488   1.798  12.393   5.377 -0.2828 -0.0505 -0.0103
22415W        W38489   9.073  16.239  14.959  0.1638 -0.3302  0.0914
22416W        W38490  13.560   7.174   1.171 -0.1364  0.1743  0.0656
22417W        W38491  16.889   4.357  16.119 -0.0661 -0.0212  0.3266
22418W        W38492   6.935   2.376  13.342 -0.2582  0.0041 -0.2518
22419W        W38493   8.114   2.559   2.515 -0.1039 -0.1798 -0.1537
22420W        W38494   2.064   9.754   1.450  0.0815  0.0952 -0.0566
22421W        W38495   7.952  16.254   4.183  0.0617 -0.2624 -0.3020
22422W        W38496  11.469   0.834  13.726  0.1385 -0.0747 -0.0599
22423W        W38497  17.974   8.085   0.278 -0.0150 -0.3353  0.0186
22424W        W38498   1.234   0.432  11.597 -0.1166 -0.2282 -0.0182
22425W        W38499   0.828   3.913  14.106  0.2392 -0.0672  0.0535
22426W        W38500   9.464  11.107   4.021  0.2113  0.0797 -0.0757
22427W        W38501  12.875  14.984  11.377  0.1551 -0.0104  0.6766
22428W        W38502  11.045   9.806   4.210  0.2217  0.0638 -0.0463
22429W        W38503   2.321   6.081  11.539 -0.1067 -0.7912 -0.3936
22430W        W38504   5.743   3.359  11.670  0.1326 -0.1054  0.2213
22431W        W38505   5.983   9.593  12.405  0.1752 -0.0636 -0.1122
22432W        W38506   6.201   0.896   5.100  0.3382  0.3366 -0.0950
22433W        W38507   4.524  11.536   2.538  0.0264  0.0817 -0.1273
22434W        W38508   1.309  15.622   1.597  0.2302  0.1566 -0.0311
22435W        W38509   6.918   5.980   1.720 -0.0144 -0.0342 -0.1964
22436W        W38510   1.577  14.758  13.003  0.2823  0.1356 -0.2216
22437W        W38511   7.724   5.554   4.003  0.0505  0.0079 -0.2021
22438W        W38512  10.000   4.578  13.979 -0.2627 -0.1550 -0.0447
22439W        W38513  13.980   3.636  13.990 -0.2353  0.0257 -0.0943
22440W        W38514   0.699   0.715  10.818 -0.2032 -0.0055 -0.1427
22441W        W38515   0.663   9.223   2.271 -0.0704 -0.0330 -0.3089
22442W        W38516   1.482  14.738   0.781  0.0227 -0.1375 -0.0726
22443W        W38517   5.664   6.087  13.981  0.1692  0.1546  0.1229
22444W        W38518   7.470  14.818   0.589  0.1366  0.0771  0.0105
22445W        W38519  17.327   8.771  13.745  0.2768 -0.2916 -0.5469
22446W        W38520  15.689  10.267  12.569 -0.2472  0.2203  0.1077
22447W        W38521  15.794   4.255  11.256  0.1769  0.3234  0.0951
22448W        W38522   6.288  17.982   4.446 -0.0021 -0.0523 -0.0264
22449W        W38523  17.354   4.730   3.556  0.0743 -0.0734 -0.2494
22450W        W38524  10.493  13.612  14.914  0.1105  0.2909  0.2462
22451W        W38525   5.597  13.508  16.070 -0.2225 -0.1232  0.3830
22452W        W38526   2.367   0.688  13.188  0.1476  0.1030 -0.0574
22453W        W38527   9.909   8.940   0.854 -0.1772  0.0222 -0.0241
22454W        W38528  14.877   4.713  15.056 -0.2538 -0.2310  0.2345
22455W        W38529   9.038  14.351   3.327  0.0203  0.1536 -0.0845
22456W        W38530  10.075  10.352   5.754  0.2272  0.0539 -0.0506
22457W        W38531   6.759  15.348  12.392 -0.2075  0.0596  0.2466
22458W        W38532   6.916  10.542  15.623  0.1814  0.1950 -0.3248
22459W        W38533   3.524  13.853   3.591  0.2598 -0.1389  0.4072
22460W        W38534   3.236  16.723   2.379  0.0383  0.0137  0.3739
22461W        W38535   7.674   7.521  15.452 -0.2973  0.0733  0.0421
22462W        W38536   6.092  11.025  14.063  0.0382  0.0358  0.3900
22463W        W38537   6.648   6.757   1.902  0.2928 -0.0356  0.1158
22464W        W38538  18.162   1.852  10.939 -0.0019  0.1251  0.0916
22465W        W38539   0.845  12.769  11.495 -0.2316 -0.3377  0.1437
22466W        W38540  11.618   9.108   3.328 -0.0012  0.3128 -0.0627
22467W        W38541   8.889  14.247  14.267 -0.2625 -0.1744  0.1032
22468W        W38542  17.884   5.751   0.158 -0.0690 -0.2227 -0.0405
22469W        W38543   0.743  17.748  10.715 -0.2609  0.0285  0.0447
22470W        W38544   8.685   1.294  11.817  0.1248 -0.2013 -0.0194
22471W        W38545  17.485  13.509  16.209 -0.2307 -0.0333 -0.0996
22472W        W38546   1.558  11.532   4.209  0.1035 -0.0903  0.1179
22473W        W38547  12.498   9.365   3.332  0.1121  0.1402  0.2413
22474W        W38548  12.016   2.442  12.655  0.0157  0.1580 -0.0830
22475W        W38549   9.386   1.177   2.898 -0.0413 -0.0285 -0.1396
22476W        W38550   5.340   9.040   4.142 -0.0780  0.1092  0.1632
22477W        W38551  11.924   1.160   3.505  0.2218  0.2097 -0.0703
22478W        W38552  17.856   9.407   4.086 -0.1814  0.1507  0.0797
22479W        W38553  12.993  17.857  16.444  0.1646  0.2779  0.1237
22480W        W38554   1.457  16.521  15.598 -0.0159  0.2996  0.0027
22481W        W38555   2.835   7.861  12.514 -0.0635  0.0688 -0.0896
22482W        W38556   7.892   5.825   3.566 -0.0031 -0.0803 -0.3835
22483W        W38557   3.349  12.672   3.832  0.2525 -0.2273 -0.0759
22484W        W38558   2.767   3.219  11.527 -0.1992 -0.0508  0.0115
22485W        W38559   0.698  14.074  16.110 -0.0075 -0.1673  0.1493
22486W        W38560   7.071  11.517   2.676 -0.1130 -0.0716 -0.1062
22487W        W38561   3.557  11.589  15.379  0.0823 -0.0121  0.0456
22488W        W38562   7.455  12.292  11.868  0.0833 -0.0806 -0.0594
22489W        W38563  18.212  10.208  16.173  0.5142  0.0183  0.1230
22490W        W38564   1.032  14.875  14.045 -0.0212 -0.1972  0.0182
22491W        W38565  17.105  11.059   4.003 -0.2045 -0.2946  0.2575
22492W        W38566  12.670   0.680  12.044 -0.3164 -0.0509 -0.0837
22493W        W38567  10.426   6.903   4.737 -0.0621 -0.0004  0.2250
22494W        W38568  12.540   8.319  15.473 -0.1996 -0.1614 -0.1109
22495W        W38569  12.436   9.492  12.111 -0.2440 -0.3600 -0.1027
22496W        W38570   0.669   8.766   2.136 -0.0123 -0.0537  0.1046
22497W        W38571   3.702   9.944   1.952  0.4917 -0.1564 -0.3186
22498W        W38572   1.598   0.153   0.763 -0.5426  0.1918  0.0600
22499W        W38573  12.458  12.537   5.006 -0.1257 -0.1832  0.0579
22500W        W38574   1.396  11.324   0.669 -0.3961  0.0333 -0.0685
22501W        W38575  14.180  17.758   5.478 -0.1274 -0.2261 -0.0658
22502W        W38576  16.634  17.625   5.213  0.0023 -0.1721 -0.0002
22503W        W38577   7.025  12.523   3.980 -0.0978  0.2143  0.1075
22504W        W38578  12.837  10.080  15.624 -0.3149  0.0332  0.4173
22505W        W38579   3.763   3.751  14.503 -0.0747 -0.0804 -0.0980
22506W        W38580   1.404  18.216   4.210  0.0889 -0.0807 -0.0188
22507W        W38581   8.066  12.123  12.570 -0.0142 -0.1860  0.1111
22508W        W38582  12.333  12.282   0.643  0.1675 -0.4773  0.2758
22509W        W38583   3.488   1.610   3.386 -0.0912  0.1405  0.3079
22510W        W38584  14.512   0.101  13.832  0.2329  0.1150 -0.1667
22511W        W38585   7.937   1.564  13.672  0.0396  0.2667  0.0427
22512W        W38586   0.206   6.911   4.655  0.2411 -0.0614  0.1555
22513W        W38587  12.612   0.775   5.290 -0.3253  0.0560 -0.0538
22514W        W38588  12.183  15.126  13.097 -0.0611  0.0988 -0.2598
22515W        W38589   5.794  17.904  13.957 -0.1370 -0.3358  0.1093
22516W        W38590  12.965   0.421   5.108  0.1964 -0.0596 -0.1492
22517W        W38591   0.404  13.992   1.323 -0.2528  0.0400  0.2655
22518W        W38592  13.566  12.645  14.693  0.2210 -0.0572 -0.2366
22519W        W38593   8.783  15.231  12.197 -0.0050 -0.1476  0.0884
22520W        W38594   4.346   5.711  15.630 -0.0329 -0.2649 -0.4080
22521W        W38595  10.106  14.281  13.538 -0.2503 -0.1642 -0.1972
22522W        W38596   3.906  17.143  15.933  0.0864  0.1912  0.1307
22523W        W38597   0.421   8.851   5.194 -0.1810 -0.2115 -0.1571
22524W        W38598   3.473   7.513  14.241  0.1036 -0.3201  0.1451
22525W        W38599   7.122  15.097   3.615 -0.0428  0.2278 -0.1722
22526W        W38600   9.031  18.081   1.194  0.1013 -0.0634  0.3537
22527W        W38601  17.335  10.373   1.653 -0.5154  0.0109 -0.5201
22528W        W38602   5.217   4.842   1.446  0.1021  0.0110  0.2537
22529W        W38603  17.708   8.183  13.783 -0.2120  0.4446  0.3784
22530W        W38604   5.036  13.452   5.431  0.2210  0.3206  0.0145
22531W        W38605  13.575   3.184  12.048  0.1774  0.0694  0.1749
22532W        W38606  12.363   5.427   6.326 -0.2146  0.0537 -0.1204
22533W        W38607   5.493  15.964   5.837  0.2356 -0.0182  0.2138
22534W        W38608  14.034   4.040  11.032 -0.0360  0.1146  0.0621
22535W        W38609  15.021  16.697  11.980 -0.1727  0.0712  0.0552
22536W        W38610   7.122  12.784  13.008 -0.2541  0.3504  0.1269
22537W        W38611   3.339   8.929   0.497  0.0045 -0.1775  0.3931
22538W        W38612   2.678  12.072   4.558  0.2224  0.3000 -0.0728
22539W        W38613   6.622   4.162   0.952  0.2496 -0.0848 -0.5043
22540W        W38614  10.195  13.899   3.791  0.0224  0.1883 -0.0400
22541W        W38615   3.633  13.364   1.474  0.0065 -0.4217  0.0079
22542W        W38616   8.028   2.086  15.206 -0.2232 -0.2259 -0.2930
22543W        W38617   9.203  10.580   0.433 -0.1792 -0.2694 -0.0013
22544W        W38618  10.650   9.443   3.205 -0.1151  0.2284 -0.1909
22545W        W38619   5.985  15.225  12.836 -0.0809  0.0415  0.1428
22546W        W38620   3.740  10.582  14.344  0.0939 -0.4348  0.1491
22547W        W38621   7.070  13.734  12.304 -0.0273  0.2624 -0.2470
22548W        W38622  10.446   7.170  11.591  0.5622  0.2222 -0.2579
22549W        W38623  14.618   8.275   2.486  0.1099  0.2511 -0.2770
22550W        W38624  15.471  15.831   0.592 -0.2118 -0.1223  0.2925
22551W        W38625  12.941  13.074  14.193  0.2066  0.2730 -0.1379
22552W        W38626   7.841  14.672   1.539  0.2453  0.0517  0.1577
22553W        W38627   3.604   5.604  11.379  0.1527 -0.0336 -0.1189
22554W        W38628   6.037  16.298  15.455 -0.5310 -0.3036 -0.1077
22555W        W38629  14.659   7.881  14.522 -0.1837 -0.0591  0.0187
22556W        W38630   5.694   9.381   0.477  0.0190  0.2740 -0.1797
22557W        W38631  11.273   5.595  12.221  0.1171  0.0830  0.3758
22558W        W38632   6.819  15.819  14.142  0.1758  0.1133 -0.1487
22559W        W38633   9.347  16.974   1.729  0.1826  0.2191 -0.2827
22560W        W38634   6.520   9.387  11.437 -0.0961 -0.0439 -0.1288
22561W        W38635   5.989  14.341   2.433  0.2912 -0.1317 -0.2113
22562W        W38636  16.673  10.612  15.838 -0.0638 -0.1678 -0.1196
22563W        W38637   3.593   4.373   0.224 -0.0885  0.1857 -0.0689
22564W        W38638  10.557   3.862   3.165  0.1017 -0.2076 -0.0214
22565W        W38639   1.552   2.364   3.854 -0.2737  0.2009  0.1778
22566W        W38640  16.738  17.749   1.515  0.0764  0.0845  0.2438
22567W        W38641   2.936   4.229  13.940  0.0295 -0.0790 -0.0713
22568W        W38642  17.575  17.716   3.744  0.2806  0.0669  0.1279
22569W        W38643   7.151   5.661   2.908  0.1289 -0.1714 -0.2182
22570W        W38644   0.507   6.565   4.970 -0.4265  0.1035  0.1746
22571W        W38645   0.356  15.424   1.867 -0.0380  0.1009 -0.2043
22572W        W38646   1.817   9.042   3.221  0.3838  0.0617  0.2998
22573W        W38647   9.926   2.309  14.694 -0.1482  0.0355 -0.0854
22574W        W38648   6.585  16.799   4.049 -0.1219 -0.0866  0.2686
22575W        W38649  16.470   1.725  12.208 -0.1066  0.2173  0.0001
22576W        W38650  10.540   0.776  13.796 -0.0743 -0.1250  0.0984
22577W        W38651   2.039   9.767   0.400  0.0511  0.2092  0.1073
22578W        W38652  11.325  12.349  11.932  0.0801  0.0646 -0.0346
22579W        W38653   5.239   9.170  11.741  0.0807 -0.3203 -0.2897
22580W        W38654  15.608   6.873   1.045 -0.0463 -0.0781 -0.2346
22581W        W38655   3.591   8.097  13.274  0.3241  0.1076  0.2865
22582W        W38656  16.397   3.390   3.472 -0.2161  0.3437 -0.0733
22583W        W38657  11.380  14.334  16.354 -0.0423  0.3826 -0.0069
22584W        W38658   1.810   2.737   5.691  0.1006  0.1637 -0.1330
22585W        W38659   7.075  18.082  10.262 -0.0460  0.0139  0.0106
22586W        W38660  11.921  17.813   2.999  0.1388 -0.1204 -0.0479
22587W        W38661  16.232  17.787   1.422 -0.1136 -0.0867  0.1857
22588W        W38662  15.559  10.845   3.491  0.0050 -0.3925 -0.3871
22589W        W38663  16.354  17.699  11.944 -0.0140  0.0117 -0.0737
22590W        W38664   5.936   5.910   5.791 -0.1823 -0.1705 -0.4437
22591W        W38665  17.822  14.342   0.529  0.4715 -0.2693 -0.0168
22592W        W38666  16.267  11.684  15.801  0.1090 -0.1801  0.1539
22593W        W38667  12.985  16.343   2.419  0.5099  0.0228  0.3633
22594W        W38668   2.026   9.964  11.420 -0.1489 -0.1022  0.0454
22595W        W38669  11.157  10.500   0.426 -0.2826  0.2788 -0.2694
22596W        W38670  17.961  17.617  11.037 -0.0135  0.2435  0.2388
22597W        W38671   0.612   1.155   4.925  0.0371 -0.1210 -0.0160
22598W        W38672  11.607   1.684  15.069 -0.3374  0.3062  0.0460
22599W        W38673   4.327   7.630  15.248 -0.2772 -0.0726  0.2922
22600W        W38674   2.265  11.002  14.793 -0.1291  0.0472  0.3593
22601W        W38675  13.910  14.530   0.056  0.5131  0.1448  0.2417
22602W        W38676   5.158  16.246  12.771  0.1730  0.1357 -0.0997
22603W        W38677   7.392  10.541  15.533  0.0754  0.3853  0.0339
22604W        W38678   5.118   9.593  12.041 -0.2571  0.0047  0.2125
22605W        W38679  16.253  12.167  15.687 -0.3267  0.1049  0.0369
22606W        W38680  11.935   6.215  14.101  0.1696  0.0684  0.0308
22607W        W38681  11.484   3.319   2.054 -0.0665 -0.3176  0.3308
22608W        W38682  16.900   8.148  15.349 -0.2672  0.1938 -0.1429
22609W        W38683   1.840   9.096   0.007 -0.0266 -0.2299  0.2153
22610W        W38684  16.782   8.813   1.393  0.0558 -0.1320 -0.1755
22611W        W38685   9.804  12.087  11.946 -0.1972 -0.2230  0.0009
22612W        W38686  11.644  13.389  11.898  0.1208 -0.0241 -0.0303
22613W        W38687   2.370   5.052  11.422  0.0138 -0.1535 -0.0662
22614W        W38688  12.611   3.671   5.422  0.0068  0.2217 -0.2963
22615W        W38689   1.038   6.717   3.627 -0.2476 -0.4464 -0.0411
22616W        W38690   4.389  17.663  14.221  0.1111  0.4403 -0.2766
22617W        W38691   2.340  14.996   4.524 -0.0000 -0.1055 -0.0555
22618W        W38692   0.448  14.457   3.963  0.1758  0.1012 -0.1992
22619W        W38693   9.849   2.691  14.174  0.0970  0.0386 -0.3843
22620W        W38694  15.765  13.875   3.465  0.2071 -0.4175 -0.2841
22621W        W38695   7.027  11.985   2.537  0.0253 -0.0953 -0.2358
22622W        W38696   0.731  10.932  16.329 -0.1471  0.2735  0.1166
22623W        W38697  14.154   2.640  15.616  0.0278  0.0185 -0.1534
22624W        W38698  14.792   9.388   0.402  0.1297 -0.1305  0.1373
22625W        W38699   1.792  15.446   5.082  0.2345 -0.1143 -0.0531
22626W        W38700   0.340   6.368   3.985 -0.1198  0.0081 -0.0613
22627W        W38701   5.605   3.590  12.040  0.1209 -0.2441 -0.0443
22628W        W38702  14.092   3.305   4.647  0.1960  0.3314  0.2061
22629W        W38703   1.152   8.096   5.230 -0.3153  0.1204  0.1693
22630W        W38704   7.505  14.544  12.914 -0.0860 -0.2910 -0.1608
22631W        W38705  13.493   9.729  15.323  0.4336 -0.0284  0.0186
22632W        W38706   0.072   0.918   2.096 -0.0847  0.3127  0.0051
22633W        W38707   4.789   7.719  12.404  0.0223 -0.1022  0.1831
22634W        W38708   0.274   1.096   0.292 -0.0631 -0.1688  0.2206
22635W        W38709  15.250   9.045   5.773 -0.0226  0.0808 -0.0346
22636W        W38710  13.271   4.208   5.358  0.1832  0.1126  0.1796
22637W        W38711   7.672  14.191  13.227 -0.0731  0.1372  0.0906
22638W        W38712  13.847   6.899  13.889 -0.3990  0.1542 -0.0449
22639W        W38713   0.286   1.495  13.287 -0.0125  0.1947 -0.0067
22640W        W38714   3.045   5.593   3.215  0.0891 -0.0777  0.5052
22641W        W38715  11.489  16.461   0.889  0.0084 -0.0603  0.1233
22642W        W38716   4.813   1.725  15.992 -0.0195 -0.0318 -0.0323
22643W        W38717   3.145  16.253  15.814 -0.0259 -0.0843  0.1941
22644W        W38718   2.094  16.883   5.012  0.1370  0.0703  0.3380
22645W        W38719   7.921  14.698   1.048 -0.0517  0.3724  0.0408
22646W        W38720   8.433  14.132  14.120  0.2157 -0.1084  0.1759
22647W        W38721  12.244   1.525  16.333 -0.2098 -0.1863  0.2345
22648W        W38722   8.391  13.922   1.002 -0.0212  0.1783 -0.0146
22649W        W38723   8.373   0.390  15.066  0.2664  0.1665  0.0379
22650W        W38724   1.648   7.956   5.225 -0.2103  0.1749  0.1186
22651W        W38725  14.359  17.816  13.800  0.0587  0.0307 -0.0665
22652W        W38726  13.437  14.811   4.924  0.0529 -0.1024 -0.0845
22653W        W38727   8.612   8.294   2.051  0.2567  0.0715  0.2613
22654W        W38728   5.731  13.784   1.479 -0.0871 -0.0471  0.1163
22655W        W38729  12.033  16.384  11.337  0.0521  0.1554 -0.0245
22656W        W38730  10.813   0.452  14.218 -0.0076 -0.0560  0.2050
22657W        W38731   0.581   7.991  15.251  0.0983  0.2234 -0.0660
22658W        W38732  13.801   5.561   0.485 -0.0217 -0.0426 -0.2633
22659W        W38733   0.598  14.960   4.824 -0.3039 -0.1812  0.3492
22660W        W38734  16.706  17.800  11.105 -0.1269  0.0750  0.2172
22661W        W38735  13.222  14.130  13.863  0.2151  0.1059  0.1150
22662W        W38736  17.876   9.699  11.303 -0.3499 -0.2232  0.1946
22663W        W38737  14.921   7.050   5.548 -0.0723 -0.2462 -0.3236
22664W        W38738   8.436   0.158   2.348  0.1087  0.2550 -0.1075
22665W        W38739  10.344   1.939   3.528  0.0143 -0.0370  0.0612
22666W        W38740  10.551   7.635   2.758 -0.2049 -0.1700  0.1385
22667W        W38741  11.499  13.185  12.388 -0.1663  0.3659 -0.2097
22668W        W38742   5.935  12.927   3.834  0.2241  0.1752  0.2129
22669W        W38743  18.130  15.346   5.466 -0.1171 -0.1866  0.2837
22670W        W38744   3.571   4.166   3.662 -0.2279  0.3027 -0.1193
22671W        W38745  18.008   8.294  12.521  0.0768  0.2385 -0.2905
22672W        W38746   1.334   3.622   1.903  0.4583 -0.2033  0.0273
22673W        W38747  17.285   3.355  10.569 -0.1755 -0.1672  0.1229
22674W        W38748   7.523   3.207  11.557  0.1476 -0.0942 -0.2673
22675W        W38749   5.157  16.732   1.014  0.1397 -0.1698  0.0391
22676W        W38750   0.057  12.469  15.872  0.3312 -0.1126 -0.1848
22677W        W38751   0.365   2.841   4.531 -0.0805 -0.0575  0.2222
22678W        W38752   6.709  12.470  12.902 -0.3258 -0.4684  0.0989
22679W        W38753  13.679   9.945  12.802  0.1614 -0.1098  0.0147
22680W        W38754  13.232   7.101  12.626  0.1971  0.2198 -0.1133
22681W        W38755   3.431  12.118  14.061  0.1549 -0.0730  0.0653
22682W        W38756   7.593   4.860   1.859 -0.1080  0.1813  0.1277
22683W        W38757   7.058  17.310  15.022  0.0598  0.0101 -0.1173
22684W        W38758   1.182   1.582   5.534  0.0599 -0.1328 -0.0249
22685W        W38759   6.282  10.864  16.274 -0.3872 -0.2900  0.0806
22686W        W38760   5.332   4.297   0.773 -0.0065 -0.1188 -0.0176
22687W        W38761   6.228  14.287  12.297 -0.0844  0.0558  0.2377
22688W        W38762   7.805  14.607   4.148  0.2046  0.0770  0.2122
22689W        W38763  14.259   9.784  11.239 -0.1358  0.1818  0.0960
22690W        W38764   5.550  12.681  15.904  0.3715  0.0193 -0.2349
22691W        W38765   1.482   3.029   2.381  0.1468 -0.0702  0.0804
22692W        W38766   9.729   7.214  13.611 -0.2802  0.0357  0.0425
22693W        W38767   5.324  13.048   5.248 -0.1121  0.1421 -0.0074
22694W        W38768   5.605   7.972   3.726 -0.0835  0.0400 -0.0159
22695W        W38769   2.878   8.848   1.593 -0.1476  0.0031 -0.0045
22696W        W38770  15.877   8.064   6.287  0.0979 -0.0962 -0.1842
22697W        W38771  13.169   7.025   2.993 -0.2370  0.3425  0.0270
22698W        W38772   0.971   0.554  15.800  0.2553  0.0834 -0.2579
22699W        W38773   6.040  13.993   3.861 -0.0659  0.0091 -0.0467
22700W        W38774  12.044   7.292  12.453 -0.3349 -0.3249  0.0945
22701W        W38775  13.206  10.184  13.563  0.0474  0.0441  0.0623
22702W        W38776   2.904   8.871  11.840 -0.2453 -0.2168  0.0343
22703W        W38777  15.176  17.557   5.469 -0.1296 -0.2084  0.1077
22704W        W38778   7.921  10.234   4.028  0.0125 -0.0309  0.2100
22705W        W38779  13.211  13.484  13.750  0.4092  0.0440  0.1042
22706W        W38780   2.143   9.329  12.308 -0.3317  0.1890 -0.1339
22707W        W38781   7.615   7.127  12.944  0.0115 -0.1307  0.1397
22708W        W38782   1.765   2.428   3.178  0.1326  0.2425 -0.1982
22709W        W38783   5.449  13.633  11.403 -0.3267 -0.1761 -0.1509
22710W        W38784   7.602  17.388  15.803 -0.3328 -0.4092  0.2000
22711W        W38785   5.162   6.620   1.110 -0.0829 -0.3342 -0.0744
22712W        W38786  10.530   5.954   2.148 -0.1071 -0.0114 -0.1525
22713W        W38787   2.946  12.397   4.952  0.1643 -0.2610 -0.1358
22714W        W38788  16.441  12.728  12.711 -0.0985  0.1698 -0.1784
22715W        W38789   9.781  13.213   2.723  0.0427 -0.1227 -0.1558
22716W        W38790   2.316  16.144  15.016 -0.3452 -0.1392 -0.0769
22717W        W38791   2.340  13.425  10.671 -0.1291 -0.0030  0.2860
22718W        W38792  11.012   9.810   2.834  0.1677 -0.0745  0.1805
22719W        W38793   5.970   9.306  15.675  0.3453  0.0797 -0.2100
22720W        W38794   0.136  13.802   5.400  0.0617 -0.1373  0.3702
22721W        W38795  12.009   0.167   3.149  0.2053 -0.2889 -0.0149
22722W        W38796  13.338  16.713   0.119  0.1890 -0.0468  0.0399
22723W        W38797   3.629  12.038   5.408 -0.2722 -0.0331 -0.0294
22724W        W38798  16.809   2.498  16.070 -0.1885  0.1878  0.1597
22725W        W38799   0.231   9.637  10.462 -0.1983 -0.1076  0.0756
22726W        W38800   7.207   8.816   1.400  0.0911 -0.0502  0.1854
22727W        W38801   6.902   5.819   6.431 -0.1017  0.0344  0.0964
22728W        W38802  10.800   7.398   0.789 -0.0555 -0.1859  0.2923
22729W        W38803  12.452  15.335   5.276 -0.2593 -0.0250 -0.0560
22730W        W38804  15.161   0.122   1.084  0.0662  0.0859 -0.1821
22731W        W38805   8.493  13.969  11.933 -0.1017  0.0259  0.0906
22732W        W38806  10.493  14.506   5.795 -0.1849 -0.1758  0.3538
22733W        W38807   7.655   5.448   5.240  0.6618 -0.1650  0.1686
22734W        W38808   8.113  12.502   1.134 -0.2081 -0.0285  0.0302
22735W        W38809   0.740  11.541   3.963  0.3695 -0.1330 -0.0836
22736W        W38810   4.188  17.601   1.902  0.0476 -0.0558  0.0557
22737W        W38811   8.501  13.419  15.693  0.1918 -0.1023  0.1104
22738W        W38812   4.081  10.174  13.082 -0.0429 -0.2795 -0.2336
22739W        W38813  12.874   2.490  13.883 -0.0322 -0.2217 -0.4355
22740W        W38814  11.109  15.150  13.634 -0.0944 -0.2912 -0.2120
22741W        W38815   8.151  10.284   4.879 -0.1416  0.2003  0.1219
22742W        W38816  10.269   2.472   3.629 -0.0139  0.1359  0.1557
22743W        W38817   2.187   1.776   2.853 -0.0071 -0.0598  0.1949
22744W        W38818  16.235  13.019  15.994  0.0632 -0.1221 -0.0259
22745W        W38819  13.364   5.343   5.102 -0.0546  0.1404 -0.0275
22746W        W38820   7.501  11.084  12.682 -0.0062 -0.0866 -0.1058
22747W        W38821  10.876  14.183   1.315 -0.1149  0.0312 -0.1813
22748W        W38822   6.871  15.354  13.353  0.1356  0.1654  0.0567
22749W        W38823  12.738   0.852   2.313  0.0922  0.0592 -0.1005
22750W        W38824  14.109   4.122  14.143 -0.0277 -0.1475 -0.0303
22751W        W38825  12.867   5.310   2.986 -0.2645  0.0496  0.0397
22752W        W38826   5.074   5.841  11.080 -0.4165 -0.1839  0.1489
22753W        W38827   5.373  11.859   1.813 -0.0514 -0.1296  0.1182
22754W        W38828   6.260   1.995  16.083  0.1785  0.0583  0.1723
22755W        W38829  17.172  17.132   2.870 -0.4007 -0.1024  0.0883
22756W        W38830   9.570  11.927   0.940 -0.2130 -0.1167  0.1669
22757W        W38831   4.284  12.079   0.212  0.0169  0.0917  0.1778
22758W        W38832   3.551   5.808  13.308  0.1971 -0.1953 -0.1629
22759W        W38833  16.788  15.413   2.466 -0.0196 -0.2178  0.1911
22760W        W38834   5.841   9.689   5.090 -0.0868 -0.2898 -0.0845
22761W        W38835  15.230   3.875  13.975 -0.1128 -0.2475 -0.1988
22762W        W38836   5.202   1.648  12.854  0.1112  0.0052 -0.2113
22763W        W38837  10.173   6.325   1.924 -0.0517  0.1861 -0.0403
22764W        W38838  13.554  17.785  14.303  0.1452  0.0435  0.0644
22765W        W38839   5.890   6.310   2.562  0.0102  0.0333 -0.1119
22766W        W38840  14.621   5.942  13.769 -0.1767  0.1459 -0.0260
22767W        W38841  10.774   8.441   1.278 -0.0377  0.3754  0.2360
22768W        W38842  15.690  17.273  11.554  0.0009 -0.0272  0.4430
22769W        W38843   1.705   5.325   1.157 -0.1367  0.0601 -0.3819
22770W        W38844  14.786  17.990   4.254  0.0441  0.2260 -0.1210
22771W        W38845  12.447  13.001  13.605  0.0996  0.3971  0.3025
22772W        W38846   4.004   8.685   3.207  0.0513  0.0166  0.1393
22773W        W38847   5.263  12.614   1.066  0.1701  0.0246 -0.0781
22774W        W38848  14.669   3.241  14.542  0.2059  0.0945 -0.0760
22775W        W38849   0.699  16.727  14.027 -0.0951 -0.2172 -0.0050
22776W        W38850  14.059   9.608  14.346  0.0266 -0.2661  0.2080
22777W        W38851   9.993   7.361   6.052  0.0454 -0.3991 -0.0332
22778W        W38852   6.904  14.208   4.644  0.0635  0.0596 -0.0600
22779W        W38853   5.835  18.147  12.011 -0.1846  0.1383  0.0180
22780W        W38854   8.403  12.399  14.002 -0.0419 -0.0398  0.2601
22781W        W38855  15.449   7.792  15.459 -0.1651 -0.0585  0.1858
22782W        W38856  13.580   0.377   2.122  0.0958  0.0028  0.2310
22783W        W38857   3.662   1.794  12.004  0.1672  0.0245  0.0972
22784W        W38858   1.065  14.085  11.109  0.0677  0.1836 -0.1090
22785W        W38859  12.335  12.370   1.244 -0.0309 -0.0730 -0.3178
22786W        W38860  13.578  17.441  12.512 -0.1048 -0.4885 -0.2454
22787W        W38861  17.014   7.433  16.142  0.0048  0.1537  0.3260
22788W        W38862  13.703  12.199  14.805 -0.2376  0.1454 -0.0668
22789W        W38863   4.979   9.657   1.647 -0.2049  0.4152 -0.1393
22790W        W38864   1.074   5.727   0.480 -0.1810 -0.1362  0.0095
22791W        W38865   2.437   7.888  15.296  0.3132 -0.2788  0.1700
22792W        W38866  12.676  14.923   3.668 -0.0439 -0.1888 -0.1518
22793W        W38867   8.846  17.349   3.194 -0.1271 -0.1496 -0.0643
22794W        W38868  17.745   1.325   3.281  0.1313 -0.0215  0.0473
22795W        W38869  14.789   6.714   3.711 -0.0911 -0.2848 -0.2053
22796W        W38870  10.259  10.005  12.359  0.1190 -0.0494  0.1947
22797W        W38871   6.133   6.913   1.978 -0.1222 -0.1430 -0.0023
22798W        W38872   1.364   2.154   3.381  0.1850  0.4108  0.0132
22799W        W38873  16.830  10.288   1.718 -0.2445  0.0379  0.2743
22800W        W38874  15.178   9.346  14.134 -0.0483  0.1136 -0.2520
22801W        W38875  13.504   8.511   1.873  0.0065 -0.1281 -0.0392
22802W        W38876   2.733  10.440  15.224 -0.4377 -0.0531 -0.1633
22803W        W38877   6.091   0.951  15.167  0.1047 -0.0053 -0.4121
22804W        W38878  11.017  13.102   4.705  0.1880 -0.0416  0.0257
22805W        W38879  18.019  10.151   2.780 -0.2881 -0.2604  0.4732
22806W        W38880   1.735  13.944   3.845  0.3167  0.0383  0.1005
22807W        W38881  17.085  12.691  11.411  0.0574 -0.1517 -0.0643
22808W        W38882  13.645  15.373   0.499  0.1746 -0.2245 -0.2662
22809W        W38883   2.077  10.127  13.102 -0.4673 -0.0893 -0.0188
22810W        W38884  12.197  13.578   6.151  0.1319  0.0370  0.1255
22811W        W38885  13.075  10.871   3.555  0.1015 -0.2661 -0.2892
22812W        W38886  12.200  14.636  14.659  0.0470  0.1020 -0.3461
22813W        W38887   3.227  15.829  16.395 -0.0411  0.0342  0.1368
22814W        W38888  15.670   6.702  13.088  0.2490 -0.0109  0.1312
22815W        W38889   8.215   1.109   3.320  0.1214  0.6156  0.1192
22816W        W38890   9.518   0.774   2.608  0.0580 -0.1914  0.3049
22817W        W38891   5.941  14.905   3.227 -0.1817  0.0741 -0.1872
22818W        W38892  16.144   2.615  12.333  0.1319 -0.0054 -0.0265
22819W        W38893  13.090   3.976   3.025  0.1624 -0.0896 -0.0966
22820W        W38894   2.883   5.044   1.739 -0.1162  0.1874  0.0402
22821W        W38895  17.923   0.112   1.120  0.5185  0.1058  0.1620
22822W        W38896   3.089   6.533  12.908 -0.1706 -0.2228 -0.6578
22823W        W38897   3.116   5.727  11.300  0.2603 -0.2121 -0.2822
22824W        W38898  10.738   8.048   2.966  0.1381 -0.1852 -0.1079
22825W        W38899   2.348   3.437  13.720 -0.3778  0.2948 -0.3819
22826W        W38900  12.032  15.789   2.181  0.1777  0.0951 -0.0933
22827W        W38901   9.464  12.054   5.683 -0.0086 -0.1288 -0.1251
22828W        W38902  17.747   2.622   0.629  0.1645  0.0909 -0.1373
22829W        W38903  10.777   6.318  13.212  0.0283 -0.2614  0.0569
22830W        W38904  14.667  15.538  15.924  0.1672 -0.1000  0.1065
22831W        W38905   9.916  10.470   1.289 -0.4424  0.3833 -0.1854
22832W        W38906  17.078   0.026  12.901 -0.0111  0.0452  0.1147
22833W        W38907  14.780  11.106   0.067  0.1838  0.1050 -0.2282
22834W        W38908   9.959  12.076  16.093 -0.0800  0.0224 -0.1186
22835W        W38909   2.624   6.053  14.056  0.1532 -0.0934  0.0471
22836W        W38910   5.278  12.272  14.484 -0.2361  0.1126  0.3921
22837W        W38911   7.768   4.648  11.387  0.4221  0.0341 -0.0824
22838W        W38912  15.424  13.303   1.380 -0.0311  0.2405 -0.2639
22839W        W38913   9.479   2.391   4.083 -0.2008 -0.0977 -0.0540
22840W        W38914  16.364  14.425  16.314 -0.1833 -0.0992  0.1964
22841W        W38915   2.945  13.000   3.854  0.0721 -0.0182  0.0756
22842W        W38916   1.258   3.218  10.738 -0.0573 -0.0054 -0.1496
22843W        W38917   1.488   3.012  15.382 -0.0989 -0.4392  0.2915
22844W        W38918   3.240  17.446   1.797  0.1687  0.2231  0.1803
22845W        W38919   2.466  10.803   1.761 -0.0257 -0.0308  0.1478
22846W        W38920   1.476  14.796   3.278 -0.0970 -0.0960 -0.1198
22847W        W38921   5.625   9.395   2.024 -0.1526  0.0600 -0.2858
22848W        W38922  11.526  18.155   5.191 -0.0094  0.0826  0.1773
22849W        W38923  13.199   1.189  12.702 -0.1947  0.0568  0.0897
22850W        W38924  13.643   4.194   5.781 -0.0064  0.3969  0.0083
22851W        W38925   0.090   1.975  14.546  0.1350  0.0820  0.1716
22852W        W38926   9.349  13.516   1.228  0.1841 -0.1187  0.3639
22853W        W38927  15.222   2.082   4.706 -0.0391 -0.0399 -0.0042
22854W        W38928   1.716   1.886  13.620 -0.3331  0.0456 -0.0685
22855W        W38929  10.075   1.572  15.152  0.1873 -0.0372 -0.1028
22856W        W38930   6.576  15.523  11.927 -0.0601 -0.1762 -0.2295
22857W        W38931  13.321  10.150  12.581  0.2148  0.0010  0.1565
22858W        W38932  15.081   9.422  12.191 -0.1583  0.2243  0.0495
22859W        W38933  10.386   5.832   1.670 -0.1076 -0.0066 -0.1860
22860W        W38934  11.718   4.160   5.465 -0.1459 -0.3791  0.0515
22861W        W38935   5.077   8.694   2.530 -0.4600 -0.0606  0.0085
22862W        W38936   1.260  18.073  15.012 -0.2577 -0.0100  0.2968
22863W        W38937   3.037  12.641   4.234 -0.1412 -0.1020 -0.1510
22864W        W38938  12.610   7.486   5.539 -0.0397 -0.0247 -0.0151
22865W        W38939   2.903   5.738   3.995  0.3106 -0.0128 -0.0819
22866W        W38940  14.048   2.950   2.315  0.0114  0.0450 -0.0500
22867W        W38941  12.979  11.134  13.478 -0.0250 -0.2896  0.2775
22868W        W38942  13.306  14.864  16.314  0.1391 -0.1418 -0.2429
22869W        W38943  16.933  10.455  12.733 -0.5322  0.1370  0.1294
22870W        W38944  10.868  11.751   1.652  0.1239 -0.2324 -0.1311
22871W        W38945  13.888  12.062  15.302 -0.0150  0.1386  0.1526
22872W        W38946  13.070   8.995  16.466  0.0020  0.0966  0.2386
22873W        W38947   8.278  15.792  13.445  0.0370  0.1694 -0.1800
22874W        W38948   5.066  12.577   5.463  0.1505 -0.2118  0.2605
22875W        W38949  13.416   7.270  16.370  0.1424 -0.2869 -0.1967
22876W        W38950   5.163  13.319  15.296 -0.2000  0.3779  0.0699
22877W        W38951  13.334  15.345  15.999 -0.1848 -0.2543  0.2496
22878W        W38952  17.006  10.603   5.132 -0.2966 -0.0865 -0.0892
22879W        W38953  16.249  16.185  12.437 -0.5636 -0.1933  0.0036
22880W        W38954  13.520   4.594   1.501 -0.4631 -0.0655 -0.2780
22881W        W38955   2.620  10.589   0.244  0.1831  0.2467  0.6527
22882W        W38956   6.395  11.315   4.428 -0.0603  0.1994 -0.2176
22883W        W38957  13.612   1.384   2.533  0.0888 -0.1653  0.0550
22884W        W38958   7.065   6.028  13.011 -0.1569  0.1422 -0.1860
22885W        W38959  12.376  14.350  13.761 -0.1951  0.3480  0.3455
22886W        W38960   5.078  10.604   5.191 -0.0289 -0.0077 -0.1117
22887W        W38961   4.681  17.714  12.509 -0.0720  0.0117  0.5121
22888W        W38962  14.482  13.303   2.010 -0.3521  0.3208  0.1227
22889W        W38963  17.566   2.884   2.585 -0.2352 -0.0693  0.3301
22890W        W38964   3.011   1.512  13.089 -0.3904  0.0858  0.0726
22891W        W38965   5.390   1.406   3.404  0.2215  0.3277  0.1995
22892W        W38966   2.613  10.953  16.449  0.0208  0.1737  0.1917
22893W        W38967   9.393  14.612  14.931  0.1944  0.2880  0.0226
22894W        W38968  16.790  10.757  13.290  0.0633 -0.3234  0.1671
22895W        W38969   4.643   0.118  15.538 -0.1015  0.2182  0.2091
22896W        W38970  10.326   4.050  12.447 -0.1198  0.2073 -0.0457
22897W        W38971   5.318   2.089  11.888 -0.1476  0.1256 -0.1220
22898W        W38972   8.595   3.928  11.758 -0.2786 -0.0942  0.1869
22899W        W38973   9.075   9.540   5.765  0.2348 -0.0585 -0.0210
22900W        W38974   4.555  11.640   0.027 -0.3045 -0.0453 -0.2583
22901W        W38975   3.488   0.393  14.641 -0.1211  0.1007  0.0525
22902W        W38976  15.685   2.700  16.312 -0.0288  0.0757 -0.0875
22903W        W38977  10.397   2.003  12.902 -0.1675 -0.2585 -0.1084
22904W        W38978  13.225  15.940   4.146 -0.0788  0.0154  0.0588
22905W        W38979  14.531  14.331   1.208 -0.2463 -0.0815 -0.0309
22906W        W38980  15.558  10.179   0.947  0.0413 -0.3575 -0.0732
22907W        W38981  12.601   8.041   2.475 -0.6045 -0.0332 -0.1444
22908W        W38982   9.097  13.148  13.800 -0.0238  0.2396  0.0828
22909W        W38983  11.122  11.705  12.414 -0.0732  0.1564  0.0091
22910W        W38984  11.924  10.502   5.721  0.1646 -0.0626  0.1556
22911W        W38985   9.551   0.908   5.670  0.0997  0.2379 -0.1113
22912W        W38986   6.997  12.769   0.291  0.1553  0.1970 -0.0116
22913W        W38987  15.943  12.632   2.073  0.0785 -0.1831 -0.0516
22914W        W38988   2.341  15.312  14.866 -0.2841 -0.1091  0.4916
22915W        W38989   5.281  12.179   2.697 -0.1196  0.1276  0.1693
22916W        W38990   7.806   3.227   3.346  0.0414  0.1726 -0.0887
22917W        W38991   5.544  17.558   4.067  0.1080  0.1233  0.0664
22918W        W38992   6.509  12.422   3.190 -0.4622  0.0700 -0.3002
22919W        W38993   6.207   2.203   2.020 -0.1525  0.0851 -0.2849
22920W        W38994  14.838  14.953   4.669 -0.2813 -0.0422 -0.2814
22921W        W38995   7.717   5.391  16.083 -0.0209  0.0685  0.0269
22922W        W38996   8.118  10.991  16.306  0.3927  0.0931 -0.1785
22923W        W38997   2.423  16.788  14.113  0.3012 -0.2046  0.0510
22924W        W38998  15.444   0.867  11.317 -0.1268 -0.1801 -0.0194
22925W        W38999   1.251   2.073  15.655 -0.1224  0.0757 -0.0459
22926W        W39000   2.688  16.053  16.456  0.1521 -0.4575 -0.0007
22927W        W39001   5.777   3.468  16.212 -0.0168 -0.0766  0.1703
22928W        W39002  16.555  17.317  15.357 -0.2024 -0.0839  0.2283
22929W        W39003  10.206  13.179   6.220 -0.0728  0.1711  0.1843
22930W        W39004  11.505   1.647   4.293  0.1743  0.1717 -0.3235
22931W        W39005  14.496   5.418  14.505  0.3214 -0.0010  0.0954
22932W        W39006   8.952  11.427  12.701 -0.1569 -0.2430  0.0264
22933W        W39007   2.269  17.468   3.123  0.0451 -0.0631 -0.3855
22934W        W39008  13.819  17.913   4.058 -0.1608  0.0673  0.0924
22935W        W39009  13.352   3.358   2.344 -0.1331  0.2171  0.0974
22936W        W39010   5.428   9.512   4.303  0.3556  0.1306  0.1348
22937W        W39011   4.015  12.738  13.458  0.4120  0.0064  0.2199
22938W        W39012   7.283   8.001   3.765  0.0350  0.0048  0.1213
22939W        W39013   2.998   9.173  10.348 -0.2591  0.2962  0.0564
22940W        W39014  13.654   4.106   2.321  0.2147 -0.2950  0.2010
22941W        W39015  17.533   4.716   5.141 -0.1031  0.0020  0.1473
22942W        W39016   2.593  16.561   0.951  0.3658 -0.0749 -0.0950
22943W        W39017   0.571  11.359  16.003  0.1064 -0.2354  0.1274
22944W        W39018  13.023   8.456  16.517 -0.0321  0.2254 -0.0781
22945W        W39019   1.480   7.850   5.696 -0.2858 -0.1695  0.0635
22946W        W39020   4.649   0.642  15.819  0.4779  0.2173 -0.1183
22947W        W39021   0.687   3.728  12.303  0.0400  0.0329 -0.3037
22948W        W39022   4.401  12.028  16.249 -0.0495 -0.0459 -0.2202
22949W        W39023   9.284  10.124   4.116 -0.1794 -0.1387  0.1371
22950W        W39024   5.533  10.930   3.985  0.0381  0.2071 -0.1576
22951W        W39025  11.768   7.430  14.899  0.2859  0.0963 -0.0914
22952W        W39026   6.296  10.574  13.489  0.0150 -0.0512  0.1005
22953W        W39027   8.398   0.847   2.800 -0.0764  0.2351  0.1713
22954W        W39028   6.866  12.690  16.262 -0.0418  0.2002 -0.0522
22955W        W39029  11.132  12.882  13.456  0.2796 -0.0186  0.1561
22956W        W39030  17.704  10.618   0.855 -0.2167 -0.1259 -0.2322
22957W        W39031   4.417   6.362  14.168 -0.1106  0.1536 -0.1173
22958W        W39032   6.237   6.442   2.125  0.1348 -0.2538  0.0817
22959W        W39033  13.100  12.764   3.815 -0.1296 -0.0161  0.2440
22960W        W39034  14.354  15.241   5.344  0.2027 -0.1608  0.0474
22961W        W39035  17.188   6.977   2.306 -0.2143  0.0301 -0.0375
22962W        W39036   7.921  11.490  16.298  0.0260  0.0789 -0.3343
22963W        W39037  12.027   5.180  15.224  0.1031  0.0907 -0.1889
22964W        W39038   9.455   3.616   3.816  0.0265 -0.2366 -0.0714
22965W        W39039   6.901   5.006   1.217  0.2371 -0.1956 -0.0191
22966W        W39040  13.714  11.814   1.819  0.0343  0.1186 -0.1760
22967W        W39041   3.403   6.528   2.400 -0.0340 -0.2537  0.2844
22968W        W39042   7.408  15.022  12.918 -0.4526  0.1008  0.6568
22969W        W39043  15.938   8.504  12.694 -0.2209 -0.1161 -0.0809
22970W        W39044   4.445   7.122   1.458 -0.0415  0.4369 -0.0756
22971W        W39045  16.778  17.146   1.035 -0.0112 -0.1927 -0.0162
22972W        W39046  16.877  15.088  11.197 -0.0162 -0.2267 -0.3005
22973W        W39047   0.514  10.974  12.837  0.0456 -0.1359 -0.2211
22974W        W39048   0.804  17.712   1.926  0.0109  0.1236  0.1958
22975W        W39049   6.185  15.806  12.097 -0.2094  0.0344  0.1117
22976W        W39050  11.507   0.935  15.770  0.1159  0.2063 -0.0053
22977W        W39051   9.874  16.302   2.194  0.1735 -0.1556  0.4554
22978W        W39052   5.029   4.398   0.209  0.3609  0.1982 -0.1311
22979W        W39053  12.757  18.215  15.983  0.1138  0.0783 -0.1022
22980W        W39054  12.553   6.000   3.718  0.2272  0.3311 -0.1539
22981W        W39055  12.098  14.122   3.297 -0.1656 -0.2651  0.0627
22982W        W39056  11.457   2.341  15.169 -0.2968  0.1284 -0.1962
22983W        W39057   7.004   3.961  16.422  0.1791  0.1549 -0.2588
22984W        W39058  14.100  11.959  12.171 -0.3606 -0.0375  0.0669
22985W        W39059   0.131  15.346  12.049  0.2978  0.1649  0.1127
22986W        W39060  16.988   1.128  12.623  0.0594  0.0361  0.0275
22987W        W39061  13.018   0.422  11.158 -0.1902  0.0495  0.1782
22988W        W39062   9.438   2.591  13.868  0.0670 -0.1885 -0.3267
22989W        W39063  16.414   7.474   1.588 -0.1169 -0.1952  0.0769
22990W        W39064   8.086   4.567  13.301  0.0036 -0.0409 -0.2227
22991W        W39065  13.289   9.459   0.577  0.2614  0.0362  0.0067
22992W        W39066   6.113  14.409   2.973  0.2294  0.2183 -0.1013
22993W        W39067   5.081  14.721  13.773  0.1748  0.0020 -0.0216
22994W        W39068   8.071   1.517  15.374 -0.0023  0.1332  0.0558
22995W        W39069   2.866   9.786   3.873  0.1021 -0.0117 -0.0608
22996W        W39070  15.409   4.901  12.332  0.0555 -0.1799  0.2061
22997W        W39071   1.636  15.217   0.761 -0.0703 -0.0349  0.2446
22998W        W39072   2.087  10.781   0.189 -0.0639  0.0336  0.2786
22999W        W39073   3.809  17.197   4.374  0.1091 -0.1915  0.1058
23000W        W39074  14.077  10.143   4.246 -0.3938  0.1957  0.1788
23001W        W39075  16.945   1.499   3.359 -0.0958 -0.1047 -0.4321
23002W        W39076  13.955  11.771  12.968 -0.1666 -0.4769 -0.0056
23003W        W39077   4.099   7.918   0.559 -0.0688  0.2341  0.2239
23004W        W39078   7.142  15.830   0.826  0.2961 -0.0944  0.1404
23005W        W39079   1.066   3.035  16.266  0.0719  0.4036 -0.1095
23006W        W39080   6.085  14.453  14.680  0.2185 -0.0281 -0.1828
23007W        W39081  17.242   0.011  14.179  0.1821 -0.3159  0.0754
23008W        W39082   6.163   4.948  12.831  0.1041  0.1503 -0.0844
23009W        W39083  16.327   4.711   6.077  0.0133 -0.1349  0.3850
23010W        W39084  11.927   9.997   4.455 -0.1058  0.0364  0.0646
23011W        W39085  16.816   1.878   5.250  0.1657  0.0208 -0.0396
23012W        W39086   1.319   6.565   4.036  0.1497  0.1894  0.1671
23013W        W39087  11.881   1.960  14.267  0.0585 -0.1548  0.1932
23014W        W39088  10.368   8.672  15.502 -0.0992  0.0403 -0.3114
23015W        W39089   7.542   0.417   0.393 -0.0292 -0.4891 -0.1638
23016W        W39090  16.879  17.679   4.020  0.1381 -0.4747  0.0677
23017W        W39091   3.547  14.436   3.829  0.2488  0.0271 -0.0914
23018W        W39092   0.090   9.623   3.979  0.0731 -0.0138  0.0015
23019W        W39093  17.181   8.395  14.968 -0.1914  0.0222  0.1541
23020W        W39094   2.241   8.846  11.371  0.2498 -0.1202 -0.1286
23021W        W39095  16.513   1.426   3.145 -0.0155 -0.0086 -0.4930
23022W        W39096  15.097  12.627   0.664 -0.2786  0.0889  0.0360
23023W        W39097   9.095   3.792   4.122 -0.1998  0.1331  0.1984
23024W        W39098  10.320   9.930  13.698  0.0430  0.1351 -0.0834
23025W        W39099   6.072  11.563   0.925  0.2144  0.0956  0.1504
23026W        W39100   0.464   1.726   3.313  0.0922 -0.2308  0.2791
23027W        W39101   4.520   1.288  14.280  0.0554 -0.2404 -0.0691
23028W        W39102  17.951   9.036  16.173  0.0079 -0.0600  0.0475
23029W        W39103   2.799   6.693  15.096  0.2741 -0.0365  0.1290
23030W        W39104   7.738  15.461   3.810  0.5043  0.1871 -0.0018
23031W        W39105   0.831  12.159  14.750 -0.1323 -0.0598  0.0081
23032W        W39106  13.551   7.868  13.854  0.0464 -0.0702  0.0843
23033W        W39107  16.043  12.853  14.381  0.2589  0.4024 -0.3886
23034W        W39108   9.591  16.471   5.151  0.0038  0.0226  0.1445
23035W        W39109   9.886   7.264   3.320  0.0899 -0.1989 -0.1923
23036W        W39110  14.179  18.185  15.156 -0.1992 -0.0936  0.2012
23037W        W39111   1.554   8.213  15.216 -0.0969  0.0514 -0.2315
23038W        W39112  10.299  17.737  13.442  0.0398 -0.1261  0.3530
23039W        W39113   9.796   7.519   1.193  0.2674  0.1660  0.1343
23040W        W39114  12.474   9.184  15.922 -0.2054  0.1487  0.1661
23041W        W39115   8.275  16.618   3.152  0.1577 -0.0561  0.0439
23042W        W39116   0.888  11.056  13.806  0.0230  0.0049  0.0350
23043W        W39117   5.737  12.596  14.393  0.1014 -0.4955  0.0053
23044W        W39118  16.067  17.840  12.722 -0.1977 -0.0690 -0.0831
23045W        W39119   4.017   0.532   1.901  0.1572  0.0978 -0.2763
23046W        W39120   0.433  15.358  11.057 -0.0916  0.4187  0.0459
23047W        W39121   7.146   3.489  14.631  0.1614 -0.6072 -0.0488
23048W        W39122   5.910   3.282   0.151  0.0501 -0.3363  0.0315
23049W        W39123   8.260   7.644   5.387 -0.2213 -0.1053 -0.0682
23050W        W39124   6.383   2.361  13.551 -0.2646  0.0705 -0.1662
23051W        W39125   1.273  15.610   2.059  0.2040 -0.2218  0.1071
23052W        W39126   0.154   6.984  12.730 -0.1667 -0.1375  0.1118
23053W        W39127   6.132  10.670   5.569  0.0052  0.2033  0.1322
23054W        W39128   3.977   4.677   0.389  0.0295 -0.0353  0.2466
23055W        W39129  15.086  17.143   1.703 -0.1061  0.0524  0.1004
23056W        W39130  15.870   8.210   1.392  0.2480 -0.1752  0.3263
23057W        W39131   6.630  17.776  13.660 -0.3966  0.1761 -0.2397
23058W        W39132   0.765   1.080   0.223 -0.1610  0.1311  0.1096
23059W        W39133  10.543   2.834  11.883 -0.0475  0.3726  0.0216
23060W        W39134  11.553  15.299  14.509 -0.0060 -0.5771  0.3636
23061W        W39135   7.301  16.789  14.000  0.1542 -0.0747  0.3703
23062W        W39136  13.684  17.732   5.251 -0.0578 -0.1136  0.2643
23063W        W39137  14.159   2.419   2.064 -0.3977  0.2655 -0.2156
23064W        W39138  11.694  10.990   4.637  0.3416  0.1251 -0.2138
23065W        W39139  14.864   6.469  11.553  0.0267 -0.1264 -0.3094
23066W        W39140  14.067  17.651   3.567  0.1115 -0.0756 -0.0294
23067W        W39141  11.722   3.024   5.573 -0.0888  0.1025  0.0517
23068W        W39142  10.349   1.763  13.333  0.2262  0.1511  0.1360
23069W        W39143   9.438   1.473  11.998 -0.0590 -0.1763  0.0423
23070W        W39144  14.704  15.646   2.270 -0.0774  0.1634 -0.0285
23071W        W39145  13.497  11.359  16.545 -0.2931  0.0944  0.0144
23072W        W39146   8.025  17.446  13.540 -0.1294  0.1374  0.0175
23073W        W39147   8.395  13.681   2.241  0.0381 -0.3290  0.3998
23074W        W39148  17.613  12.513  15.901  0.1863 -0.3599 -0.3949
23075W        W39149   4.592  16.408  16.298 -0.1407 -0.0881  0.0502
23076W        W39150  17.467   0.735   0.639  0.1819  0.1376 -0.0996
23077W        W39151  15.812  15.633  16.513  0.0613  0.0016  0.0256
23078W        W39152  17.850   6.992   5.668 -0.2282 -0.1701  0.1091
23079W        W39153   1.999  18.124  13.592  0.0985 -0.2187 -0.2871
23080W        W39154   3.763  10.547   5.046  0.0905  0.0725 -0.3138
23081W        W39155   5.961  10.549   1.861  0.0168 -0.2670 -0.2445
23082W        W39156  11.715   4.287   1.196  0.2684  0.1004  0.0063
23083W        W39157  15.466   4.646  13.096  0.0080  0.4352  0.1230
23084W        W39158  16.525   8.028  14.984 -0.3379 -0.0615  0.0741
23085W        W39159  15.629   1.859   4.955 -0.3158 -0.2337  0.0709
23086W        W39160   3.848   9.376  12.861 -0.1965  0.2286 -0.0237
23087W        W39161   6.258  11.310   5.589 -0.0034  0.0592 -0.2571
23088W        W39162   5.643   5.009  12.956 -0.1868 -0.1808  0.3365
23089W        W39163   8.340  11.383  16.528  0.1124  0.1740  0.0362
23090W        W39164   3.991  16.156  11.339 -0.1876 -0.1724 -0.0736
23091W        W39165  17.193   7.720  12.653 -0.0764 -0.1371  0.0726
23092W        W39166   8.196  15.656  11.806 -0.3036  0.0503  0.1790
23093W        W39167   6.984   0.906  12.503 -0.2337 -0.2051  0.0695
23094W        W39168  17.511   2.104   2.915  0.0339 -0.0120 -0.3275
23095W        W39169   5.929  13.582  12.801 -0.2003 -0.0333  0.0466
23096W        W39170   7.338  11.922   1.251 -0.2345  0.1717  0.2505
23097W        W39171   5.926  15.553   0.754  0.0183  0.0221  0.1407
23098W        W39172  17.247  17.874  11.124 -0.1683 -0.3507 -0.1816
23099W        W39173   8.122  16.832  15.687  0.0933  0.0624 -0.3222
23100W        W39174  12.667   8.928  12.759 -0.2747  0.2697 -0.1736
23101W        W39175   0.685  16.975  10.958 -0.0243  0.2387 -0.4929
23102W        W39176  16.009   5.771  14.580  0.0164  0.1911  0.3107
23103W        W39177  10.656  16.447   4.207  0.1009 -0.4141  0.0229
23104W        W39178   4.021  13.502   0.803  0.4264 -0.0844  0.2772
23105W        W39179  14.246   8.920   3.660  0.1701 -0.2199  0.0678
23106W        W39180   9.694   2.057   4.942  0.0524 -0.1968 -0.0501
23107W        W39181  12.489   7.295  14.366 -0.0791  0.0797  0.0897
23108W        W39182  17.101   0.640   4.846  0.1099 -0.2631  0.1669
23109W        W39183   9.107   6.688  13.935  0.0446 -0.1595 -0.1705
23110W        W39184  12.892   3.039   2.457 -0.1977  0.2809 -0.1506
23111W        W39185  10.465   7.716  14.832  0.0266  0.1583 -0.0705
23112W        W39186  13.873  13.377   0.148  0.1650  0.4219 -0.0073
23113W        W39187  10.206   2.354   5.255  0.1021  0.0564  0.0013
23114W        W39188  14.526   1.828  14.603  0.0028  0.2144  0.1263
23115W        W39189   0.030  17.815  15.905 -0.1296 -0.1226 -0.2040
23116W        W39190  14.732  11.495   4.751  0.0268 -0.1832 -0.0387
23117W        W39191  16.764   2.470   3.956 -0.0025 -0.0536  0.0983
23118W        W39192  13.067   2.640  12.874 -0.0612  0.0967 -0.2190
23119W        W39193   6.535   7.303   2.009  0.2250  0.1570 -0.0916
23120W        W39194   9.288   5.202  15.357 -0.2337  0.0275  0.1462
23121W        W39195   5.794   5.840   2.766  0.0256  0.1069 -0.0878
23122W        W39196   3.431  17.644  15.551 -0.1354  0.1248  0.2069
23123W        W39197  14.439   2.902   1.988  0.3018  0.0195 -0.1098
23124W        W39198   5.614   3.025  13.904 -0.0935 -0.1735 -0.1892
23125W        W39199   2.742  15.548   5.085 -0.3046  0.0934 -0.2255
23126W        W39200   1.231  14.444   3.522 -0.1435 -0.1830  0.1219
23127W        W39201   6.069  12.131  11.441  0.1204  0.2061  0.0332
23128W        W39202   5.150  14.394   0.251 -0.1069 -0.2108  0.0603
23129W        W39203  17.239  16.520  15.030  0.0525  0.2442  0.1875
23130W        W39204   7.100   7.581   2.596  0.0465 -0.1221 -0.1077
23131W        W39205   4.939   9.967  13.666  0.0022 -0.0226  0.0075
23132W        W39206  10.484   9.376  12.088  0.0880  0.2417 -0.0501
23133W        W39207   7.660  10.132   6.179  0.0309  0.1982 -0.0810
23134W        W39208   2.803   6.511   5.424 -0.0097  0.0933 -0.0907
23135W        W39209   1.234   9.690   4.577  0.1989  0.0010 -0.0552
23136W        W39210  10.974  16.408   2.717 -0.0749 -0.4286 -0.0448
23137W        W39211  11.542   2.627  12.439 -0.0817 -0.1804  0.0664
23138W        W39212   3.073   4.233   0.294 -0.2915  0.1053  0.0538
23139W        W39213   3.358   7.804   5.387 -0.2049  0.3970  0.0658
23140W        W39214  17.598  11.639  10.845 -0.0206 -0.0079  0.1110
23141W        W39215  13.625  10.087   4.122 -0.0490  0.2236  0.0611
23142W        W39216   2.247   2.510   5.008 -0.0848  0.0712 -0.3549
23143W        W39217  16.646  14.396  14.492 -0.0626 -0.0633  0.0144
23144W        W39218   7.608  15.751   6.150  0.2090 -0.0294  0.0395
23145W        W39219   0.277   3.071   1.450  0.0637 -0.0092  0.1089
23146W        W39220  15.060   8.353   3.549 -0.1078 -0.1830 -0.4266
23147W        W39221  14.493   4.045  11.250 -0.1294 -0.1114  0.1861
23148W        W39222   8.838   7.781   2.724  0.0293 -0.2832  0.0062
23149W        W39223  16.013   6.122   5.463  0.2885 -0.0262 -0.0136
23150W        W39224  15.908  12.296   2.431  0.0417 -0.1682  0.1981
23151W        W39225   2.749   3.436  14.581 -0.0888  0.3862  0.1365
23152W        W39226   5.741   9.453   4.619 -0.3477  0.3054  0.1780
23153W        W39227   6.754  10.131   1.414  0.1153 -0.0615 -0.2033
23154W        W39228   4.873  10.484  13.904  0.2856 -0.2762  0.2263
23155W        W39229   1.626   8.002  13.386  0.0132  0.0742  0.0681
23156W        W39230  13.342   6.894   5.588  0.3858 -0.0637 -0.1377
23157W        W39231   6.751   7.289   3.655  0.1685  0.1445  0.2104
23158W        W39232   3.413   4.310  15.917 -0.3642 -0.2563  0.3711
23159W        W39233  12.897   9.855   0.485 -0.1339  0.0606 -0.1236
23160W        W39234  13.761   8.193   4.210 -0.2614  0.2428 -0.0838
23161W        W39235  18.068   6.675   1.379 -0.3544  0.3275  0.0770
23162W        W39236   1.861  13.155  14.067  0.0578  0.1285  0.0329
23163W        W39237   8.575  12.744   0.246 -0.0788  0.0692 -0.2264
23164W        W39238  12.463   6.869   2.917 -0.0603 -0.1226 -0.0350
23165W        W39239   9.036  12.659   0.942 -0.0217 -0.2001  0.1146
23166W        W39240  14.023  13.155   4.301 -0.0675 -0.2735 -0.0657
23167W        W39241  15.623  13.220   4.705 -0.0343 -0.0931 -0.1626
23168W        W39242  12.986   1.453  12.281  0.0891  0.1633  0.0170
23169W        W39243   3.542  14.684   5.444 -0.0090 -0.0253  0.0989
23170W        W39244   7.324   3.641   1.371  0.1348 -0.0496  0.0657
23171W        W39245   6.502   2.336  16.307 -0.2430  0.1614 -0.2377
23172W        W39246  13.937  15.168  15.801  0.0583 -0.1281  0.0231
23173W        W39247   6.747  15.224  16.385 -0.1430  0.2866 -0.0943
23174W        W39248   3.799  15.087  11.283  0.1308  0.1243  0.0782
23175W        W39249  17.705   3.077   3.052  0.1369 -0.1994  0.0480
23176W        W39250   9.170   0.693   3.653  0.1952  0.1956  0.1656
23177W        W39251  14.915  14.293   3.203  0.0902  0.0981  0.0238
23178W        W39252  10.647   0.978   1.866  0.0486 -0.3431  0.3392
23179W        W39253  15.489  16.100  15.268 -0.1509 -0.0194 -0.1135
23180W        W39254  13.313   4.305  11.502 -0.0988  0.0303  0.2795
23181W        W39255   9.811   4.520  11.893 -0.1089  0.0657 -0.2447
23182W        W39256  10.336  14.337   3.553  0.0682  0.2412  0.1051
23183W        W39257   5.787   6.844   2.369  0.1150 -0.1894 -0.0890
23184W        W39258   8.598   6.729   0.675 -0.0436  0.2348  0.0894
23185W        W39259   9.760  16.790   3.553 -0.2289  0.2979  0.0050
23186W        W39260   5.785   2.740   0.259  0.3650  0.1799 -0.1001
23187W        W39261  10.376  10.663   5.495  0.0626  0.0560  0.1484
23188W        W39262   1.903  14.558  14.904 -0.0515  0.0322  0.2251
23189W        W39263   1.725   5.733  13.272 -0.2327  0.1580  0.0388
23190W        W39264   7.024   2.187   3.681  0.0521  0.2871  0.1359
23191W        W39265  14.400   0.762  16.380  0.2437  0.1652  0.0444
23192W        W39266   3.893  17.438   5.373 -0.0720  0.0268  0.0761
23193W        W39267   8.148  10.259  15.744 -0.1057  0.1229 -0.0288
23194W        W39268   0.859   0.146  12.999  0.0915 -0.0200 -0.0361
23195W        W39269  11.462   7.007  12.749  0.0418  0.0784  0.1238
23196W        W39270   6.658   2.953  16.450  0.0220 -0.0708  0.0062
23197W        W39271   0.457  16.064   0.546  0.0338  0.1310 -0.0728
23198W        W39272  16.579   3.569  15.574 -0.1633  0.1844  0.1035
23199W        W39273  11.824   0.518  14.252  0.2131 -0.2519 -0.0627
23200W        W39274   9.332   1.367   3.731  0.1859  0.1788  0.1823
23201W        W39275  10.973  10.173   4.611  0.3290 -0.1127 -0.0658
23202W        W39276   1.169  17.177   1.546  0.0154 -0.2129  0.1094
23203W        W39277  12.500   4.302   0.542  0.2540  0.2826  0.0839
23204W        W39278   5.102   2.916  13.875 -0.2895 -0.4025  0.0297
23205W        W39279   3.802   2.108   0.405 -0.2546  0.0349 -0.0867
23206W        W39280   7.882   3.368  14.118  0.0195  0.0316  0.0794
23207W        W39281   5.339  14.780  16.503  0.1076 -0.0646  0.0583
23208W        W39282   6.264   6.587   4.381 -0.2936 -0.0060  0.0897
23209W        W39283   7.868   0.202  13.429  0.2962  0.0559 -0.1342
23210W        W39284  11.996  10.396  14.699 -0.1355  0.1311  0.0878
23211W        W39285  17.063  10.526   2.691  0.1839 -0.0007 -0.3344
23212W        W39286   6.273   4.496  13.042  0.4236 -0.2318 -0.2237
23213W        W39287  10.178   8.343   4.715 -0.2872  0.1464  0.2327
23214W        W39288   6.042   1.895   2.369  0.2253  0.0085  0.3319
23215W        W39289   6.371   8.668   1.019  0.2172 -0.0337  0.0561
23216W        W39290  15.888   9.716  12.535 -0.0198  0.0173  0.3982
23217W        W39291  12.360   0.533   2.807  0.0576 -0.0280  0.1822
23218W        W39292  12.979   7.527   4.232  0.0536  0.2974  0.0529
23219W        W39293   3.082  13.085   2.129 -0.1834  0.1067 -0.0866
23220W        W39294  14.121  15.027  11.868 -0.1128 -0.0993  0.1512
23221W        W39295  13.728  11.593  15.163  0.4575  0.1773  0.2096
23222W        W39296  15.945  15.145   2.639  0.2362 -0.2643  0.0473
23223W        W39297  12.193  15.034   4.234  0.1122  0.1092  0.0493
23224W        W39298  16.297   3.105  15.537 -0.0804 -0.0417 -0.3931
23225W        W39299   6.138   5.904  14.749 -0.0951  0.0476  0.1283
23226W        W39300   4.284  14.270   0.022  0.1318 -0.0330  0.0178
23227W        W39301   8.655   0.365  13.132  0.3539  0.1296 -0.0497
23228W        W39302   7.207   3.802   1.913 -0.2174  0.1059 -0.1409
23229W        W39303  14.583  18.060  14.826 -0.3798  0.1606  0.0527
23230W        W39304  16.773   7.235   0.404  0.0487 -0.1077 -0.2233
23231W        W39305  15.324  11.364   3.909  0.0857 -0.0834  0.0109
23232W        W39306  10.750   6.881   3.166  0.0440 -0.1314  0.1846
23233W        W39307   9.726  10.591   0.455  0.4396  0.1925  0.0710
23234W        W39308  13.461   3.807   4.005  0.1979 -0.2602 -0.1950
23235W        W39309   3.990   8.006   1.628 -0.0994  0.0664  0.0271
23236W        W39310  10.559   6.887   3.871 -0.2141  0.0655  0.2144
23237W        W39311  14.176  16.764  13.529 -0.2960 -0.1548 -0.0157
23238W        W39312   4.032  10.729  12.985  0.0141 -0.3711 -0.0456
23239W        W39313   7.909  17.231  15.453  0.0986 -0.0789 -0.1187
23240W        W39314   0.733  12.399   0.372  0.4413 -0.3701 -0.0250
23241W        W39315  16.624  12.112  12.097  0.1023 -0.2085 -0.0550
23242W        W39316  13.235  12.655   5.548 -0.1769 -0.0828  0.2441
23243W        W39317   1.643   9.262   2.037 -0.1192  0.0102  0.5446
23244W        W39318  11.882  15.932   1.166  0.0490  0.0422 -0.2414
23245W        W39319   8.286   3.039   0.080 -0.1820  0.1092  0.2834
23246W        W39320   3.399  14.542   1.498  0.0476 -0.1388 -0.0834
23247W        W39321  17.423   0.904   1.186 -0.0596  0.0729 -0.1828
23248W        W39322   8.588  14.709   2.145  0.1690  0.1103  0.1548
23249W        W39323   5.827  12.361   5.646 -0.2237  0.2973 -0.0389
23250W        W39324  16.499  15.214  13.131 -0.1304  0.2009  0.0761
23251W        W39325  12.014  13.496   3.699  0.0198  0.1813 -0.5823
23252W        W39326  10.704   6.168   5.176  0.1041 -0.1365  0.2223
23253W        W39327  14.805  17.275   4.572 -0.1707  0.2633 -0.2629
23254W        W39328  12.812   6.855  13.951 -0.0907 -0.3447  0.2507
23255W        W39329   6.386  17.286  13.915  0.4519  0.1692  0.0614
23256W        W39330  11.716   1.776  13.045 -0.1435 -0.1085  0.3436
23257W        W39331   2.240   1.408   3.759 -0.0526 -0.0808  0.1428
23258W        W39332  15.051   4.759   2.655 -0.0604 -0.0524  0.2965
23259W        W39333  12.815   4.128  15.463 -0.0673 -0.1264 -0.1043
23260W        W39334  13.572   1.329   3.865  0.2262 -0.1247 -0.0321
23261W        W39335   5.177  11.024   6.189 -0.1742  0.2380 -0.0833
23262W        W39336   7.166   8.803  11.623  0.0176  0.0616  0.1247
23263W        W39337  10.417   4.472   6.177 -0.2093  0.2899 -0.2584
23264W        W39338   5.735   7.341  14.901 -0.2119 -0.0258 -0.0309
23265W        W39339  15.992   7.847   3.716  0.2722 -0.1104 -0.0577
23266W        W39340  16.739  16.338   3.901 -0.1110 -0.1831 -0.0333
23267W        W39341  10.605   9.239   3.720 -0.2097 -0.0209 -0.1394
23268W        W39342  12.846   9.409   2.222  0.1272  0.2713  0.0337
23269W        W39343   5.401  16.306  14.592 -0.2602 -0.3589 -0.1195
23270W        W39344   7.327  17.010   0.234 -0.0196  0.2789  0.1378
23271W        W39345  13.717  17.477  12.034 -0.2427  0.0713  0.1722
23272W        W39346   6.022  13.714  14.029 -0.0529 -0.1470 -0.1018
23273W        W39347  18.209   1.190  12.342 -0.3876 -0.0361  0.1695
23274W        W39348   2.520   5.870  12.524  0.1694 -0.0648  0.4037
23275W        W39349   5.404   4.243   1.689  0.2466  0.0804 -0.4601
23276W        W39350   9.695   8.762  16.481 -0.2241  0.1360  0.1050
23277W        W39351   7.572  13.920   1.582  0.1957 -0.1794 -0.0423
23278W        W39352   2.279   7.810   2.180  0.0187 -0.0105 -0.1151
23279W        W39353   0.404   0.931  12.554  0.1812  0.1131  0.1424
23280W        W39354   5.189   0.959   2.961 -0.1522 -0.0261  0.1453
23281W        W39355   7.235  13.180   0.507 -0.4194  0.1655 -0.2166
23282W        W39356  15.770   1.353   0.053  0.4510  0.2042 -0.0229
23283W        W39357  10.014   6.172   4.418  0.0865  0.0275  0.1055
23284W        W39358   8.585   5.477  15.708 -0.0625 -0.2017 -0.1060
23285W        W39359  15.001  12.289   1.564 -0.0028 -0.2883  0.1118
23286W        W39360   4.548   9.838  11.636 -0.0357  0.0417  0.2298
23287W        W39361  16.651  11.978  16.130 -0.1321  0.3454  0.2898
23288W        W39362  17.073  14.846  15.781  0.1289 -0.0114 -0.1115
23289W        W39363  13.087   8.799   1.940 -0.1002 -0.4110 -0.0351
23290W        W39364   4.486   2.347  12.874 -0.5180  0.0468 -0.3266
23291W        W39365   4.966   4.945  15.636  0.0608  0.1802  0.3788
23292W        W39366  10.124   9.828   4.344 -0.0716  0.2014 -0.0235
23293W        W39367   9.526   6.809   4.841  0.0970  0.1870 -0.1208
23294W        W39368   1.859   2.782   3.593 -0.1654  0.4841 -0.1041
23295W        W39369   9.342  14.163   5.844  0.4074  0.2126  0.2279
23296W        W39370   1.361  16.002  13.364 -0.0787  0.2366  0.2421
23297W        W39371   2.648  11.484   4.193 -0.1680  0.5261  0.1557
23298W        W39372   0.383  16.236   4.715 -0.1462 -0.1170 -0.3955
23299W        W39373   7.549   2.255   5.604  0.2038  0.0998  0.0424
23300W        W39374  15.931  17.392  14.436 -0.2511  0.0055 -0.1127
23301W        W39375   6.202  10.003  12.121  0.4024  0.0328  0.2545
23302W        W39376   3.308  16.382   4.715  0.1275 -0.1087 -0.0652
23303W        W39377   0.930  10.151   3.783 -0.0774 -0.0723 -0.1104
23304W        W39378  13.744   0.790   3.666 -0.0383  0.0900 -0.0339
23305W        W39379  15.393   6.787   0.553 -0.3431 -0.1788  0.0344
23306W        W39380  15.039   7.102   0.478 -0.2229  0.1614 -0.2984
23307W        W39381   7.869   6.007  16.074 -0.1461  0.2497  0.3134
23308W        W39382  10.557   1.093   4.591  0.0223 -0.1986  0.3660
23309W        W39383  10.628   4.054   1.598 -0.0926 -0.0434 -0.2642
23310W        W39384  10.189   5.147   3.673  0.1375  0.2311 -0.1395
23311W        W39385   1.265   7.218  15.372 -0.1492  0.1833  0.1151
23312W        W39386   8.766   9.450   5.374 -0.2467  0.2456  0.1470
23313W        W39387   9.407   0.388  16.302  0.2965 -0.0473  0.1644
23314W        W39388   5.275   5.835   1.316 -0.1919  0.0119 -0.1164
23315W        W39389   5.118  16.780  13.655 -0.0373 -0.1406  0.0989
23316W        W39390   3.420  13.819   3.069  0.1674  0.1395  0.0156
23317W        W39391   3.018  15.368   0.444  0.2467  0.0577  0.1510
23318W        W39392   9.408   9.919  12.728 -0.0272  0.3111  0.0889
23319W        W39393  14.593   7.321  11.518 -0.2014  0.1268 -0.1618
23320W        W39394   2.092  14.314   0.119 -0.0104 -0.2200 -0.2858
23321W        W39395  15.980  10.406  16.264 -0.1915 -0.2828  0.1066
23322W        W39396  17.900   0.365  12.942  0.4300 -0.1956  0.0193
23323W        W39397   6.032   1.702  12.900  0.0362  0.3206  0.0125
23324W        W39398   7.396  16.223   3.761 -0.0850 -0.2358  0.2368
23325W        W39399   2.666   8.426   3.059  0.2214  0.0840 -0.0239
23326W        W39400   7.734  17.547  12.457  0.2873  0.2019  0.2585
23327W        W39401  10.677   2.392  13.047  0.3359 -0.1327  0.1630
23328W        W39402   1.792  11.574   0.935  0.1566  0.1437 -0.1534
23329W        W39403   8.256  15.707  13.924 -0.1896 -0.3165 -0.3088
23330W        W39404  10.170  15.659   4.845  0.0755 -0.1787 -0.1942
23331W        W39405  11.154   2.008   5.262 -0.0229 -0.1016 -0.0321
23332W        W39406  18.041   2.330  10.817  0.0191 -0.0248 -0.3245
23333W        W39407  10.659   9.619  16.475 -0.0793  0.0350  0.3338
23334W        W39408   5.105  12.844  11.855 -0.2583 -0.1897 -0.2003
23335W        W39409  10.656   2.055   5.288 -0.1263 -0.0568 -0.3895
23336W        W39410   4.537  14.426  10.893 -0.2047 -0.5765 -0.1272
23337W        W39411  16.084   1.745  16.427  0.2698 -0.0972 -0.0944
23338W        W39412   3.940   9.321   4.587  0.0529 -0.1484  0.0761
23339W        W39413  12.294   1.872  15.536 -0.1289 -0.3078  0.1564
23340W        W39414   9.044  16.801   2.287  0.1444 -0.1366 -0.0010
23341W        W39415   5.572   1.345  16.336  0.1048 -0.1868  0.2303
23342W        W39416   9.993   1.667  12.777 -0.1750 -0.0501 -0.1807
23343W        W39417   8.248  10.856   4.707 -0.0991  0.1972 -0.1272
23344W        W39418   6.472  13.964   2.704 -0.0613  0.1503  0.5169
23345W        W39419  17.380  11.761  11.667  0.2117  0.4049 -0.1180
23346W        W39420  15.926   3.412   3.290 -0.1102 -0.2642 -0.1533
23347W        W39421  10.812   0.189   5.695 -0.1733  0.0222  0.0994
23348W        W39422   0.797  11.852   3.504  0.1232  0.2260  0.0978
23349W        W39423  11.188   3.420  11.859  0.2454  0.3400  0.0701
23350W        W39424   8.222   4.557   2.606 -0.0383  0.0505 -0.1266
23351W        W39425  10.388  10.792  12.040  0.3670 -0.1118  0.0557
23352W        W39426   5.183   7.994  12.045  0.3388 -0.2827 -0.3071
23353W        W39427   5.605   4.962   4.372  0.5459 -0.0217 -0.2465
23354W        W39428   8.047  14.107   0.091  0.1319  0.0226 -0.0589
23355W        W39429  14.872  18.093   0.714 -0.3395  0.2764  0.0856
23356W        W39430   3.095   1.883  11.892  0.3366  0.1714  0.1890
23357W        W39431  15.776  16.424   1.779 -0.1545 -0.0398 -0.1330
23358W        W39432   9.002  14.846   3.253 -0.1724  0.2136  0.0709
23359W        W39433   7.677   8.749   5.886 -0.1054 -0.0980 -0.3364
23360W        W39434   4.731  11.031   2.385  0.2386  0.0040 -0.1734
23361W        W39435   7.846  12.547  14.796 -0.1073  0.3479 -0.1702
23362W        W39436  11.329  16.496   4.346 -0.2524 -0.0139 -0.2696
23363W        W39437  14.157   7.734   0.874 -0.0350 -0.1985 -0.3612
23364W        W39438   9.842   8.637  13.688  0.0631 -0.2213  0.1105
23365W        W39439   5.678  14.150   6.009 -0.0052  0.3501  0.2009
23366W        W39440   1.520   6.509  16.347 -0.1835  0.1199 -0.0885
23367W        W39441   1.996  17.112   0.606  0.0007 -0.0022 -0.1983
23368W        W39442   3.702   5.187  15.795  0.1840 -0.0412 -0.2050
23369W        W39443   0.335  14.012   4.492  0.2745  0.0259  0.0795
23370W        W39444   1.348  13.731   1.160 -0.2487 -0.1491 -0.1558
23371W        W39445  10.163   8.586   2.795  0.1071  0.2537 -0.0938
23372W        W39446  15.316  15.716   3.698 -0.1764  0.1229  0.1528
23373W        W39447  18.050   2.685   2.535  0.1959  0.0012  0.0982
23374W        W39448  15.513   9.931  11.693  0.2485 -0.1714  0.0362
23375W        W39449  16.725  11.754  11.335  0.1542  0.0606 -0.2125
23376W        W39450  11.343  14.210  13.752  0.1130  0.2781 -0.2703
23377W        W39451   8.842   9.961   5.487 -0.1265  0.3110 -0.2174
23378W        W39452  12.478  11.451  11.830  0.0443  0.1833  0.0696
23379W        W39453   9.416  11.141  13.520 -0.1881 -0.2276 -0.2905
23380W        W39454  10.415   3.533   4.737  0.1383  0.1270 -0.0652
23381W        W39455  14.366  12.307   5.255  0.1921 -0.1151  0.1610
23382W        W39456   8.504  16.874   4.336 -0.0125 -0.2080  0.0671
23383W        W39457  15.611  16.752  11.323  0.0991  0.0524 -0.2839
23384W        W39458   2.606  11.186   5.415 -0.2096  0.0719 -0.1092
23385W        W39459  12.249   4.649   5.671 -0.1889  0.0572  0.2736
23386W        W39460  10.551   3.721  12.116 -0.1044 -0.5026  0.1490
23387W        W39461   7.018   4.793  12.176 -0.2982 -0.1901  0.2275
23388W        W39462   4.111  10.621  13.558  0.1107  0.2350 -0.3945
23389W        W39463   8.129  16.741   2.563  0.0921 -0.2241  0.1831
23390W        W39464   7.587  10.788  12.065  0.0779  0.0734  0.0593
23391W        W39465   3.101  18.104  15.723 -0.2044  0.1665 -0.1611
23392W        W39466   9.654   9.172  13.794  0.0337 -0.0961 -0.0273
23393W        W39467   4.721  13.649  12.520 -0.2553  0.1066 -0.0485
23394W        W39468   8.318   2.288  12.432  0.4054 -0.1776 -0.0465
23395W        W39469   5.532   6.170   5.188 -0.2316 -0.1486 -0.0464
23396W        W39470  11.971  15.041  11.892  0.3078 -0.1154  0.0387
23397W        W39471   4.748   5.302   0.908 -0.0744 -0.0124 -0.4312
23398W        W39472   3.146  17.892   0.476 -0.1335 -0.2133  0.0236
23399W        W39473  17.790   7.783  15.117  0.0110 -0.1390 -0.2121
23400W        W39474  11.532   3.061  12.081  0.1971 -0.0489 -0.0108
23401W        W39475   9.248  18.006   1.744  0.1090 -0.1458 -0.2426
23402W        W39476   5.880   7.567  13.514  0.1535  0.0471 -0.1285
23403W        W39477  18.139   0.385  15.583  0.0283 -0.2061  0.8182
23404W        W39478   5.649  10.354   0.892  0.0872 -0.2541  0.2512
23405W        W39479  15.721  16.351   2.544  0.2393  0.1473 -0.0286
23406W        W39480   2.147  13.380  14.400 -0.1709  0.2262 -0.0126
23407W        W39481  11.199  14.272  15.669 -0.2327 -0.2634 -0.2367
23408W        W39482   5.764  12.205  14.685  0.0008 -0.5176  0.0503
23409W        W39483  13.951   2.220   4.057 -0.2111  0.1675 -0.0243
23410W        W39484   4.807  10.969  14.185 -0.0700  0.0676  0.3734
23411W        W39485  12.227   0.957  13.429  0.0203  0.0096 -0.0638
23412W        W39486   1.689   3.981  11.944 -0.0547 -0.1934  0.0218
23413W        W39487   5.910   8.227   4.134 -0.0914 -0.1834  0.0322
23414W        W39488   7.630  13.909   0.321 -0.0902 -0.1405  0.3001
23415W        W39489   2.684   5.406   1.141 -0.0493 -0.2543 -0.2605
23416W        W39490   0.172   1.577  10.449  0.1817  0.0628 -0.3077
23417W        W39491   6.787   2.204  14.657  0.0557 -0.2944 -0.0619
23418W        W39492  12.780   5.487   0.298  0.1866  0.1600 -0.0679
23419W        W39493   0.809   8.982   4.938 -0.1380 -0.0395 -0.0521
23420W        W39494  17.794   9.334   5.415 -0.0499  0.0233  0.0278
23421W        W39495  12.050  16.796   4.931  0.1554  0.3456  0.0811
23422W        W39496   6.189   7.482  15.016  0.2816 -0.0914  0.1075
23423W        W39497   9.842   8.604  15.474  0.2639 -0.3617 -0.1530
23424W        W39498   3.727   0.190  14.151 -0.0941  0.0861  0.1713
23425W        W39499  16.779   5.941   3.670 -0.3287 -0.0474  0.1602
23426W        W39500  16.423  13.472  11.637 -0.0984 -0.3068  0.1240
23427W        W39501   7.862  11.493   2.170 -0.0687  0.0788  0.1940
23428W        W39502  17.929   3.521  11.213 -0.0750  0.1583 -0.2909
23429W        W39503   6.686   1.263   4.063  0.0581  0.1457  0.1285
23430W        W39504  16.921  11.787   0.783  0.1415 -0.1136 -0.0466
23431W        W39505   7.168   0.307  13.325 -0.1908  0.2481 -0.0115
23432W        W39506  18.144  16.684   4.218  0.0240  0.2361  0.3029
23433W        W39507  10.977   5.461   5.391  0.0931 -0.1620 -0.0415
23434W        W39508   9.686   6.142   4.019  0.2469 -0.0488  0.1160
23435W        W39509   3.329  13.238  14.211 -0.1534 -0.0604  0.1041
23436W        W39510   5.863   2.808  12.448  0.2342 -0.0621 -0.1883
23437W        W39511  11.513  11.821   4.172  0.0334 -0.2864 -0.2462
23438W        W39512  15.335  12.025   1.822  0.0668 -0.0418 -0.0434
23439W        W39513  10.249  11.855   4.482 -0.1444  0.1596 -0.3893
23440W        W39514   2.623  15.639  15.118 -0.0152 -0.0907  0.1911
23441W        W39515   5.688   1.948  12.177 -0.1753  0.0422 -0.1685
23442W        W39516   0.395  14.804   2.994  0.0335  0.0047 -0.1991
23443W        W39517  15.543   2.805  13.125  0.0797  0.2072  0.0943
23444W        W39518   0.732   3.638  12.779  0.2349 -0.0135 -0.2089
23445W        W39519   2.934  13.589  12.944  0.2210 -0.0280 -0.2828
23446W        W39520  15.342   2.667   2.207  0.0255 -0.0396 -0.1363
23447W        W39521   0.048   7.788   0.749  0.1890 -0.0177  0.0200
23448W        W39522  16.174   8.045  12.490 -0.1810 -0.2644 -0.2818
23449W        W39523  11.735  15.744   5.797  0.0748  0.1404  0.3707
23450W        W39524  10.255  17.128   3.378  0.4608  0.2387 -0.1479
23451W        W39525  10.269   9.942  16.485  0.0040  0.1505  0.1282
23452W        W39526   3.085  13.958  15.934  0.2376  0.1673  0.0280
23453W        W39527  17.364   5.038  11.334 -0.2062  0.1578 -0.1899
23454W        W39528  17.420  14.047  15.290  0.3099 -0.0214  0.0088
23455W        W39529   8.050   7.280   0.320  0.1896  0.2388 -0.0738
23456W        W39530   2.304   9.619   5.525  0.0156  0.1992 -0.3054
23457W        W39531   4.732  13.231   6.202 -0.0565  0.1418 -0.1843
23458W        W39532  14.542  13.925   3.340 -0.2099  0.0543 -0.2003
23459W        W39533  15.008  13.055  14.842  0.1098 -0.1105  0.0673
23460W        W39534  15.514   8.685  16.330 -0.2805 -0.0106 -0.1408
23461W        W39535   1.635   2.391   6.016  0.1758  0.4006  0.1207
23462W        W39536  11.182   2.910   4.253 -0.0146 -0.1544  0.1241
23463W        W39537  10.221  12.561   3.117 -0.3053  0.0477  0.0410
23464W        W39538  10.567   4.348   1.187  0.0203  0.1740 -0.1121
23465W        W39539   0.024   3.637  13.343 -0.1124  0.2006  0.2462
23466W        W39540   8.994  14.116  13.720 -0.2815  0.2719 -0.2496
23467W        W39541   8.726   3.113  15.711  0.0823 -0.0548  0.0656
23468W        W39542   7.463   4.253  11.443  0.3997 -0.2044 -0.2607
23469W        W39543   7.772  14.947   5.927 -0.1226  0.5067  0.2613
23470W        W39544   3.035   7.334  11.314 -0.0295 -0.1475  0.0947
23471W        W39545   4.338  18.023  15.680  0.3223 -0.2306 -0.0415
23472W        W39546  11.903   4.652   5.250 -0.0463  0.0834 -0.1292
23473W        W39547   0.366   2.282  14.068 -0.0615  0.1794  0.2289
23474W        W39548   8.647   7.976  11.583 -0.1265  0.1659 -0.2044
23475W        W39549  11.683   9.233  15.682 -0.1935  0.2707 -0.3998
23476W        W39550  14.455   2.186   4.888 -0.0913 -0.0619  0.2976
23477W        W39551  17.409   8.653   5.836  0.0731  0.2872  0.1556
23478W        W39552   4.925   1.105  11.799 -0.1360  0.2378  0.2747
23479W        W39553   6.140   1.233  16.282  0.3837 -0.0297 -0.2378
23480W        W39554   3.479   6.878   2.763 -0.2107 -0.0688  0.3944
23481W        W39555   7.196  11.671   4.538  0.0044  0.0043 -0.2271
23482W        W39556  14.896  15.779   1.301  0.0713  0.0793  0.3915
23483W        W39557   6.883   3.135   4.113 -0.2971 -0.0430  0.1826
23484W        W39558   0.594   6.118   2.603  0.4776  0.1333  0.1893
23485W        W39559   1.981  16.023   4.650 -0.2264  0.1447 -0.0963
23486W        W39560  11.692  12.813  15.102  0.0420  0.1449  0.0516
23487W        W39561  15.679   6.705  15.078  0.0341  0.2014 -0.1044
23488W        W39562  15.206  17.758   1.882  0.0897  0.1179 -0.1457
23489W        W39563  14.751  17.403  14.562 -0.0081 -0.2220 -0.1507
23490W        W39564  17.206   8.112   2.931  0.2081  0.0199  0.1645
23491W        W39565   5.655   7.171   0.398 -0.1830  0.1160  0.1702
23492W        W39566   1.667   1.202  11.971  0.2431  0.2351 -0.0137
23493W        W39567   4.056   7.511   1.231 -0.1166  0.0445 -0.1358
23494W        W39568   8.539  13.585  15.131  0.2169  0.1721  0.1860
23495W        W39569   6.915  15.025  14.320 -0.0522  0.0594 -0.1143
23496W        W39570  13.365  15.631  13.122  0.2205 -0.0009 -0.1448
23497W        W39571  15.639  14.360  12.325 -0.0139  0.0585 -0.1360
23498W        W39572   3.534   0.300   2.027 -0.1409 -0.0705  0.1314
23499W        W39573  16.422   8.635   4.684 -0.0837 -0.1516 -0.0233
23500W        W39574   9.002   3.395   5.985 -0.1681 -0.2469 -0.0980
23501W        W39575   0.246  11.894  15.895 -0.0735 -0.0100 -0.1080
23502W        W39576   1.048  17.602  15.084  0.0575 -0.1997 -0.0858
23503W        W39577  15.691  13.538  11.931 -0.3665 -0.0729  0.1286
23504W        W39578  10.513  16.773   1.321  0.0676 -0.1838  0.1041
23505W        W39579   2.874  13.233  13.221 -0.1542 -0.0441  0.0457
23506W        W39580  16.098   1.927   3.993 -0.0902  0.2547  0.0167
23507W        W39581   2.017   1.944  13.125  0.0385 -0.1455 -0.0987
23508W        W39582   3.312   9.876   3.522 -0.1738  0.1253 -0.1012
23509W        W39583  17.405   9.285  12.306  0.3477  0.2042  0.1432
23510W        W39584  10.099  16.035   2.614 -0.2922 -0.3907 -0.1841
23511W        W39585  11.848   9.114  15.234  0.3947 -0.1296  0.2746
23512W        W39586   8.676   0.042  14.748  0.0264 -0.1604 -0.0263
23513W        W39587   3.888  11.953   2.891 -0.0608 -0.1070  0.0411
23514W        W39588   7.160   7.767  12.346  0.0768  0.0248 -0.1323
23515W        W39589   1.873  17.261   2.892  0.1424  0.3166  0.1502
23516W        W39590   4.787   8.081  12.870 -0.3936  0.1410  0.0083
23517W        W39591  15.134   1.341   1.699  0.2346 -0.1724 -0.0795
23518W        W39592   4.040  14.133   1.965  0.1790 -0.0845 -0.0681
23519W        W39593   7.043   3.423   0.042 -0.0957 -0.1586 -0.0622
23520W        W39594  11.151   9.648   0.736 -0.1782  0.2191  0.0829
23521W        W39595   5.973   1.460  14.368  0.3923 -0.0899 -0.2805
23522W        W39596  17.660   7.922  12.712  0.4393  0.2993 -0.3251
23523W        W39597  11.272  10.829   1.040 -0.1534 -0.1632  0.2274
23524W        W39598   3.385   8.410   1.887  0.0496  0.2529 -0.0085
23525W        W39599  12.190   3.871   4.027  0.1914 -0.0476  0.0709
23526W        W39600  10.562   6.431   3.050  0.0908 -0.0250 -0.2370
23527W        W39601   5.567   7.976   0.037  0.2104 -0.1066 -0.1309
23528W        W39602  13.663  15.012   4.021  0.0348  0.0091  0.0085
23529W        W39603   1.014   1.262  13.102  0.0387 -0.0679 -0.0216
23530W        W39604  17.394   1.484  12.947  0.2501  0.1882 -0.0758
23531W        W39605   3.898   2.195  12.311  0.0349  0.0505  0.1891
23532W        W39606  17.199  17.013   3.437  0.1688 -0.1407  0.6793
23533W        W39607  14.196   8.384   3.355 -0.1406  0.5089  0.1555
23534W        W39608  10.086  13.473  15.928  0.1604 -0.0876 -0.2940
23535W        W39609  10.156   7.871  14.423 -0.0926 -0.2491  0.2227
23536W        W39610   1.601   9.497  11.557 -0.0164 -0.1897 -0.1882
23537W        W39611  17.934   1.766   0.868 -0.0927  0.1481  0.2890
23538W        W39612  14.167   1.346   5.959 -0.4469 -0.0214 -0.0110
23539W        W39613   9.994  11.436   5.210  0.1629 -0.1958 -0.1628
23540W        W39614   7.600  14.726   2.036 -0.2835 -0.1908 -0.0771
23541W        W39615   6.136   5.745  15.877 -0.0799 -0.3355 -0.0814
23542W        W39616  17.540   6.066   0.212 -0.1181 -0.1325  0.0402
23543W        W39617   7.270   1.291  14.426 -0.3974 -0.1316 -0.1366
23544W        W39618   6.021  11.337  16.189 -0.0168 -0.0901 -0.0354
23545W        W39619  12.875  10.425  15.183  0.0123 -0.0900 -0.0319
23546W        W39620   5.164  16.569  14.108  0.2882  0.2550  0.1328
23547W        W39621   7.047   6.712  12.490  0.1191  0.0547  0.2094
23548W        W39622   4.515   8.379  14.843 -0.2228  0.3256  0.0502
23549W        W39623   3.527   7.314  12.609  0.1003 -0.0555 -0.2385
23550W        W39624   6.749  10.702   2.284  0.0830 -0.3524 -0.0667
23551W        W39625   7.637  10.658   3.820  0.0008 -0.2225 -0.2245
23552W        W39626   0.414   7.784   3.243 -0.1781 -0.0484  0.1155
23553W        W39627  15.693   6.376   0.662  0.0205 -0.1455  0.2482
23554W        W39628   3.341  10.390   5.272  0.0879  0.1047  0.0281
23555W        W39629   7.988   4.099   5.911 -0.0918 -0.0233  0.2002
23556W        W39630  12.062   2.346  14.630  0.1763 -0.1207  0.3025
23557W        W39631   0.020   7.181   0.903 -0.0010 -0.1052 -0.1181
23558W        W39632   0.693   8.949  12.462 -0.0290 -0.1121 -0.0162
23559W        W39633   2.684   8.066  11.551  0.1900  0.1893 -0.1610
23560W        W39634   5.700  10.880   5.776 -0.4145 -0.3771  0.2489
23561W        W39635  18.153   4.266  15.394 -0.2195 -0.2976  0.1948
23562W        W39636  16.668  12.457   2.369 -0.0036 -0.4379  0.2089
23563W        W39637   4.737  10.447   1.249 -0.1606 -0.0503  0.1008
23564W        W39638   4.888  16.520   4.406  0.5111  0.0421  0.1329
23565W        W39639   2.899  11.725  14.768  0.2062 -0.0669 -0.0257
23566W        W39640  14.648   7.276  15.122 -0.0800 -0.0549 -0.0407
23567W        W39641  14.634  11.075   1.943 -0.0312 -0.0555  0.0247
23568W        W39642  16.147  17.532   5.852  0.1160 -0.3370  0.0287
23569W        W39643   1.204  16.926   0.840 -0.0233  0.2282  0.3813
23570W        W39644  13.845   2.012  12.730 -0.2075  0.3078  0.2076
23571W        W39645   0.695   7.533   3.585 -0.0541  0.0445 -0.0453
23572W        W39646  14.286   9.034  12.675 -0.4316 -0.3050  0.2045
23573W        W39647   8.394  13.123  14.966 -0.0749  0.0047 -0.0188
23574W        W39648  14.380   5.420  15.102 -0.3094  0.2395 -0.1523
23575W        W39649  14.677  17.494   5.626 -0.2866 -0.1525 -0.4330
23576W        W39650   2.377  11.853   3.827 -0.0638 -0.0579 -0.3442
23577W        W39651   8.447   7.936  16.226  0.1535 -0.1789 -0.0432
23578W        W39652   7.728   8.595   1.283 -0.0471  0.1386 -0.2762
23579W        W39653   5.825   1.077   5.382  0.1035 -0.1799 -0.2181
23580W        W39654  16.623  18.146   1.204 -0.0187  0.0495 -0.5123
23581W        W39655   7.985   4.004   0.056  0.0501  0.0572  0.1691
23582W        W39656  14.916  10.757  14.510  0.0824  0.0864  0.0614
23583W        W39657  15.443   5.666   5.115 -0.4099 -0.1055 -0.2477
23584W        W39658   3.167   2.766  16.468 -0.1214 -0.3899  0.0679
23585W        W39659   9.824   8.910   2.897  0.0188 -0.2205 -0.0997
23586W        W39660   0.605   4.033   9.662  0.0212  0.2850  0.0357
23587W        W39661   3.650  13.456   5.536  0.1694 -0.0020 -0.1418
23588W        W39662  16.231   8.167  15.852  0.1060 -0.2009 -0.1349
23589W        W39663  11.864   0.339   0.889 -0.0309 -0.1248  0.1449
23590W        W39664  15.059  11.481  15.281  0.0600  0.1637 -0.2495
23591W        W39665   6.453   4.847   3.787  0.0692  0.0585 -0.0120
23592W        W39666  12.340   5.634  12.764 -0.0892 -0.5849  0.0207
23593W        W39667   9.087   2.907   3.081 -0.1799  0.1307  0.1676
23594W        W39668  10.635   5.113   2.308 -0.4379 -0.2045 -0.0993
23595W        W39669   8.480  14.901  14.774  0.0184  0.1145  0.1072
23596W        W39670  15.430  11.982   5.268 -0.1825 -0.2364  0.0405
23597W        W39671  11.635   7.456   5.728  0.0593 -0.1187 -0.0024
23598W        W39672  10.002  18.024  15.957  0.0690 -0.2380  0.0392
23599W        W39673   0.341   9.873  16.225 -0.2038 -0.0191  0.0495
23600W        W39674   7.037   4.257   4.151  0.0268 -0.2363  0.1215
23601W        W39675   2.390   6.786   0.260 -0.2270  0.1044  0.1977
23602W        W39676   3.580   4.889  14.335 -0.2696 -0.0350 -0.0098
23603W        W39677  13.046  14.615   3.368  0.5818  0.0256 -0.1550
23604W        W39678  10.624   4.270  12.059  0.3966 -0.1223  0.2007
23605W        W39679   2.323  13.087  16.418  0.2165 -0.0293  0.0152
23606W        W39680   3.501   7.022   1.079 -0.1576  0.1094 -0.0273
23607W        W39681  13.261  11.744   3.822 -0.1946 -0.4095 -0.1636
23608W        W39682   1.342  14.050   0.014 -0.0564  0.4004  0.1764
23609W        W39683   5.232   1.228  13.143  0.0626  0.2525 -0.0321
23610W        W39684   6.130  17.624   0.352 -0.0067  0.1397  0.0457
23611W        W39685  15.348   6.319   0.234 -0.0433 -0.1778 -0.5203
23612W        W39686   1.615   8.790   6.129 -0.3872 -0.2519 -0.0858
23613W        W39687   2.276  14.494   4.513 -0.0439 -0.0232  0.1467
23614W        W39688   4.276   6.533  15.459 -0.2491 -0.2351 -0.1462
23615W        W39689   3.069  11.384   2.628 -0.1399  0.1513 -0.2243
23616W        W39690  15.016   9.605   2.232 -0.1255 -0.1200 -0.2867
23617W        W39691   3.741   0.342   0.528  0.0801  0.2880 -0.0881
23618W        W39692   1.436  14.573   2.679  0.2616  0.2344 -0.1650
23619W        W39693   9.653  16.825   2.188  0.1589  0.0264 -0.0696
23620W        W39694   1.936   3.219  12.390 -0.1852  0.0998  0.0758
23621W        W39695  11.423   3.471  12.862  0.2660 -0.2285  0.0500
23622W        W39696   4.547   9.990   4.772  0.0704 -0.2649 -0.0885
23623W        W39697   2.875  17.018   2.796 -0.2875  0.2064 -0.1689
23624W        W39698  17.935  10.559   4.714 -0.2436 -0.2642  0.0502
23625W        W39699  17.208   1.203   0.758 -0.5344 -0.2849 -0.0086
23626W        W39700   1.588  18.047  11.065 -0.0360  0.2145  0.0221
23627W        W39701   3.756  16.677   0.725 -0.1068  0.2882 -0.1888
23628W        W39702   8.488   2.685  13.647  0.3432  0.1084 -0.1781
23629W        W39703   8.935   4.278   0.092  0.1458 -0.1908 -0.1451
23630W        W39704  15.696  15.932  13.738 -0.0075  0.2486 -0.2102
23631W        W39705  17.384  12.706   0.942  0.2084  0.1352  0.3109
23632W        W39706  13.719  11.731  11.902  0.1172 -0.0386  0.5116
23633W        W39707   3.570   6.225  16.229  0.3455  0.3753 -0.3733
23634W        W39708   3.729   4.919   1.426  0.0312  0.0239 -0.2676
23635W        W39709   3.865   3.713   5.810 -0.0972  0.2161 -0.1134
23636W        W39710  17.440  13.535   4.919 -0.4312 -0.0716 -0.2042
23637W        W39711   8.795  14.354  14.859  0.1208 -0.2695 -0.0309
23638W        W39712   2.916  11.367  16.312 -0.1007 -0.1917  0.1110
23639W        W39713   0.854   4.411   2.641  0.0590  0.1830  0.2536
23640W        W39714  12.429   4.548   3.290  0.3184 -0.4294 -0.0859
23641W        W39715  10.191   5.208   2.450 -0.2841 -0.1525  0.2808
23642W        W39716   2.495   2.107  14.779  0.0706  0.1870  0.0193
23643W        W39717  15.228  14.661   5.685 -0.4064  0.3281  0.2265
23644W        W39718   6.567   4.094  11.796  0.0850  0.3958 -0.0073
23645W        W39719   1.742   4.203  12.950  0.1764 -0.0776  0.0102
23646W        W39720   4.297   5.530   5.487 -0.0031 -0.0622  0.0808
23647W        W39721   7.213  11.527   0.363  0.1197  0.0518 -0.2277
23648W        W39722  11.799  10.836  15.013 -0.2322 -0.0604 -0.0581
23649W        W39723   0.960  17.302  13.739  0.0095 -0.2764 -0.0094
23650W        W39724   5.413   6.441   4.739  0.2045 -0.0400 -0.0912
23651W        W39725  16.636   6.511   3.756 -0.1636  0.0587  0.2309
23652W        W39726   6.742   0.529  11.861  0.0640 -0.1238 -0.0655
23653W        W39727   6.105  12.287   1.437 -0.0728 -0.2460 -0.0669
23654W        W39728  15.864  15.966   0.997 -0.2115 -0.2067 -0.0405
23655W        W39729  14.282  11.473  14.464 -0.0655 -0.2390 -0.2729
23656W        W39730   8.124   4.947  14.042  0.0812 -0.0532 -0.0591
23657W        W39731  14.884   6.793  12.325  0.4118 -0.0831 -0.0449
23658W        W39732  16.993   3.694   3.528 -0.2436  0.1001  0.2381
23659W        W39733   3.377  18.121   4.846  0.0879 -0.0372 -0.0182
23660W        W39734   4.701   6.657  15.701 -0.1484  0.1740 -0.1188
23661W        W39735  10.022   8.398  11.885 -0.2083 -0.0070  0.1158
23662W        W39736   8.100   6.843   1.788 -0.0466 -0.0271  0.1673
23663W        W39737   9.748   0.613   4.242 -0.0624  0.0442 -0.0546
23664W        W39738  12.553  16.259   0.117 -0.3706 -0.2141 -0.0545
23665W        W39739   7.626   6.265   3.197  0.0659  0.0345  0.1781
23666W        W39740  11.818  12.604   4.264 -0.3868 -0.1332  0.0130
23667W        W39741  15.196   9.217  13.672 -0.1966 -0.0851  0.0182
23668W        W39742  10.809   0.688   2.762  0.2279  0.1939 -0.1466
23669W        W39743  15.283   4.313  11.320  0.1088  0.0837 -0.0516
23670W        W39744  17.320   8.467   1.953  0.0382  0.0399 -0.0206
23671W        W39745  13.969  18.059   1.680  0.2081 -0.0518  0.0669
23672W        W39746   8.983  13.721  12.980 -0.0426  0.0725  0.1744
23673W        W39747  13.440   5.430  11.876 -0.1415  0.0400  0.0999
23674W        W39748  10.523  17.665  14.301 -0.2061 -0.2267 -0.5127
23675W        W39749   0.691   5.850   0.147 -0.0229  0.0003  0.0451
23676W        W39750  10.007  15.002  11.735  0.1316 -0.2547  0.2610
23677W        W39751  14.486  16.263  16.111  0.0056 -0.0208 -0.0547
23678W        W39752   7.351   0.282  14.429 -0.0144 -0.2696  0.1162
23679W        W39753   1.083  10.073  11.439 -0.1507 -0.0031 -0.1899
23680W        W39754  11.679  17.186   1.679  0.0431 -0.2548  0.0452
23681W        W39755   4.122  13.852  11.412  0.2628  0.0047 -0.0615
23682W        W39756  16.730   7.173  15.828 -0.2505  0.1430  0.3490
23683W        W39757   8.849  11.555   5.246 -0.4083 -0.1576  0.1553
23684W        W39758  17.893   4.442   5.394  0.1142 -0.2230  0.1654
23685W        W39759   2.170   3.012  11.994  0.1576  0.2344 -0.0409
23686W        W39760   1.890   7.727   0.548  0.1102  0.0644  0.6036
23687W        W39761   2.638  17.210  11.066 -0.0154 -0.0096  0.2185
23688W        W39762   0.893  14.521   5.412  0.1688 -0.0508  0.1850
23689W        W39763  12.745   9.185   2.918 -0.4135  0.2211 -0.1435
23690W        W39764   1.149   2.501   5.150 -0.0534  0.1574 -0.0072
23691W        W39765   0.198  15.968   4.106  0.2043  0.1315  0.0932
23692W        W39766  10.212   7.542   3.679  0.1427 -0.1132  0.1524
23693W        W39767   9.599   4.557  16.033  0.0374  0.1040 -0.0015
23694W        W39768   0.335  10.702  14.070 -0.2973  0.0137 -0.0781
23695W        W39769   1.257  14.150  11.531 -0.0354  0.1275  0.0079
23696W        W39770   3.482   7.761  11.364 -0.0509 -0.3545 -0.0902
23697W        W39771  12.092   3.245   3.078  0.2792 -0.2343 -0.0891
23698W        W39772   9.837   3.239   3.517  0.0930  0.2108  0.1078
23699W        W39773  11.127   8.219   0.216  0.0515  0.2105  0.0092
23700W        W39774   9.254   5.202  14.847  0.0628 -0.2738 -0.0144
23701W        W39775   1.188  12.258   4.260 -0.3617 -0.2871 -0.0239
23702W        W39776  13.428   1.667   4.214 -0.0444 -0.1459  0.0372
23703W        W39777   1.390   5.587   4.380  0.0750  0.1280  0.0024
23704W        W39778   5.074   6.991   6.121  0.1830 -0.0533  0.0642
23705W        W39779  13.434   4.377   4.120  0.1901 -0.2107  0.0915
23706W        W39780   5.287   9.108   0.612  0.4073  0.5880 -0.1362
23707W        W39781  14.688  14.023  15.017 -0.2704  0.0820  0.3985
23708W        W39782   6.414   5.359   4.272  0.2659  0.0295 -0.0497
23709W        W39783   0.524  13.050  11.251  0.2280 -0.3610 -0.1419
23710W        W39784  12.039   0.816   0.008  0.2729 -0.0684  0.2088
23711W        W39785  17.269   2.377   3.979  0.0790 -0.1456  0.1236
23712W        W39786  11.788   8.970   1.263  0.2209 -0.2038 -0.2331
23713W        W39787  15.588   5.902  15.378  0.1634  0.1068  0.0463
23714W        W39788   7.230   6.785   0.996 -0.1752 -0.0491  0.3199
23715W        W39789  12.671   5.117  11.690 -0.1499 -0.0162 -0.0707
23716W        W39790  12.452  17.839  12.894 -0.3164  0.0625  0.0396
23717W        W39791   2.204  14.702  15.583 -0.0900  0.3425  0.2065
23718W        W39792  17.276   0.319  15.080 -0.1189  0.0457 -0.2663
23719W        W39793  10.889   3.323   4.521 -0.2664  0.0898  0.1251
23720W        W39794   0.660  11.698  14.696  0.1245  0.0976 -0.0986
23721W        W39795   6.398   6.339  15.464 -0.1190  0.0933  0.2466
23722W        W39796  14.638  15.106   0.572 -0.3090  0.0973  0.1779
23723W        W39797   2.531   7.540  11.630  0.3358  0.0941 -0.3670
23724W        W39798  17.397   1.501  13.934 -0.2705 -0.0950  0.0506
23725W        W39799   3.705  17.197  15.483  0.2536 -0.0178 -0.2568
23726W        W39800   0.591   3.428  11.397  0.0209  0.0265 -0.0970
23727W        W39801   2.685   8.327  12.733 -0.0277 -0.1953 -0.2952
23728W        W39802   5.582   7.980  11.631 -0.1062 -0.2081  0.0177
23729W        W39803   1.943   2.666  12.231 -0.2363 -0.1182  0.0995
23730W        W39804   0.258   1.001   5.382  0.3149 -0.1454 -0.0600
23731W        W39805   2.774   2.002   4.071  0.1061 -0.1859  0.0904
23732W        W39806   0.934   0.925   3.993 -0.1768 -0.2942  0.2973
23733W        W39807   4.251   6.962  12.127  0.3127  0.4583  0.1770
23734W        W39808  11.103  16.853   4.100  0.2961 -0.1038  0.0352
23735W        W39809   2.069  12.765  14.251  0.0918 -0.0994  0.1055
23736W        W39810  13.649  10.548  13.594 -0.3355 -0.0067 -0.0698
23737W        W39811   1.524  10.713   2.658 -0.3314 -0.2530 -0.0480
23738W        W39812   7.859   0.769  11.617  0.1419  0.0100 -0.0092
23739W        W39813  10.175  11.184  12.521 -0.0518 -0.0632 -0.0597
23740W        W39814   7.404  14.284   5.378  0.1995  0.0161 -0.0524
23741W        W39815  14.116  11.709   0.584  0.4066 -0.5117 -0.2212
23742W        W39816   9.867  12.495  13.757  0.0462  0.3592 -0.4297
23743W        W39817   8.063   3.102  12.128 -0.2120  0.3567 -0.0932
23744W        W39818  15.648   1.437   5.321 -0.3672  0.0984  0.1599
23745W        W39819  14.283   6.004  15.135  0.0864  0.1345  0.0243
23746W        W39820  10.598   8.461  14.956  0.2714 -0.0331  0.2656
23747W        W39821  10.712  17.636  16.469 -0.3342  0.3187  0.3281
23748W        W39822  17.290   1.327   1.515  0.4238 -0.3084  0.3197
23749W        W39823  17.120  14.430  15.225  0.0033 -0.0717 -0.1365
23750W        W39824   0.619  14.850  11.122  0.2462 -0.1809 -0.1895
23751W        W39825  17.964  10.232   5.232 -0.3136  0.1515 -0.1999
23752W        W39826  14.777  11.628  13.005  0.2589  0.0529  0.3377
23753W        W39827  17.791  17.986   1.819  0.2428  0.0848 -0.1412
23754W        W39828   9.958  14.862  13.606  0.0420  0.0278 -0.1774
23755W        W39829   4.723   8.303   2.667  0.0964  0.0221  0.0491
23756W        W39830   2.874   1.210  12.644  0.0991 -0.0270 -0.1293
23757W        W39831   7.474  18.083  15.467  0.2379 -0.0339 -0.0797
23758W        W39832   9.774  10.670   3.997 -0.1189 -0.0991  0.1206
23759W        W39833   5.038  14.405  11.578  0.0681 -0.1255  0.0364
23760W        W39834   4.393  18.192   0.467  0.1948  0.0279 -0.1164
23761W        W39835  10.321  14.586   0.202  0.0668 -0.1288  0.1065
23762W        W39836  18.117   5.483   2.436 -0.1206 -0.3763  0.0720
23763W        W39837   2.562   1.551  12.377  0.0603 -0.0645 -0.0055
23764W        W39838   0.942   6.072   5.220 -0.1022 -0.0338 -0.1020
23765W        W39839   4.530  13.621   2.990 -0.5166 -0.2153  0.2484
23766W        W39840  10.454  10.271   4.791 -0.2204 -0.0511  0.0917
23767W        W39841   9.269   3.382   2.784 -0.1335 -0.1918  0.2462
23768W        W39842  12.350   8.510  13.396 -0.3109 -0.2931 -0.0676
23769W        W39843   7.372   6.295  16.018  0.0404 -0.1850 -0.0845
23770W        W39844  12.746  14.420  12.855  0.1756 -0.0378  0.0200
23771W        W39845  17.858  13.373  15.924  0.0269  0.1990 -0.4721
23772W        W39846  10.095  17.904   4.216  0.1443 -0.1770 -0.0479
23773W        W39847   1.370   9.308  12.929  0.0723  0.2173  0.2545
23774W        W39848  17.710  15.243  14.669  0.1160 -0.2739 -0.0229
23775W        W39849  17.542   7.468  14.175  0.1966 -0.1397 -0.4355
23776W        W39850   1.353   2.373   1.359 -0.0428  0.1432 -0.1964
23777W        W39851   3.914   8.093   2.962  0.1338 -0.0112  0.0230
23778W        W39852  12.319  11.246  12.344 -0.2180  0.0332 -0.0368
23779W        W39853   5.507   8.630  15.842 -0.1086  0.1357 -0.3108
23780W        W39854   3.013  15.911  11.886  0.1560 -0.2517  0.0637
23781W        W39855   8.954   2.039   3.360 -0.1001 -0.4611 -0.1517
23782W        W39856  11.617  13.410  15.131 -0.1634 -0.1854  0.0692
23783W        W39857   3.560   5.948   0.519  0.2473  0.0230  0.0421
23784W        W39858   8.916   8.139  13.731 -0.0176  0.0444  0.1038
23785W        W39859   3.718   4.884  12.640 -0.0167  0.0437  0.0028
23786W        W39860   8.500  12.105   3.270  0.0135 -0.1557  0.4223
23787W        W39861   5.339  14.999  12.034 -0.1657  0.0534  0.0598
23788W        W39862  14.806  14.709   2.052 -0.1692 -0.1670  0.0918
23789W        W39863   1.590   5.599   0.725  0.2853 -0.1861  0.1012
23790W        W39864  15.830   4.816  14.480  0.3011 -0.1391  0.0645
23791W        W39865  17.109  16.300   2.733  0.0888  0.2383  0.0154
23792W        W39866   2.322  13.874   0.847  0.1581  0.1051  0.0329
23793W        W39867  14.694  13.215  12.555 -0.2667 -0.0188 -0.0020
23794W        W39868  11.745   4.315   0.591 -0.2809 -0.1790  0.1638
23795W        W39869  12.918   1.970   2.160  0.0300 -0.5209 -0.2956
23796W        W39870  10.715   1.630   3.448 -0.2615  0.2029 -0.2417
23797W        W39871   8.839   1.012   6.192 -0.0294 -0.1767 -0.1427
23798W        W39872   9.150   5.338   0.870 -0.1819  0.3365 -0.0653
23799W        W39873   5.454   4.909   4.874 -0.1016 -0.4690 -0.1201
23800W        W39874   3.369   1.085  13.871  0.3980  0.1082  0.1379
23801W        W39875  11.219  10.897  14.188  0.1593 -0.0780 -0.0722
23802W        W39876   7.377  11.286   1.959 -0.1465  0.5687 -0.0416
23803W        W39877   3.450   0.361   1.080  0.0705  0.2753  0.2104
23804W        W39878   1.551   3.872   0.982  0.1397 -0.0165  0.1035
23805W        W39879  12.249  12.702   3.344 -0.0176  0.3981 -0.1792
23806W        W39880   5.291  18.220  16.177  0.1352 -0.0607 -0.0653
23807W        W39881   2.666  16.101  11.202 -0.1015  0.0934 -0.0085
23808W        W39882   1.750   6.192  14.520  0.3748  0.0307  0.0087
23809W        W39883   3.555  14.700  10.126 -0.1146  0.0308  0.0376
23810W        W39884  10.493   0.178  15.421  0.1037 -0.0434 -0.1598
23811W        W39885   6.751   4.292   3.228 -0.0687 -0.0537 -0.0833
23812W        W39886  14.343  17.314   4.341 -0.0285 -0.2978 -0.0704
23813W        W39887   2.222   3.882  15.107  0.3783 -0.0857 -0.1415
23814W        W39888  13.551  13.201   3.876 -0.0308 -0.0850 -0.0595
23815W        W39889   6.035   9.833   3.960  0.0896 -0.0836 -0.1322
23816W        W39890  13.096  15.551   1.304 -0.1698  0.0455 -0.1557
23817W        W39891   6.922   8.130   1.093  0.1077  0.0696 -0.0135
23818W        W39892  10.343   3.478   5.279 -0.1585  0.4794  0.1674
23819W        W39893   2.306  14.308  12.414  0.1610  0.1311 -0.0978
23820W        W39894  15.631  15.941  12.224 -0.5647  0.0220 -0.0375
23821W        W39895   2.660   7.465  15.337 -0.1978  0.0818 -0.2084
23822W        W39896   0.536   2.717   5.037 -0.1238 -0.3586  0.3575
23823W        W39897   5.413   5.116   6.207  0.2247 -0.1156 -0.1522
23824W        W39898  15.894   2.713   0.445  0.2404  0.0122 -0.1774
23825W        W39899  16.067  10.853  15.378 -0.1971  0.1021 -0.2023
23826W        W39900   5.785   2.055  16.086  0.2617  0.0563  0.0191
23827W        W39901   5.141   1.260  16.119 -0.1000  0.0840 -0.0751
23828W        W39902   5.517  14.699   3.997 -0.0006 -0.1017  0.0687
23829W        W39903   4.580   9.979   1.528  0.1655 -0.1169  0.0557
23830W        W39904  12.073   4.957  11.826  0.0583 -0.1168  0.0623
23831W        W39905   4.571   8.549  11.352  0.0502  0.0064  0.3201
23832W        W39906   3.673   8.252   5.344  0.4708 -0.0449 -0.0660
23833W        W39907  11.622  13.487   4.538  0.1343 -0.2273 -0.3934
23834W        W39908   1.419  15.405  11.284 -0.0250  0.1394  0.1989
23835W        W39909  17.216  15.411   2.206 -0.0726  0.4066 -0.0740
23836W        W39910  11.049  10.061  16.257  0.1947 -0.3310  0.0973
23837W        W39911  12.306  16.173  15.410 -0.2380 -0.0127  0.0354
23838W        W39912   5.932   7.916   4.719 -0.0740 -0.4114  0.3867
23839W        W39913  12.753   7.928   0.722  0.2396 -0.0206  0.2101
23840W        W39914  17.817  13.588  13.873  0.0213  0.5806 -0.0370
23841W        W39915   3.373   4.223   2.375 -0.0073  0.0456 -0.1093
23842W        W39916  14.585   8.476   0.089 -0.0366  0.1251  0.1348
23843W        W39917  12.979  13.918   2.725  0.1042 -0.3198 -0.0933
23844W        W39918   6.537   2.377   4.821 -0.2638 -0.0299  0.0286
23845W        W39919  13.861  15.206   3.392 -0.0299 -0.1890 -0.0566
23846W        W39920  10.332  14.597  12.659 -0.0971  0.2721  0.1257
23847W        W39921   8.396  11.370  11.792  0.2342  0.0849 -0.0643
23848W        W39922   2.445  17.552  15.937 -0.4443  0.1005  0.1638
23849W        W39923   1.445   4.967   3.060 -0.1957 -0.4336 -0.0266
23850W        W39924   9.197  14.045   4.233  0.1541  0.0196  0.2274
23851W        W39925  15.906   1.418  12.028  0.1412  0.2516 -0.1536
23852W        W39926   1.135   5.210   4.215 -0.0644  0.3608 -0.2283
23853W        W39927  17.497  11.505   1.346  0.0628 -0.2361 -0.0215
23854W        W39928  11.083   7.108   1.784 -0.2426  0.2164  0.2129
23855W        W39929  10.033   7.256   2.732  0.1735 -0.1452 -0.2547
23856W        W39930   0.580   4.956   1.454  0.2170 -0.0129 -0.1920
23857W        W39931   6.560  13.828   4.266 -0.0923 -0.2544 -0.0135
23858W        W39932   3.080   5.916   4.872 -0.2839  0.1188  0.2237
23859W        W39933   2.869   4.197   2.240  0.2069 -0.0123 -0.0052
23860W        W39934   8.719  10.191  12.226 -0.2945 -0.4633  0.3343
23861W        W39935   5.154   0.480   4.484  0.2516  0.0688  0.0254
23862W        W39936   9.038   2.724   4.830 -0.0461 -0.0625  0.1398
23863W        W39937  13.657  15.969  14.774  0.0737  0.1765 -0.0308
23864W        W39938   9.878  13.915   1.099 -0.3150  0.0660  0.1708
23865W        W39939  14.078   9.280   4.524 -0.0609 -0.2066 -0.1826
23866W        W39940  14.085  17.854   0.843 -0.0819  0.0132  0.1633
23867W        W39941  14.412   2.563   1.655  0.0741  0.0860  0.3888
23868W        W39942   0.155  14.565   0.383  0.2195 -0.0216  0.0582
23869W        W39943  11.197   2.360  15.632  0.0623 -0.1065 -0.2504
23870W        W39944  12.290  14.500   2.453  0.2150 -0.1152  0.1116
23871W        W39945  16.781   9.561  14.295  0.2112 -0.0318 -0.0284
23872W        W39946   9.159  17.487   0.997  0.0583  0.1826  0.2757
23873W        W39947   9.789   1.362   5.671 -0.2436 -0.2557 -0.0998
23874W        W39948  11.184   0.688   4.942 -0.3092  0.5415  0.1189
23875W        W39949   6.008   3.719   4.537  0.0072  0.1283 -0.4024
23876W        W39950  18.212  13.676  10.905 -0.1004 -0.1757 -0.2246
23877W        W39951  16.810   6.293   2.275 -0.0765  0.1522  0.2076
23878W        W39952  12.368   1.277   1.417 -0.2476  0.0888  0.0214
23879W        W39953   2.394   0.964   1.664  0.0802 -0.1167  0.0220
23880W        W39954  16.461  13.783  12.963 -0.1631  0.0913  0.1070
23881W        W39955  10.971  11.732   2.475  0.1149  0.1465 -0.2264
23882W        W39956   4.590  17.570  15.632  0.0563 -0.2299 -0.1170
23883W        W39957   8.015   0.915   3.746  0.2681  0.1527  0.2459
23884W        W39958   7.282   2.660  14.739 -0.2588 -0.1266  0.0701
23885W        W39959   1.676  11.100   3.968  0.1045  0.2694 -0.2797
23886W        W39960   9.023   7.504  12.355  0.2733  0.4782 -0.0791
23887W        W39961   0.844  15.241  12.923  0.1235  0.1234 -0.0328
23888W        W39962  13.961  17.505   2.505  0.0216 -0.0286  0.1587
23889W        W39963  14.400  13.926  11.504 -0.1305 -0.1411 -0.1737
23890W        W39964  13.977   1.762   4.442  0.1692 -0.1114 -0.1606
23891W        W39965   6.004   6.204   4.034 -0.2188 -0.1770  0.0846
23892W        W39966  17.092  10.293   1.199  0.3353  0.1182  0.1629
23893W        W39967  12.379  15.197  14.831 -0.2807 -0.1869  0.1875
23894W        W39968   2.183   0.070  12.170  0.0373 -0.1075 -0.3588
23895W        W39969   3.589  13.952   2.063 -0.0798 -0.1034  0.1506
23896W        W39970   3.340   8.696  15.082 -0.1434 -0.0840 -0.1742
23897W        W39971  16.661  16.856  14.521 -0.2745  0.0584  0.0399
23898W        W39972   7.437  15.971  14.103  0.2440  0.2128 -0.0215
23899W        W39973   7.308   0.749   2.513 -0.0594 -0.4787  0.0136
23900W        W39974   8.508  15.095  15.709  0.2753  0.2490 -0.2565
23901W        W39975  16.632   5.292   4.496  0.1072 -0.0797  0.0613
23902W        W39976  16.476   0.034   4.798  0.0873 -0.1160  0.0116
23903W        W39977  16.555  17.499   2.381  0.1749  0.3276 -0.0677
23904W        W39978   2.906  13.793   2.724 -0.1390 -0.0823 -0.3591
23905W        W39979   7.254  10.260  13.365  0.6617 -0.3135  0.0087
23906W        W39980   3.713  13.307  14.899 -0.1266  0.3870 -0.2159
23907W        W39981  17.500   1.575   1.000 -0.0781  0.1050  0.0255
23908W        W39982   6.859   1.090  14.008 -0.1622 -0.2795  0.0672
23909W        W39983  16.550  16.829   3.194 -0.0051  0.2806  0.0097
23910W        W39984   1.380   6.494  12.705  0.0540  0.2066 -0.2559
23911W        W39985   8.460   8.429   5.419  0.2689  0.2065 -0.0374
23912W        W39986   4.106  12.830   4.606 -0.0801 -0.0831 -0.0618
23913W        W39987  17.801   6.491   5.746 -0.0372  0.0369 -0.0541
23914W        W39988  17.869   0.122  14.078 -0.1274 -0.1103  0.4805
23915W        W39989   6.813  15.553   5.836  0.0111 -0.0823 -0.3248
23916W        W39990  17.967  16.170   4.994  0.4478 -0.4539 -0.0809
23917W        W39991  13.820   5.920   0.950  0.0407 -0.0975  0.2289
23918W        W39992   9.310   7.551   5.637  0.0707 -0.1695 -0.0532
23919W        W39993   3.835  13.331  14.085 -0.1559  0.0219  0.0269
23920W        W39994  15.206  15.765  15.141  0.0734  0.1177 -0.2288
23921W        W39995  12.204  16.964   3.021 -0.1930 -0.1154 -0.0014
23922W        W39996   2.663  11.113  13.658  0.1426  0.2664 -0.0405
23923W        W39997   3.378  13.299  13.183 -0.0006  0.1146 -0.1639
23924W        W39998  13.375   2.482  15.460  0.1387  0.0603 -0.1298
23925W        W39999  10.662   7.002  14.217 -0.0051 -0.1865 -0.2679
23926W        W40000  13.128  12.571   2.914  0.0621 -0.1440 -0.1200
23927W        W40001   4.414  10.219   0.610 -0.1850 -0.1862  0.2950
23928W        W40002  14.052   6.628  14.938 -0.0510 -0.0700  0.0267
23929W        W40003  11.118   7.291  13.913 -0.2526  0.0775  0.0354
23930W        W40004  16.669   0.242  13.256  0.3173 -0.1303  0.2794
23931W        W40005   4.305   1.681  12.556  0.0087  0.3221  0.4214
23932W        W40006  11.692   7.867  14.664 -0.3395  0.2802  0.2782
23933W        W40007   5.872  10.835   2.527  0.0506  0.1236  0.0315
23934W        W40008   4.989   7.729  16.129 -0.1214  0.4238  0.0762
23935W        W40009  10.987   5.008  15.755  0.0441  0.0082  0.1038
23936W        W40010   2.326   7.905  13.746  0.2617 -0.1141 -0.1077
23937W        W40011  10.932  11.837   0.690  0.5105 -0.0846 -0.2521
23938W        W40012   0.094   9.702   3.441  0.2247 -0.2803  0.1061
23939W        W40013  10.716  16.844   6.150  0.0499 -0.1952 -0.0879
23940W        W40014  13.569  12.727   5.200 -0.0649  0.0289 -0.2181
23941W        W40015   7.914   0.634   3.100  0.0145  0.4152  0.2019
23942W        W40016  18.124  10.638   1.780 -0.1183  0.0349  0.2975
23943W        W40017  13.348   9.512  13.647  0.2943  0.0903 -0.2061
23944W        W40018  10.727   9.039  12.803 -0.1617  0.0253 -0.0504
23945W        W40019  10.993  15.172   4.922  0.1387  0.0119  0.0093
23946W        W40020  10.154  10.249   5.271 -0.2945  0.0078  0.0715
23947W        W40021   4.381  18.208  12.216  0.0286  0.0803 -0.1361
23948W        W40022   1.362  15.151  12.715 -0.1578 -0.3323 -0.1102
23949W        W40023   9.673  11.604  13.399 -0.0120 -0.0873  0.1632
23950W        W40024   0.752   7.225  12.050  0.0122 -0.4108 -0.1205
23951W        W40025   3.713   5.283  12.958  0.1541  0.1528 -0.2178
23952W        W40026   0.180   6.832  11.171  0.2386  0.4295  0.1226
23953W        W40027  12.936   7.035   0.533 -0.0757 -0.0830 -0.1067
23954W        W40028  16.672  14.896  13.985  0.3560  0.1768  0.0606
23955W        W40029  13.292   1.585  11.921 -0.4032  0.0115  0.2241
23956W        W40030   1.395   8.195  13.869  0.1095  0.0419  0.0968
23957W        W40031  11.988   4.026  13.408 -0.1232 -0.1193 -0.3022
23958W        W40032   1.532   7.617  15.311 -0.0246 -0.1479 -0.3328
23959W        W40033  11.542  17.410  15.376  0.1755 -0.2582 -0.1475
23960W        W40034  16.534   3.768  10.567  0.1592  0.1794  0.0671
23961W        W40035  15.223  17.468  11.907 -0.1692 -0.1609 -0.0636
23962W        W40036  16.706  15.436  14.187  0.2073  0.3644  0.0279
23963W        W40037  14.110  10.232   5.029  0.0355 -0.0165  0.0152
23964W        W40038   6.878   6.417  15.249 -0.1311  0.2165  0.5240
23965W        W40039  11.558  16.460   2.093 -0.1074 -0.0273 -0.1856
23966W        W40040  15.221   0.134   2.232 -0.1460  0.0919  0.0307
23967W        W40041  10.273  17.421   4.178 -0.0030 -0.1133  0.1511
23968W        W40042   3.859  14.706  11.655  0.2944  0.2054  0.5460
23969W        W40043   5.705  13.672  11.867  0.1227 -0.0802 -0.4199
23970W        W40044  14.304   5.059   2.000 -0.2845  0.0367  0.1246
23971W        W40045   8.669   2.221   0.895  0.1146 -0.1019  0.0623
23972W        W40046  13.073  15.211   0.939 -0.1005  0.1566  0.0005
23973W        W40047  10.746  13.035   4.277  0.0144 -0.0825  0.1131
23974W        W40048   2.655  12.851   0.896  0.0956  0.0622  0.3998
23975W        W40049  12.677   5.327  13.664  0.1565  0.0613  0.1020
23976W        W40050   2.302  11.670   2.970  0.0410  0.1010  0.0626
23977W        W40051   8.285  17.174   6.114 -0.1158  0.1590 -0.3030
23978W        W40052  10.411  15.200   2.972 -0.1952  0.0502 -0.1914
23979W        W40053   9.313  11.190   2.912  0.1111 -0.0302 -0.2330
23980W        W40054   5.405  14.727   4.480  0.4219 -0.0172  0.3772
23981W        W40055  17.380   9.412   0.570  0.2048  0.0016  0.1277
23982W        W40056  15.387  10.921  14.596 -0.1106  0.1089 -0.0080
23983W        W40057  14.747  16.212   1.038  0.0593  0.0158  0.1636
23984W        W40058  17.997   4.039  13.142 -0.4136  0.0067  0.2941
23985W        W40059   8.778  11.372  15.050 -0.1175 -0.3564  0.4213
23986W        W40060  16.094  17.217  15.318 -0.0534  0.0134  0.1255
23987W        W40061  10.097  15.093  12.665 -0.0179 -0.2563 -0.0905
23988W        W40062   4.309  15.706  14.438  0.0238  0.1223 -0.0962
23989W        W40063  11.462   3.425  13.969 -0.6130  0.0159 -0.1978
23990W        W40064  10.637  15.414   1.906 -0.1068  0.2830  0.0592
23991W        W40065   3.918   2.018  14.433 -0.0967  0.0625 -0.4091
23992W        W40066   0.480   0.543  14.935 -0.0216 -0.1527 -0.0512
23993W        W40067   1.725  13.496   6.176 -0.2331 -0.1473 -0.0562
23994W        W40068   5.595   2.904   1.080  0.0239  0.1075  0.2585
23995W        W40069   5.251  10.541   1.217  0.0711  0.2057 -0.0113
23996W        W40070  11.324  12.123  13.766 -0.0453  0.0040 -0.0097
23997W        W40071  14.162  14.926   1.863 -0.1072 -0.1047  0.1996
23998W        W40072   2.601   3.391  13.216 -0.1929  0.1730  0.3873
23999W        W40073   6.510  13.319   3.978  0.1278  0.0368 -0.2652
24000W        W40074   4.548  11.057   1.000 -0.2115  0.0377 -0.2420
24001W        W40075  11.458   2.619  14.644  0.0219 -0.1204  0.1279
24002W        W40076  12.235  16.988   0.928  0.0757  0.4088 -0.1403
24003W        W40077   5.381   9.780  16.381  0.0667 -0.0028  0.1348
24004W        W40078   7.580  12.969  13.083 -0.1122  0.1734  0.2499
24005W        W40079  10.679  16.360  16.469 -0.0325 -0.0323  0.3629
24006W        W40080   9.724   8.487   4.583  0.1634  0.2985 -0.3401
24007W        W40081   8.904   5.910   2.114  0.0681 -0.1990 -0.3452
24008W        W40082   5.931   3.070  15.842 -0.1098  0.0524  0.0397
24009W        W40083   0.755   0.009  10.892 -0.0592  0.3386 -0.0808
24010W        W40084  16.290  15.339  12.231  0.1416  0.0645  0.4557
24011W        W40085   8.926   7.352  12.889  0.4544  0.1240  0.0197
24012W        W40086  11.741   3.965   2.535  0.0964 -0.0564  0.0608
24013W        W40087   1.472  17.785  15.392  0.2166  0.4293  0.1471
24014W        W40088  14.851   6.255   4.580  0.1643 -0.2718  0.0967
24015W        W40089  13.979  10.144  13.145 -0.3936  0.1071 -0.1347
24016W        W40090   7.981   8.840  13.907 -0.0627 -0.1156 -0.1219
24017W        W40091   8.774   5.925  14.141  0.3087  0.0227 -0.0264
24018W        W40092  17.324   4.682   1.004 -0.1435 -0.2259 -0.0829
24019W        W40093  15.288  15.582   0.190 -0.0028  0.0142  0.3048
24020W        W40094   0.308  11.262   4.281 -0.4054  0.0735  0.1441
24021W        W40095  15.913   0.604   3.171  0.0174 -0.0196  0.0228
24022W        W40096   2.845  11.658  14.288 -0.1492 -0.2958  0.2029
24023W        W40097   9.109  17.959  16.456 -0.1712 -0.1389  0.0641
24024W        W40098   7.118   4.029   2.886 -0.0472 -0.1027 -0.1344
24025W        W40099  16.681   4.338  11.109  0.0237 -0.2134 -0.1516
24026W        W40100  16.458  12.425  14.739 -0.1132 -0.3952  0.0836
24027W        W40101   8.830  16.330  16.438 -0.0320  0.3321 -0.3752
24028W        W40102  15.185   5.246  15.774  0.0948  0.2311  0.4712
24029W        W40103  13.233   8.983  11.487 -0.0277  0.0357  0.2774
24030W        W40104   9.599   1.967   0.758  0.0937 -0.1591  0.0279
24031W        W40105  15.896   0.672  15.450 -0.3343  0.4578 -0.5307
24032W        W40106  18.133  17.094   3.476 -0.0459  0.2110  0.0151
24033W        W40107  17.473  17.050  11.336 -0.0026  0.2493  0.0097
24034W        W40108   2.199  16.366   4.945 -0.2219  0.2584 -0.1259
24035W        W40109  10.519   6.748  13.776 -0.3711 -0.0344  0.1986
24036W        W40110  17.615   0.803   3.300  0.0068 -0.1554  0.0534
24037W        W40111   7.647   0.961   3.386  0.1681 -0.1213 -0.1189
24038W        W40112   2.367   8.647   0.666 -0.0932 -0.0772  0.4396
24039W        W40113  13.557  16.434  12.619  0.4648 -0.0030  0.1448
24040W        W40114  10.151  12.381   2.085 -0.1070  0.0441 -0.0971
24041W        W40115  14.899   2.032  12.302 -0.0139 -0.3074 -0.0494
24042W        W40116  11.989  15.537  11.833 -0.0874 -0.2522  0.2025
24043W        W40117   8.657   3.634  15.826  0.0776  0.3699  0.3366
24044W        W40118   2.646  12.384   1.423 -0.2369  0.1812 -0.3180
24045W        W40119   2.433  16.454   3.222  0.1856  0.1851 -0.0319
24046W        W40120  11.663  11.336  14.214 -0.1966  0.3144  0.1786
24047W        W40121  13.798   2.202   5.657 -0.0305  0.1947  0.0578
24048W        W40122  10.375   1.170  16.339  0.0149 -0.0855  0.0519
24049W        W40123  15.711   6.210  14.811  0.1131  0.2503 -0.0166
24050W        W40124  15.590  17.018  12.541  0.0180  0.0340 -0.1221
24051W        W40125   7.868  12.393  15.830  0.1047  0.1223  0.4417
24052W        W40126  11.074   2.703   2.465  0.0293 -0.1124 -0.3149
24053W        W40127   3.392   4.957   0.186  0.3185 -0.0509  0.1744
24054W        W40128   9.710   3.778   1.397 -0.0305 -0.2729  0.1135
24055W        W40129   5.980   6.319  15.166  0.0640  0.0752 -0.1878
24056W        W40130  16.951   9.650   5.388 -0.3314  0.0414  0.0863
24057W        W40131   6.645  10.406   5.734  0.1386  0.1512  0.3512
24058W        W40132   0.231  17.428  12.744 -0.3331  0.1373 -0.0326
24059W        W40133  17.293   3.617   1.508  0.3213 -0.1275 -0.1138
24060W        W40134   2.846  16.773  16.270  0.0530 -0.2944 -0.2767
24061W        W40135  10.069   4.676  15.015 -0.3078  0.0555  0.2847
24062W        W40136   7.193  10.493   2.260 -0.1925 -0.0764  0.0322
24063W        W40137   9.423  16.722  13.348 -0.2498  0.3149  0.3181
24064W        W40138   5.440  15.821   4.000  0.2228  0.1486 -0.0046
24065W        W40139   6.544   6.715  14.925 -0.0567  0.2358  0.0326
24066W        W40140  13.595   2.678  10.847  0.3007  0.2252 -0.0955
24067W        W40141   5.308   9.144   1.744  0.5985 -0.0871  0.0621
24068W        W40142  15.061   6.563   5.520 -0.3209  0.2760  0.0453
24069W        W40143   5.601  13.899  14.258  0.3276 -0.2156  0.1278
24070W        W40144  10.359   0.444   5.779 -0.4428 -0.2149  0.0481
24071W        W40145  12.802   2.850  12.456 -0.2749  0.0707  0.1072
24072W        W40146  11.535   2.679   3.576 -0.1933 -0.1875  0.1581
24073W        W40147  12.222   6.811   0.253 -0.0421 -0.2001 -0.0373
24074W        W40148  15.488   0.106  16.055  0.3910 -0.1493  0.4743
24075W        W40149  14.083   7.252  13.587  0.1317  0.0848  0.0389
24076W        W40150  17.138   7.395  15.623  0.2719 -0.2419  0.0456
24077W        W40151  16.032  17.813  15.210  0.0227 -0.2095  0.1087
24078W        W40152   2.275  11.989  11.745 -0.0279 -0.1476 -0.1478
24079W        W40153  13.206  17.791  13.502 -0.3415  0.2267 -0.0733
24080W        W40154   9.947  15.660   6.205 -0.1420  0.2461 -0.0280
24081W        W40155   7.667   6.995   4.392 -0.3193  0.1328 -0.3197
24082W        W40156  15.534   0.301   1.365  0.2240  0.4036  0.2539
24083W        W40157   7.428   8.231  15.376  0.1333  0.0563 -0.1351
24084W        W40158   9.522   5.735   0.235 -0.1364  0.0802 -0.0735
24085W        W40159  11.119   6.968   3.760 -0.2172 -0.1940  0.1433
24086W        W40160   8.894   4.522  13.226  0.1309  0.5754 -0.0388
24087W        W40161   7.527   6.406  11.786 -0.0388 -0.1593 -0.0209
24088W        W40162  10.720   9.523  15.135 -0.0103  0.0772  0.1325
24089W        W40163   3.389  14.674  11.147  0.0270  0.3124 -0.1111
24090W        W40164   7.740  10.024   1.369 -0.1079 -0.1948  0.1983
24091W        W40165  12.392  16.127   0.604 -0.2146 -0.0660 -0.2917
24092W        W40166   1.937   5.146  12.817  0.0667 -0.2277  0.1718
24093W        W40167  13.012   5.150  12.147  0.0309  0.1982 -0.0856
24094W        W40168  11.929   0.019  14.681 -0.0317  0.1108  0.0953
24095W        W40169   7.642   3.058  14.909  0.2665  0.0760  0.0668
24096W        W40170  10.644   8.204   6.149 -0.0019 -0.0384  0.0229
24097W        W40171  16.205   1.996   0.340  0.1682 -0.0029 -0.2911
24098W        W40172  13.946   6.453   3.425  0.0112 -0.0281  0.0747
24099W        W40173   0.923   8.749   3.554 -0.4631 -0.1493  0.3724
24100W        W40174  16.924  14.071   2.864  0.0535 -0.0802  0.3160
24101W        W40175  15.790  14.078  12.870  0.3136  0.0469 -0.3529
24102W        W40176  16.338   6.884  13.687  0.1051  0.0769  0.2836
24103W        W40177  15.569  13.184   3.736  0.0721  0.1098 -0.0280
24104W        W40178   0.856   6.985  15.066 -0.0319  0.3665 -0.3108
24105W        W40179  12.177   9.304   2.155 -0.3281 -0.2016  0.2260
24106W        W40180   5.462  14.901   1.245  0.0332 -0.2719  0.1968
24107W        W40181   5.472   7.690   1.297 -0.0994  0.0374  0.1440
24108W        W40182   6.892   1.984  14.247 -0.2015 -0.0117 -0.2856
24109W        W40183  11.311   4.471   0.337 -0.1278  0.1196  0.2400
24110W        W40184   7.505  13.067   5.378 -0.0290  0.2982  0.1077
24111W        W40185  12.222   0.313   4.115  0.3317 -0.3571 -0.0399
24112W        W40186  10.583  10.079   4.336  0.1180 -0.0994  0.2181
24113W        W40187  16.551   6.420   2.698 -0.4449 -0.0400  0.2659
24114W        W40188   6.721   4.923   4.375  0.1029 -0.2333 -0.0441
24115W        W40189  11.221   6.480  13.490  0.1868 -0.3257  0.4948
24116W        W40190   9.492  16.747   1.205  0.2037  0.2772  0.3983
24117W        W40191  18.210   1.454   3.472  0.0496 -0.3098  0.2410
24118W        W40192   8.915  15.419  16.012 -0.0776  0.1145 -0.0480
24119W        W40193  13.401   3.447  12.977  0.0154 -0.1888 -0.0996
24120W        W40194   9.315  16.501   1.921  0.2215  0.1373  0.0404
24121W        W40195   8.012  16.553  11.438  0.2492  0.2417 -0.1287
24122W        W40196  15.880  15.650  11.759 -0.1342 -0.1510  0.0317
24123W        W40197  12.738  13.293  11.558 -0.2052 -0.2306  0.3281
24124W        W40198   2.209   9.830  14.984  0.1332  0.1171  0.0884
24125W        W40199   8.045  10.376  12.073 -0.2497  0.3973  0.0001
24126W        W40200   2.597   0.817   0.719 -0.0166  0.0270  0.2612
24127W        W40201   1.947  15.371   4.581  0.0565 -0.1413 -0.0774
24128W        W40202   1.323   1.609  13.671  0.2812 -0.3819  0.0170
24129W        W40203  14.945  15.526  14.707  0.2655 -0.2373  0.0707
24130W        W40204  12.095  15.487   5.568  0.0218 -0.3206  0.0635
24131W        W40205   0.272   1.289   4.626  0.6110  0.1978  0.0448
24132W        W40206   6.334   6.546   4.877  0.2805 -0.0898 -0.1456
24133W        W40207  13.167   4.883   2.736 -0.0641  0.1769 -0.2545
24134W        W40208  16.879  14.773   4.529 -0.0395  0.2730 -0.0888
24135W        W40209   4.546  13.447   3.503  0.0508  0.2917  0.1156
24136W        W40210  11.357  12.064  15.968 -0.2250 -0.0024 -0.0007
24137W        W40211   4.563   7.162   3.851  0.0697  0.4745 -0.3338
24138W        W40212  16.640   4.594  12.245 -0.3310 -0.0173 -0.1637
24139W        W40213  15.471  13.966   4.234 -0.0474 -0.0055  0.3028
24140W        W40214  10.552   1.555   4.576 -0.0125 -0.1050  0.1198
24141W        W40215  12.182   2.702  13.687 -0.0032  0.1026  0.1857
24142W        W40216   3.654  14.290   1.082  0.0405 -0.0995  0.1494
24143W        W40217   6.591   6.569   0.258 -0.1203  0.0382 -0.0790
24144W        W40218   0.337  12.813   0.486  0.0114 -0.1883 -0.0705
24145W        W40219  13.629   1.768  13.652  0.3396 -0.0556  0.0016
24146W        W40220  12.111   9.097   5.159 -0.2530  0.1199 -0.4646
24147W        W40221   3.953   8.502  16.199  0.2852 -0.0980 -0.0758
24148W        W40222   6.036  13.737  12.218  0.1820 -0.0178  0.1174
24149W        W40223   6.499   3.249   3.265 -0.0948 -0.1624 -0.1038
24150W        W40224   4.604   4.673   5.142 -0.0120  0.0720  0.2558
24151W        W40225   2.190   2.435   0.096  0.3601  0.0851 -0.5096
24152W        W40226   6.892   0.605   0.923  0.1254  0.2483 -0.1963
24153W        W40227   2.793  16.377   4.551  0.0538  0.0200  0.1351
24154W        W40228  12.421   3.354   5.033 -0.0829  0.1772 -0.1588
24155W        W40229   4.784   7.087   2.874  0.0096  0.4420  0.1120
24156W        W40230   1.296   1.679   3.060  0.1512 -0.0567 -0.0655
24157W        W40231   6.836   7.571   1.288  0.0904  0.1448  0.1045
24158W        W40232  14.736  14.469   2.544  0.2999 -0.0993  0.0374
24159W        W40233  17.387   2.231   1.983  0.0071 -0.0364  0.0109
24160W        W40234  15.843   3.737   2.957  0.1527 -0.0281 -0.3068
24161W        W40235  14.254   3.410  11.709 -0.1340  0.0096  0.2825
24162W        W40236   1.155  15.994  14.273 -0.0039 -0.2586  0.1239
24163W        W40237   3.765  18.203  15.402  0.0445  0.2291  0.3238
24164W        W40238  14.564  13.133   4.873  0.4475  0.1194  0.0378
24165W        W40239   4.125   5.132   2.685  0.2096 -0.1030  0.0776
24166W        W40240   0.998   7.072  10.995 -0.1574 -0.2140 -0.0510
24167W        W40241   2.260   1.583   5.733  0.2414  0.0180  0.1212
24168W        W40242   8.953  14.429   0.417 -0.2374  0.1632  0.0141
24169W        W40243  16.472   1.125  15.881 -0.0881  0.0889  0.0044
24170W        W40244  14.304   5.603   2.060  0.0532 -0.1697  0.1820
24171W        W40245   4.358  12.066  13.233 -0.0134 -0.0123  0.2466
24172W        W40246   8.352   3.750  15.374  0.1682 -0.1961  0.2134
24173W        W40247  12.701  12.490   2.125  0.3184 -0.1577 -0.3589
24174W        W40248   3.011   6.779   4.144  0.1066 -0.2562 -0.0245
24175W        W40249   1.785   9.677  12.361 -0.1857 -0.1727 -0.0450
24176W        W40250   1.822  10.778  14.281  0.1157  0.2249  0.1563
24177W        W40251   1.843   6.404   4.097 -0.1829 -0.1784  0.2010
24178W        W40252   8.208   0.467  15.634 -0.1798 -0.2904  0.0399
24179W        W40253  12.503   5.908  15.652  0.1435  0.1875  0.2303
24180W        W40254   1.290   8.594  12.952  0.0593 -0.5098  0.0110
24181W        W40255  18.213  18.016  14.867  0.4431  0.1581 -0.0170
24182W        W40256   9.974   2.271  13.027 -0.0273 -0.2279  0.2112
24183W        W40257  17.781   3.188  11.534  0.1561  0.3031  0.2516
24184W        W40258   4.267   5.458  13.682  0.1205  0.0627  0.1415
24185W        W40259  16.244   5.932  10.043 -0.1458 -0.0035  0.1349
24186W        W40260   0.033   0.227  12.049  0.4309 -0.0946 -0.0176
24187W        W40261  14.537  14.998  12.138  0.4282 -0.2238  0.0096
24188W        W40262  13.663   3.554   1.594 -0.1619 -0.0613 -0.0615
24189W        W40263   0.385   1.830  15.456  0.0665  0.1393 -0.1938
24190W        W40264   2.791   6.238  13.227 -0.2876  0.1016  0.1454
24191W        W40265  11.648   9.852   2.816  0.0006  0.0406  0.0035
24192W        W40266  15.626  13.330   2.771 -0.0811 -0.1341 -0.1202
24193W        W40267  16.714   1.388   5.082  0.0123 -0.0790 -0.2481
24194W        W40268   9.790  17.025   5.117  0.1575 -0.1382 -0.0160
24195W        W40269   6.947   6.098   5.752  0.0638  0.0620  0.1949
24196W        W40270   8.277  12.384  14.984 -0.0643 -0.0771  0.0097
24197W        W40271  13.443   2.490   3.816  0.1001  0.2344  0.1763
24198W        W40272   0.581   9.637   3.024  0.0579  0.1823  0.0022
24199W        W40273   8.120  11.734   1.774 -0.1760 -0.1806 -0.2045
24200W        W40274  10.548   1.635   4.033 -0.3559 -0.0047  0.0028
24201W        W40275  13.813   7.415   4.792 -0.2802  0.0503  0.1131
24202W        W40276  14.551  14.811   5.171 -0.2546  0.0603 -0.0284
24203W        W40277   6.533   3.247  13.152 -0.1043  0.4035  0.2842
24204W        W40278  10.530   6.347   3.907  0.0279 -0.2192  0.0020
24205W        W40279   4.475   2.055  14.168  0.1433 -0.1340 -0.4446
24206W        W40280   7.847   9.350  16.016  0.1406 -0.1709  0.0990
24207W        W40281   7.238   6.186  15.505  0.2110  0.2299  0.1009
24208W        W40282  12.986  10.411   1.275  0.4845 -0.0460 -0.1830
24209W        W40283  13.781  17.977   6.255 -0.4308 -0.1088  0.0841
24210W        W40284   4.332   4.992  14.703  0.1063  0.2420  0.2122
24211W        W40285  15.656   9.462   2.543 -0.3414  0.3244 -0.0905
24212W        W40286  13.508  14.644  14.972  0.0647  0.3253  0.2002
24213W        W40287  14.567  15.222  15.463  0.0457 -0.2564  0.0463
24214W        W40288   8.067  17.723  13.018  0.1020 -0.0461 -0.1662
24215W        W40289   5.532   1.988   3.573  0.0332 -0.2610  0.2565
24216W        W40290   9.955   7.188   4.808  0.0926  0.0360 -0.4354
24217W        W40291  11.916  13.090   6.028 -0.1466  0.2116 -0.1995
24218W        W40292   6.239  10.763   4.280 -0.1026  0.0143  0.1276
24219W        W40293   8.510   7.524  15.253 -0.2150 -0.0069 -0.1647
24220W        W40294   2.987   4.734   0.062  0.0965  0.1065 -0.1584
24221W        W40295   3.878  15.608   1.040 -0.1328  0.1982  0.1691
24222W        W40296   2.712   1.910  15.255 -0.1015  0.3947  0.1059
24223W        W40297  17.769   2.574   3.453  0.0117 -0.5030  0.1201
24224W        W40298  13.086   7.576  14.694 -0.0234 -0.1173  0.0798
24225W        W40299  11.743  10.532   4.295  0.0885 -0.0214  0.2826
24226W        W40300  18.066  13.154   6.127  0.5500 -0.1356 -0.0982
24227W        W40301   9.890   1.209  14.866  0.0543  0.0437  0.1493
24228W        W40302   1.298   6.712   4.530 -0.0447  0.2597  0.1753
24229W        W40303  15.378   7.823   6.070 -0.0385  0.0975  0.1454
24230W        W40304   5.733   4.262   2.845  0.2388  0.0629 -0.0157
24231W        W40305   7.744   4.419  11.848 -0.3514  0.0841 -0.1568
24232W        W40306   7.566  11.759  12.323 -0.1031 -0.0829  0.1621
24233W        W40307  15.143   4.382   3.497  0.1545  0.0610 -0.0237
24234W        W40308   2.791   9.431  14.145  0.0691  0.1105  0.1259
24235W        W40309  13.468  14.128  13.448  0.0582  0.0982 -0.0535
24236W        W40310   5.433   0.971   0.166 -0.1926 -0.0995 -0.0832
24237W        W40311   6.292  11.364   1.440  0.0923 -0.1658  0.5185
24238W        W40312   7.295  17.087  16.122  0.1585 -0.0422 -0.1129
24239W        W40313  10.506  13.455   0.274  0.2022  0.0958 -0.2754
24240W        W40314  11.278  12.579  14.422 -0.2799  0.0135  0.3294
24241W        W40315   6.576   6.934   4.126 -0.0172  0.0410 -0.0956
24242W        W40316  13.017  10.501  13.939  0.1302  0.0912  0.0061
24243W        W40317  13.415   5.250  14.497 -0.0683 -0.4335  0.1336
24244W        W40318  17.998  16.143  14.596 -0.2051  0.1984 -0.0057
24245W        W40319  14.135   1.710  16.095  0.1855  0.0557  0.2900
24246W        W40320   1.453  17.479  13.737  0.1990 -0.2919  0.1022
24247W        W40321  11.333  17.208  15.869 -0.1501 -0.1643 -0.1822
24248W        W40322   9.645   5.396   5.149  0.1116 -0.3747 -0.0029
24249W        W40323   0.223   0.802  12.034  0.2814 -0.2639  0.0950
24250W        W40324   7.858   5.566   1.496 -0.1742 -0.0483 -0.0636
24251W        W40325   0.165  17.553   0.717 -0.0888  0.0400 -0.0307
24252W        W40326   9.656   2.425  13.348 -0.2969 -0.1206  0.1668
24253W        W40327   2.760  12.305  12.967 -0.0928 -0.0569 -0.0304
24254W        W40328   7.865  18.081   4.539 -0.1146  0.0154  0.3119
24255W        W40329  11.301   1.223  12.364  0.0576 -0.0664  0.0174
24256W        W40330  15.025   1.088  12.070 -0.0121  0.1646  0.0549
24257W        W40331   7.778  10.235  16.516 -0.0801 -0.1074  0.0797
24258W        W40332  12.393   0.442  15.297  0.0683  0.0278 -0.0259
24259W        W40333  11.310  15.223  14.119 -0.1961 -0.4168  0.1562
24260W        W40334  17.631   6.941  12.359 -0.2446  0.4191  0.0531
24261W        W40335  13.909   9.860  11.899 -0.1882  0.1928 -0.0874
24262W        W40336  15.836   9.009  15.374  0.0148  0.0667  0.0127
24263W        W40337  17.808  16.091   4.090 -0.0894 -0.0020 -0.0082
24264W        W40338   7.803  17.288   6.222 -0.2350  0.0558 -0.0122
24265W        W40339   2.692   2.986  14.986  0.0022 -0.2143 -0.1936
24266W        W40340  13.085  13.763   3.183  0.0728 -0.0045 -0.2154
24267W        W40341  12.254  15.880  11.371 -0.1191 -0.1471 -0.1239
24268W        W40342   6.738   1.903  13.687  0.1015  0.0272 -0.1449
24269W        W40343  16.877   1.325  13.081  0.1219  0.1055  0.1304
24270W        W40344   2.395  10.244   2.740  0.4487 -0.3125  0.0159
24271W        W40345   5.350  11.848   4.141  0.1141 -0.3756  0.1410
24272W        W40346  15.938   9.692  13.029 -0.4255  0.0622 -0.0507
24273W        W40347   0.071  17.512  13.713 -0.1180 -0.1803 -0.0414
24274W        W40348   1.472   3.958  13.269  0.2449 -0.1103 -0.0000
24275W        W40349  11.111  10.586   1.958  0.5236 -0.2407 -0.0777
24276W        W40350  17.598  10.422  14.526 -0.0455 -0.0412  0.3070
24277W        W40351   0.763  15.981   4.859  0.1202  0.2061 -0.0547
24278W        W40352   9.304   8.559   3.604  0.0706 -0.0221 -0.1873
24279W        W40353  15.125   7.551   5.275  0.1343 -0.0522 -0.3905
24280W        W40354  15.341  18.109   3.265 -0.0195  0.1712  0.1255
24281W        W40355   5.984  17.362   0.765 -0.2179  0.1085 -0.2089
24282W        W40356   5.597  16.545   1.938  0.3206  0.1461  0.1267
24283W        W40357   4.543  10.252   2.622  0.1919  0.5387  0.0461
24284W        W40358   9.182   6.879   4.513  0.0322 -0.4108 -0.0003
24285W        W40359  12.341   3.928  14.351 -0.1097 -0.1047 -0.2259
24286W        W40360  18.175   3.327   4.945  0.1473 -0.0316  0.0585
24287W        W40361  10.874   1.654  15.571  0.1254  0.1290 -0.1324
24288W        W40362   6.221   1.322  11.214 -0.0327 -0.1795  0.2320
24289W        W40363   9.641  12.320  14.580  0.0037  0.0932  0.1287
24290W        W40364   1.619   0.593  11.940  0.5952  0.0086  0.0333
24291W        W40365   2.667  17.628   0.370 -0.2419  0.1904 -0.1468
24292W        W40366  13.066  10.829  11.986 -0.0482  0.2979  0.1786
24293W        W40367   9.478  13.079   1.435  0.0649  0.0554 -0.1193
24294W        W40368   1.582   1.237   1.642 -0.4104  0.0833  0.0996
24295W        W40369  12.110  16.954   1.964 -0.0753 -0.1666 -0.1313
24296W        W40370  15.324   1.588   4.681 -0.2578  0.2449  0.2341
24297W        W40371   3.412  14.980  15.541 -0.1374 -0.4133 -0.4445
24298W        W40372   1.343   2.070   0.004  0.1287  0.1093 -0.0967
24299W        W40373  11.347  17.153  16.389  0.0815  0.0473  0.1291
24300W        W40374   0.329  11.939   0.001  0.0936 -0.2280  0.0726
24301W        W40375  17.757   0.587   0.260  0.1962 -0.1292  0.0824
24302W        W40376  15.991   8.339   3.474 -0.4175  0.0260  0.0564
24303W        W40377  12.192  16.954  12.979  0.1867  0.3780 -0.2706
24304W        W40378   8.250  17.297  12.523  0.2071  0.1686  0.0127
24305W        W40379   9.273   8.025   3.853  0.1053 -0.0676  0.0422
24306W        W40380   4.304  14.860   2.576  0.1912 -0.0784  0.1596
24307W        W40381  10.750   7.716   3.691 -0.0401  0.1248 -0.0374
24308W        W40382  17.367  13.195   2.934  0.2149  0.0301 -0.3320
24309W        W40383  17.578  15.726  14.715  0.0875  0.0230  0.2508
24310W        W40384   2.035   0.402   1.462 -0.2681  0.1286  0.2320
24311W        W40385  10.785   7.083  16.056 -0.2219 -0.0118 -0.2499
24312W        W40386  11.461   9.054  14.955  0.2410  0.0072 -0.0081
24313W        W40387  17.600  11.462   0.527 -0.0404 -0.0236 -0.0121
24314W        W40388   6.576  17.480  14.877 -0.2654  0.1114 -0.2997
24315W        W40389   3.717  11.029   4.184  0.0540  0.0692 -0.0153
24316W        W40390   3.408  17.475   0.758  0.1657  0.0886 -0.1391
24317W        W40391  15.685  12.175  15.637 -0.1832  0.0994 -0.0288
24318W        W40392  10.569   8.983   1.981 -0.0977 -0.2036 -0.1190
24319W        W40393  12.170  18.026   3.842  0.1115  0.1053 -0.1055
24320W        W40394  11.979   6.126  15.637 -0.2098  0.0613  0.2050
24321W        W40395  16.016   0.318   1.117  0.1666 -0.0687 -0.1228
24322W        W40396   8.509   7.067  16.464 -0.0786 -0.0453  0.1719
24323W        W40397  12.788   6.643   2.601  0.3862 -0.0343  0.2825
24324W        W40398   2.031   2.687  15.402  0.0203  0.0387 -0.1586
24325W        W40399  15.007   8.026  13.988  0.1694 -0.2510 -0.3179
24326W        W40400   3.603   4.318   1.264  0.0644  0.0756  0.1606
24327W        W40401   9.508   3.690  16.505  0.1057  0.1520 -0.2539
24328W        W40402  12.166  12.888   3.868  0.0517 -0.1781  0.3588
24329W        W40403   8.077   7.972   0.001 -0.2954  0.5694  0.0986
24330W        W40404   6.344  14.380  11.050 -0.1768  0.0577  0.2938
24331W        W40405   3.059   1.658  10.602 -0.2681  0.1726 -0.0145
24332W        W40406   0.893  13.318  11.995 -0.3348 -0.1391 -0.0245
24333W        W40407   4.105  10.810   3.051 -0.0405 -0.1274 -0.2349
24334W        W40408  14.290  10.156   3.020 -0.0155  0.3455  0.2229
24335W        W40409   3.602   3.130   4.465  0.3181  0.1696  0.1223
24336W        W40410   7.401  18.195   4.239 -0.0987  0.1534  0.0619
24337W        W40411  12.350   7.352   0.295  0.0458  0.0579 -0.0670
24338W        W40412  17.796  11.649   0.953 -0.2129 -0.2261 -0.1326
24339W        W40413   6.363  10.845  14.460  0.0742 -0.1552  0.1141
24340W        W40414   3.645   8.085  16.104 -0.4043 -0.1096  0.2043
24341W        W40415  15.324  10.300  13.835  0.1314 -0.1363  0.2876
24342W        W40416  17.478  12.957  13.009 -0.1653 -0.0057  0.1012
24343W        W40417   1.301  10.968   4.910 -0.1171  0.0440  0.2010
24344W        W40418  14.521  16.147   0.096  0.2806 -0.2099  0.3608
24345W        W40419   5.558  15.148  16.146 -0.0279 -0.0196  0.4186
24346W        W40420  14.761   5.967   3.938  0.0179 -0.0459 -0.0966
24347W        W40421  11.638   6.609   5.367 -0.1584  0.0784  0.0445
24348W        W40422  14.752   8.166  13.509 -0.0289 -0.2386 -0.2563
24349W        W40423   7.250   5.539   4.764  0.2115  0.1861 -0.0062
24350W        W40424  13.203  14.161   5.351  0.1904 -0.0108 -0.0732
24351W        W40425   7.954  15.509   2.119 -0.0322 -0.0056  0.0882
24352W        W40426  11.716  11.389   1.704 -0.1414 -0.1233  0.0588
24353W        W40427  13.235  15.626   4.540 -0.3181 -0.1734 -0.1676
24354W        W40428   8.484  15.380   5.320 -0.2514 -0.1744 -0.0977
24355W        W40429  13.225   8.536   6.710  0.0913  0.0525  0.1411
24356W        W40430   3.924   9.289  11.891  0.0884 -0.0987 -0.0291
24357W        W40431  13.532  11.538  12.841 -0.0348 -0.0127 -0.0538
24358W        W40432   1.910   9.788   3.784 -0.0492 -0.0062 -0.0566
24359W        W40433   2.185  17.999  15.068  0.1041  0.1341 -0.0742
24360W        W40434  18.065   5.237  14.263  0.1132  0.2140  0.1689
24361W        W40435   6.885   1.944  16.538 -0.0094 -0.0480 -0.1964
24362W        W40436  12.590   9.127   0.825 -0.2021  0.1753 -0.1265
24363W        W40437   4.165  12.334   4.462  0.0112  0.1336 -0.2186
24364W        W40438  17.966  10.060   4.746  0.0410 -0.1027 -0.2758
24365W        W40439  13.884  13.602  12.314 -0.0224 -0.0709 -0.0725
24366W        W40440  13.434   6.868   1.540  0.0348 -0.1613  0.1616
24367W        W40441   8.139   4.416   1.392  0.0050 -0.4568 -0.0705
24368W        W40442   8.352   5.488   5.620 -0.2199  0.1069  0.0783
24369W        W40443   2.773   2.685   4.965 -0.0620 -0.3114  0.3029
24370W        W40444   2.906   8.889   5.869  0.0223 -0.2417 -0.1520
24371W        W40445  11.478   7.949  15.675  0.0477 -0.2812 -0.1527
24372W        W40446   2.573   8.761  14.109  0.0067 -0.0746  0.1304
24373W        W40447   9.909  13.288  16.525 -0.0936 -0.0681  0.1545
24374W        W40448   7.712   1.738  15.680  0.0624  0.0874 -0.0713
24375W        W40449   0.808  13.580  11.065 -0.1747 -0.0002 -0.1288
24376W        W40450   7.979   6.656   4.758 -0.1829  0.0634 -0.1180
24377W        W40451   3.675   8.122  14.319 -0.3130  0.0174  0.0509
24378W        W40452   9.806  17.715  13.138  0.2317 -0.3310  0.2461
24379W        W40453  16.073  11.942  13.133  0.1295 -0.1797  0.1672
24380W        W40454  11.451  13.399   3.624 -0.0279 -0.2567 -0.1739
24381W        W40455   3.824  17.356   2.841  0.1793  0.2442  0.3530
24382W        W40456   5.445   1.724   1.325 -0.2987 -0.0111  0.1333
24383W        W40457   7.709  12.355  12.858  0.4016  0.3723  0.0962
24384W        W40458  10.075  12.778   3.583  0.0980 -0.2626  0.1036
24385W        W40459   7.287   5.454   1.100  0.0182 -0.1996 -0.3275
24386W        W40460  10.669  15.768  14.754 -0.2511 -0.1568  0.2205
24387W        W40461   9.428   2.658   2.693 -0.0818 -0.0686 -0.2151
24388W        W40462  17.252  15.303  13.429  0.2262 -0.0830  0.1496
24389W        W40463   4.703  17.826   0.334 -0.0160 -0.0192 -0.4025
24390W        W40464   2.272   7.855  11.304 -0.1254  0.1174  0.0199
24391W        W40465  14.334   1.102  15.206  0.0640  0.0294  0.4658
24392W        W40466  12.398  13.275   5.784 -0.1635  0.2954 -0.0831
24393W        W40467  13.119  13.351   0.374  0.0023 -0.1782 -0.1610
24394W        W40468  13.663   5.630  14.317 -0.0941  0.2815  0.0151
24395W        W40469   3.033   9.898   3.039  0.2496  0.0454 -0.1241
24396W        W40470   4.887   0.187   0.380 -0.0203 -0.1136 -0.0880
24397W        W40471  11.451   5.531   4.283 -0.0030  0.0335  0.2418
24398W        W40472   1.951  15.845   3.864  0.0824 -0.1291 -0.2783
24399W        W40473   1.410   0.770   1.359 -0.1877  0.1188  0.3321
24400W        W40474  13.595  11.054   5.049  0.0899  0.1344 -0.1437
24401W        W40475   8.622   0.186  15.432 -0.1769  0.1426  0.1267
24402W        W40476   3.549   3.503   5.355 -0.1881 -0.0582 -0.0416
24403W        W40477   4.570   4.845   2.690  0.2524 -0.1396  0.0774
24404W        W40478  12.235  14.381  13.273  0.2499 -0.1972 -0.2340
24405W        W40479  17.527   0.130  11.945 -0.0935 -0.0623 -0.1902
24406W        W40480  10.442  15.587   5.870 -0.1375 -0.0870 -0.0897
24407W        W40481  15.912  10.344   4.247  0.2233  0.0159  0.1331
24408W        W40482  13.647  10.566   4.291 -0.1098 -0.0318 -0.0937
24409W        W40483   5.870  10.969  15.311 -0.0701  0.0074 -0.1431
24410W        W40484   7.561  15.272   2.090  0.1832  0.0026 -0.4046
24411W        W40485   7.350  15.753   2.033 -0.0940  0.3020  0.1173
24412W        W40486   9.676   9.794   4.063 -0.0678  0.1801 -0.1706
24413W        W40487  18.205   6.969   1.905  0.3965 -0.1607  0.0809
24414W        W40488   0.582   4.621   4.620 -0.1117 -0.0882  0.0160
24415W        W40489  16.664   5.700  15.881 -0.2750  0.0670  0.0539
24416W        W40490   9.258   9.994   2.172 -0.0933 -0.1014  0.2624
24417W        W40491  12.937  15.509   0.296 -0.1898  0.2573  0.1853
24418W        W40492  16.565  15.867   2.735  0.1845 -0.2608  0.2497
24419W        W40493   4.425   3.373  15.132  0.0048 -0.1134  0.2000
24420W        W40494   2.560   8.140  13.360 -0.0410 -0.1263  0.0620
24421W        W40495  15.758   4.452   0.563  0.0806  0.2938  0.0254
24422W        W40496   0.208   8.680   2.074 -0.0438 -0.1131 -0.1330
24423W        W40497  16.851   9.867  15.152  0.4287  0.3123  0.1528
24424W        W40498  17.102  14.346  13.034  0.0159 -0.1512  0.1934
24425W        W40499   3.119  10.442   0.935 -0.2272 -0.0242 -0.1344
24426W        W40500  12.969  17.483  15.984  0.5302 -0.2853 -0.1640
24427W        W40501   0.822   2.587   4.479 -0.0448  0.2016  0.2325
24428W        W40502  10.193  17.057   4.827 -0.0563  0.2890  0.0136
24429W        W40503   7.539  14.514  15.751  0.0366  0.1110 -0.0005
24430W        W40504  13.297  15.614  14.703  0.0542  0.1468  0.1019
24431W        W40505   9.338  15.926  11.534  0.2479 -0.0279 -0.0066
24432W        W40506  14.836   9.074   0.024 -0.1626  0.1461  0.2676
24433W        W40507   8.657   1.262  16.212  0.3413  0.2909  0.0527
24434W        W40508  10.659   6.217  11.667 -0.0375  0.0387 -0.2998
24435W        W40509   9.203  10.284   4.614 -0.0946 -0.0116  0.0484
24436W        W40510  17.610  10.180  13.973  0.0601 -0.1921  0.0205
24437W        W40511   0.192  10.691  11.073  0.4917  0.1045  0.1074
24438W        W40512  10.455  17.912   4.710 -0.3516  0.0630 -0.1657
24439W        W40513   4.875  12.443   2.664 -0.0729  0.1035 -0.0021
24440W        W40514   5.759   0.430  11.930 -0.1661 -0.1252  0.1962
24441W        W40515  15.841   4.362  11.736 -0.0271  0.2390  0.0014
24442W        W40516   6.743   7.590  12.472  0.0038 -0.0477 -0.1647
24443W        W40517   7.200   9.253   0.943  0.4073  0.0440 -0.1355
24444W        W40518   6.721   1.517   4.859 -0.0130  0.0073 -0.2633
24445W        W40519  11.575   5.787  16.392 -0.1877  0.1077 -0.2700
24446W        W40520   3.780  10.036   4.112 -0.0705  0.1129 -0.0751
24447W        W40521   9.344  12.414   0.664 -0.1141 -0.0437  0.1126
24448W        W40522   7.994  10.329  11.552 -0.0944 -0.0759 -0.0651
24449W        W40523  17.848   8.512   2.028  0.2099  0.1465 -0.1346
24450W        W40524   6.077  14.840   2.258 -0.1585  0.1055  0.1501
24451W        W40525   9.087  12.672  14.569 -0.0625  0.2724  0.2552
24452W        W40526  10.295  12.445  16.418  0.1444  0.1476 -0.0158
24453W        W40527   0.530   4.798   3.529 -0.1127  0.2799 -0.0144
24454W        W40528  10.470  16.539  15.116  0.1021 -0.2369 -0.2429
24455W        W40529   7.499   1.475   3.218  0.0346  0.0140  0.1734
24456W        W40530   5.109  17.926   3.794  0.0491 -0.1496 -0.1635
24457W        W40531  13.234  15.607   2.009  0.0261  0.0375 -0.0990
24458W        W40532   0.469  15.268   3.340  0.0067 -0.0635 -0.0141
24459W        W40533   9.781  17.236  13.004 -0.1337 -0.2671 -0.0813
24460W        W40534  10.602   3.508  15.679  0.2471  0.0909 -0.2717
24461W        W40535  13.611   7.219   3.111  0.2798 -0.0830  0.2330
24462W        W40536  16.129  15.919  15.529  0.0226 -0.1208 -0.1554
24463W        W40537  12.023  17.120   4.313 -0.0041 -0.4395 -0.1856
24464W        W40538   5.349   3.799  13.548  0.1699 -0.0580  0.4179
24465W        W40539  12.966   7.066  13.434 -0.0987  0.2196  0.3648
24466W        W40540   0.005   7.905  11.417 -0.1721 -0.2827  0.0430
24467W        W40541   1.468   3.321  14.860 -0.0484 -0.2494 -0.1040
24468W        W40542  16.479  17.010  13.838 -0.2466  0.0531  0.0116
24469W        W40543   4.341   4.959   0.073 -0.1681  0.2631 -0.0021
24470W        W40544   7.785  13.306  11.838 -0.0442 -0.0308  0.0349
24471W        W40545   8.357  14.906  12.977 -0.1761 -0.2671 -0.2699
24472W        W40546   1.088   2.642  14.559 -0.3630 -0.0647  0.2185
24473W        W40547  15.832  13.455  11.359 -0.0593  0.0900 -0.0853
24474W        W40548  16.017   2.336  13.782 -0.2020  0.2045 -0.3731
24475W        W40549   3.513   1.137   4.042  0.0900  0.1354 -0.0244
24476W        W40550   5.881   6.483  13.750 -0.1303  0.1600 -0.0519
24477W        W40551   0.417   7.723  11.218 -0.3546  0.2162  0.1024
24478W        W40552   1.381  16.628  13.407 -0.0415 -0.0338 -0.0470
24479W        W40553  15.972   3.177   2.111  0.4654  0.2182 -0.0141
24480W        W40554   2.299   8.485  13.101  0.2224 -0.0369 -0.3442
24481W        W40555   1.841   1.914  10.641 -0.0584  0.0048  0.0491
24482W        W40556  17.744   7.041  15.863 -0.2273  0.1584 -0.1155
24483W        W40557   9.212  11.427  13.128 -0.1315 -0.0043 -0.0247
24484W        W40558  16.464   3.035  12.641 -0.0090 -0.3924  0.0703
24485W        W40559   4.902   7.013   1.200  0.1483 -0.2842 -0.1370
24486W        W40560   8.441  11.930  13.821  0.1986 -0.3751 -0.0803
24487W        W40561  13.781   7.661   4.187 -0.0787  0.1784  0.4221
24488W        W40562   5.294  13.139  15.783  0.2745 -0.1825  0.2583
24489W        W40563  17.246   6.486   5.043 -0.1276 -0.0091  0.3445
24490W        W40564   9.083  13.462  15.794 -0.1424 -0.3354  0.2868
24491W        W40565  17.972  12.429  11.339 -0.0099  0.0204  0.3509
24492W        W40566   6.812   9.625  14.088  0.0537 -0.4960  0.1598
24493W        W40567   7.815   2.063   1.097  0.0710 -0.2247 -0.1320
24494W        W40568   3.831  14.229   2.439  0.0831  0.0763 -0.0262
24495W        W40569   5.223  15.682  16.268 -0.2766  0.0648 -0.0567
24496W        W40570   7.773   4.273   2.661 -0.1744  0.1590  0.0830
24497W        W40571   8.059  12.221   5.091 -0.1526 -0.3778 -0.0174
24498W        W40572  17.193   5.470  12.733 -0.0907 -0.0287  0.1656
24499W        W40573   4.614   3.773  13.832  0.4222  0.1919 -0.0502
24500W        W40574  10.443   0.082   6.123 -0.2839 -0.2998 -0.1448
24501W        W40575   8.538   9.118   3.503 -0.0673  0.0240 -0.2467
24502W        W40576   4.329   2.884   0.786  0.0867  0.1258 -0.1352
24503W        W40577  15.708  17.409  13.973 -0.2623 -0.3259 -0.1107
24504W        W40578  16.955   1.829   0.591  0.1605  0.1132 -0.0068
24505W        W40579  15.158   2.894  14.806 -0.0050 -0.1954  0.1487
24506W        W40580  11.137   0.848   1.669  0.3029  0.2498  0.1452
24507W        W40581  12.822   1.155   0.580 -0.2172  0.2577 -0.1296
24508W        W40582  17.750   2.517  11.661 -0.1419 -0.1654  0.0738
24509W        W40583  15.597   9.100  14.338 -0.1252 -0.1760 -0.2851
24510W        W40584  18.170  11.408  15.321  0.2742 -0.1341 -0.0666
24511W        W40585  13.025  10.515   5.205 -0.2343 -0.3924  0.3551
24512W        W40586   7.299  10.197   4.702 -0.0916 -0.2348 -0.1362
24513W        W40587   5.174   3.475  13.032 -0.2656 -0.1570 -0.2355
24514W        W40588  12.695   6.247  16.400 -0.0523 -0.1287 -0.1850
24515W        W40589   3.876  13.672   1.741 -0.0157  0.1230 -0.2915
24516W        W40590  12.311   5.427  16.005  0.0072  0.0577  0.2287
24517W        W40591  16.979   3.864  15.861  0.0334  0.1496  0.1718
24518W        W40592  18.223   2.365  11.473  0.4192 -0.0300 -0.5468
24519W        W40593   3.726  16.237  15.753  0.0149  0.1712 -0.2445
24520W        W40594   7.240  13.376   3.766 -0.0093 -0.0589  0.1378
24521W        W40595  14.148   1.150  11.588  0.1511  0.0460 -0.2565
24522W        W40596  15.290   1.127   4.776 -0.0195  0.0383  0.1503
24523W        W40597   1.000  12.254  12.225 -0.0212  0.3221  0.2794
24524W        W40598   3.985   6.324  14.511  0.0288  0.1489 -0.0022
24525W        W40599   8.322  12.555   3.221  0.1996  0.0989 -0.3483
24526W        W40600   3.719   5.415   5.362 -0.1850  0.0148 -0.0181
24527W        W40601   0.719   1.161  15.471 -0.2514  0.0199 -0.1401
24528W        W40602   7.355  11.132   0.550 -0.0503  0.3561 -0.0639
24529W        W40603  15.301   7.195  12.011  0.0912  0.0281  0.3777
24530W        W40604   6.883  14.837   2.646 -0.2243  0.0666  0.0037
24531W        W40605   3.913  14.902  14.884  0.0447 -0.0733 -0.4122
24532W        W40606   2.717  13.333   4.260 -0.0647 -0.1340  0.3239
24533W        W40607  11.706   3.847  13.953  0.4489 -0.0603 -0.3058
24534W        W40608   8.670   7.928  14.862  0.2882  0.1696 -0.0730
24535W        W40609   6.048   4.218   1.130 -0.1091 -0.0254  0.0194
24536W        W40610  14.773   4.823  15.856  0.1181 -0.0024  0.2435
24537W        W40611  15.140  18.056  14.792  0.0497 -0.2863  0.0026
24538W        W40612  11.377   0.003  11.462 -0.2591  0.3334 -0.2425
24539W        W40613   7.598   5.229   2.282 -0.0454 -0.2402  0.1224
24540W        W40614   1.165   0.977   0.513  0.2987 -0.0548  0.0035
24541W        W40615   9.777   1.760  12.256  0.0571  0.2258 -0.0384
24542W        W40616  12.019   4.312   1.573 -0.1494 -0.0138 -0.2673
24543W        W40617   1.633  10.572   5.423 -0.1109  0.2872  0.1217
24544W        W40618   2.806  17.192   2.371  0.0786  0.2610  0.0846
24545W        W40619  16.269   2.981  13.880 -0.0725 -0.2870 -0.0136
24546W        W40620   6.706   4.790  14.065 -0.2286 -0.0598  0.1893
24547W        W40621   7.928   3.492   4.578  0.0331  0.2230 -0.3097
24548W        W40622  10.832  15.741   0.262 -0.0124  0.0103 -0.0611
24549W        W40623  14.877  10.289   4.700 -0.3974  0.3177  0.0421
24550W        W40624  16.410  15.684   4.730  0.2406 -0.0584  0.1195
24551W        W40625   5.328  13.387   3.272 -0.1545 -0.0980  0.0700
24552W        W40626  17.914   2.300   1.688  0.2408 -0.0959  0.2840
24553W        W40627   4.088  14.992   3.615  0.0689 -0.2365 -0.0387
24554W        W40628   4.935   3.459  13.474  0.0102 -0.1709  0.2287
24555W        W40629   3.546  11.056  14.192  0.1158 -0.2541 -0.0558
24556W        W40630   9.493  17.018   4.113  0.1694  0.1648  0.0506
24557W        W40631   9.072   9.139   3.599 -0.0432  0.4101  0.1073
24558W        W40632   5.273  10.418  15.631 -0.0671 -0.1595 -0.0654
24559W        W40633   3.832   5.615  15.601 -0.1024 -0.0682 -0.2455
24560W        W40634   4.126  14.586   1.167  0.1449 -0.1458 -0.0702
24561W        W40635   4.638   3.411   4.612 -0.1190 -0.3791 -0.1470
24562W        W40636  10.825  14.404  11.777  0.2066  0.1763  0.1712
24563W        W40637   9.231  11.017  12.774 -0.1797  0.0981 -0.1191
24564W        W40638  18.017   5.408  11.542  0.0690 -0.0509  0.1017
24565W        W40639   6.748  14.343  11.419  0.1203 -0.2301 -0.2741
24566W        W40640  11.469   2.912  11.603  0.0194 -0.0314  0.0477
24567W        W40641   3.702   5.577   2.635  0.0082  0.2586 -0.1052
24568W        W40642   4.543  13.493  12.975 -0.0676  0.2909  0.3307
24569W        W40643   1.330   5.865  13.703 -0.0736  0.0329  0.1669
24570W        W40644   2.374   3.075  14.515  0.2688  0.0504 -0.1221
24571W        W40645   2.423  13.345   5.015  0.0680 -0.0981  0.1215
24572W        W40646  14.756  13.461   3.296  0.0180 -0.1832  0.0727
24573W        W40647  10.941   7.528   4.474 -0.4895 -0.3086 -0.0143
24574W        W40648  12.919  17.093   4.735  0.0528 -0.0748  0.1855
24575W        W40649  12.665   0.580   4.756  0.0910 -0.1587 -0.0796
24576W        W40650   8.615  14.144  12.834  0.1194 -0.0730  0.0290
24577W        W40651  16.618  17.862  14.745  0.4762  0.1042  0.0823
24578W        W40652   8.782   7.761   1.270  0.0128 -0.1960  0.2011
24579W        W40653   9.213   7.915  15.695  0.2012  0.1090 -0.0893
24580W        W40654   4.618  12.201  13.841  0.1408 -0.1413  0.0120
24581W        W40655   2.176  11.864  14.797  0.2742 -0.1438 -0.1920
24582W        W40656  14.254   0.328   0.202 -0.0613 -0.2638 -0.0573
24583W        W40657   2.946   0.880  11.164  0.0197  0.0362  0.2215
24584W        W40658   1.914   0.013  14.141 -0.1592  0.1399 -0.0734
24585W        W40659  12.535   2.236  12.500 -0.0982  0.1818 -0.0046
24586W        W40660   2.934  10.409   2.362  0.0306  0.1547 -0.0651
24587W        W40661  12.579   3.555  12.994  0.0221 -0.5157 -0.1064
24588W        W40662   3.889  11.163  13.348 -0.2091  0.1522 -0.3467
24589W        W40663   1.728   1.508   5.480  0.0767  0.1380 -0.1347
24590W        W40664   9.186   0.484   2.421 -0.1205  0.2643 -0.0572
24591W        W40665  10.658  16.362  13.820  0.2394 -0.1238  0.1505
24592W        W40666  14.417  13.422   0.218  0.1910  0.3762 -0.1778
24593W        W40667  11.865   2.566  15.064 -0.3244 -0.5106 -0.2626
24594W        W40668  10.697   0.499   4.268  0.1696 -0.0543 -0.0842
24595W        W40669  13.238  17.103   6.027 -0.0091 -0.0985  0.1449
24596W        W40670  15.574  16.357   0.932 -0.0438 -0.1667  0.1186
24597W        W40671  11.653  12.627   2.150  0.1587 -0.3889  0.2498
24598W        W40672   3.340   2.551   5.573  0.1684  0.0434 -0.4305
24599W        W40673   5.287   2.668   0.108 -0.1194  0.0968  0.2206
24600W        W40674  12.949  14.769  13.123 -0.1887 -0.1614  0.2761
24601W        W40675   6.599  10.896   4.633 -0.0172 -0.1523  0.0309
24602W        W40676   6.153   1.873   2.895  0.0708  0.1224  0.1656
24603W        W40677   1.825  17.186  14.037  0.2914 -0.1591  0.1178
24604W        W40678   8.495   2.369   4.673 -0.0452  0.2787 -0.2156
24605W        W40679  15.466   2.703  11.750  0.2183  0.1371  0.3297
24606W        W40680   5.703   7.559   3.972  0.0504  0.1147 -0.1993
24607W        W40681  15.752  13.959   0.871 -0.1727  0.3256 -0.1854
24608W        W40682   3.671   7.476   4.773 -0.3328 -0.0574 -0.0067
24609W        W40683  11.058   0.793   3.959 -0.2284  0.1156 -0.2743
24610W        W40684  15.161  14.989  12.785 -0.0889 -0.1301  0.0885
24611W        W40685  11.720   5.353   3.697 -0.3245 -0.1983 -0.1842
24612W        W40686   3.254   3.456   6.466 -0.1569 -0.1260 -0.1432
24613W        W40687   9.933  15.363  15.264 -0.0087 -0.1902  0.0316
24614W        W40688  15.626  15.334   5.113 -0.1313  0.2317  0.3291
24615W        W40689   1.399   4.511  15.712  0.2643 -0.1191 -0.1680
24616W        W40690   9.543   7.614   6.087 -0.1867 -0.1475  0.0293
24617W        W40691  12.375  16.605   1.717  0.0213  0.2045 -0.1300
24618W        W40692  17.834   4.930   9.835  0.4487 -0.0948  0.0588
24619W        W40693  17.634   3.940   2.541  0.2256  0.0911 -0.0955
24620W        W40694  10.799  17.939   1.124 -0.3788  0.3295 -0.3098
24621W        W40695  11.801  14.039   0.568  0.3142  0.1206 -0.0139
24622W        W40696   6.561  12.995   2.569 -0.0980  0.1244  0.0629
24623W        W40697   5.942   1.058   1.030 -0.1008 -0.0240 -0.1845
24624W        W40698   8.255   3.449   2.637  0.1171 -0.1545 -0.4022
24625W        W40699   8.367  15.135  14.050 -0.3070  0.0401  0.0893
24626W        W40700   1.061   9.529   3.171 -0.1951 -0.0122  0.2834
24627W        W40701   4.895  10.941   0.381  0.0738  0.0472  0.0863
24628W        W40702  14.980  18.143   4.691 -0.3372 -0.0309 -0.0871
24629W        W40703  16.148  11.231  16.157 -0.1300 -0.0876  0.0943
24630W        W40704  13.026   2.657  15.733 -0.1638 -0.0495  0.0125
24631W        W40705  10.587  10.335  15.700 -0.2684  0.2463 -0.0675
24632W        W40706  13.931   6.569  14.329 -0.1409 -0.0027  0.2456
24633W        W40707   0.955  15.611   4.495 -0.3268  0.0817 -0.1035
24634W        W40708   0.012   1.252  12.825  0.0535  0.3100 -0.2559
24635W        W40709  17.626   1.007   5.511  0.3893 -0.1110 -0.2151
24636W        W40710   3.188  10.513  12.922 -0.1579  0.0142 -0.0142
24637W        W40711  15.509  18.140   5.376 -0.0227  0.1418  0.0796
24638W        W40712   6.336  16.852  12.263 -0.0299 -0.2151 -0.0091
24639W        W40713   7.338   0.851  13.833 -0.0620  0.0751  0.1121
24640W        W40714  16.844   1.289   0.322 -0.0723 -0.2004  0.1345
24641W        W40715   5.927  15.842   5.493  0.2585 -0.0073  0.1402
24642W        W40716   9.672   3.714   4.727 -0.1656  0.1042  0.1738
24643W        W40717  10.311   7.351   5.640 -0.0152  0.0120  0.0024
24644W        W40718   3.841  16.606   3.510  0.0684 -0.0584 -0.0588
24645W        W40719   3.354  11.389   0.763 -0.2727  0.0633  0.1483
24646W        W40720   8.189   9.319   3.856 -0.2616  0.0964 -0.0203
24647W        W40721   3.236  17.469   1.231  0.2340 -0.2804  0.0842
24648W        W40722   9.878  17.993  12.270 -0.0223  0.0034  0.1493
24649W        W40723   2.967   2.465   1.774  0.1473 -0.4185  0.3427
24650W        W40724  14.299   1.716   4.027  0.2798  0.0115  0.1962
24651W        W40725   7.342  13.964  15.160  0.4822 -0.2143 -0.0526
24652W        W40726  16.547  13.748   1.233 -0.1417 -0.0295 -0.2764
24653W        W40727  12.415  18.140   4.487  0.1906  0.0694  0.2413
24654W        W40728   9.403  12.398   4.430  0.0565  0.0773  0.1863
24655W        W40729   7.502   3.952   1.060 -0.2214 -0.0047 -0.0682
24656W        W40730  11.991  14.576   4.285 -0.0884  0.0157 -0.0580
24657W        W40731   0.351  17.883  13.095  0.1120  0.1000 -0.0280
24658W        W40732   5.951   1.583   1.131  0.0142  0.0357 -0.0506
24659W        W40733   6.800   6.490   5.034  0.2138  0.0165  0.0913
24660W        W40734   4.242   9.763   0.734 -0.0284  0.0075  0.0854
24661W        W40735  14.600  11.522   1.076 -0.0159  0.0507 -0.0228
24662W        W40736   5.837   8.428   4.667  0.4537  0.1732 -0.3441
24663W        W40737   7.380   7.540  13.062 -0.1132  0.0276 -0.0678
24664W        W40738   6.210   1.011   0.538  0.3202 -0.0558  0.0311
24665W        W40739  14.683   5.802  15.430 -0.0340  0.1713  0.0880
24666W        W40740   1.297   3.137  12.850 -0.0072 -0.0111  0.3086
24667W        W40741   4.921   9.207   1.235 -0.4068 -0.2780  0.2285
24668W        W40742  12.507  16.410   3.670  0.0505  0.2630 -0.0378
24669W        W40743   1.817   0.090   3.415  0.2023  0.1988  0.0211
24670W        W40744   7.325  17.084  12.322  0.0955  0.0941  0.0717
24671W        W40745   0.129   0.901  15.522  0.2507  0.3091  0.0027
24672W        W40746  10.567   9.689   3.956  0.1732 -0.1740  0.1351
24673W        W40747  10.619  10.127  13.268  0.2188 -0.0115  0.1445
24674W        W40748   7.741  17.669   2.531  0.0136 -0.1422  0.3966
24675W        W40749  14.233  17.077   1.266 -0.1596 -0.0968 -0.2652
24676W        W40750   9.820   8.036   5.841 -0.0848  0.0937 -0.0060
24677W        W40751  16.881  14.589  12.558 -0.1183 -0.4011  0.0025
24678W        W40752   0.231   5.459   2.074  0.2779  0.0743  0.4289
24679W        W40753  15.707   3.637   5.474  0.3268  0.0430  0.0921
24680W        W40754   9.847   6.497  11.844 -0.2492  0.0439  0.3198
24681W        W40755   6.117  17.720   4.850  0.0419  0.1919  0.0067
24682W        W40756  18.108  13.743   2.112  0.1677 -0.1421  0.2055
24683W        W40757   0.068  15.619   3.225 -0.0672 -0.2232  0.2454
24684W        W40758   4.418  17.347   4.862 -0.2290  0.1630  0.0505
24685W        W40759   3.632  14.850  12.069 -0.1905  0.0305 -0.4812
24686W        W40760  17.212   8.929   3.438 -0.1189 -0.1365  0.0262
24687W        W40761  17.175   0.915   2.682 -0.1234 -0.0876 -0.2319
24688W        W40762   2.757  17.056   3.684  0.3233 -0.2007 -0.0277
24689W        W40763  14.785  14.504  14.570  0.3549  0.1765 -0.2033
24690W        W40764   4.424  10.447  11.971 -0.0460 -0.0128 -0.2295
24691W        W40765   5.193  16.735   4.812  0.4012 -0.1455  0.1055
24692W        W40766   5.945   5.006   4.049  0.1635  0.0300  0.0515
24693W        W40767   1.552   1.730   1.440 -0.1079  0.2635 -0.1323
24694W        W40768   4.114   4.227   6.055 -0.1084 -0.2898 -0.1211
24695W        W40769  14.862   7.813   4.405  0.1586  0.0286  0.2722
24696W        W40770  11.068  16.079  13.937 -0.1559 -0.2086  0.1296
24697W        W40771  15.737  11.483   4.228 -0.0578 -0.0246 -0.3395
24698W        W40772  16.630  17.790  15.235 -0.0131  0.0316  0.1027
24699W        W40773   0.332   1.642  16.452 -0.1838 -0.1159 -0.1323
24700W        W40774   8.639  11.331   0.408 -0.0797  0.0381  0.0377
24701W        W40775   2.896   6.360   4.946  0.0856  0.0321 -0.1399
24702W        W40776  16.738  15.989  12.816 -0.0145  0.1499  0.2083
24703W        W40777   6.249   8.565   4.353  0.1740 -0.2008  0.1695
24704W        W40778  17.738   1.820   1.332 -0.3402 -0.2221 -0.0437
24705W        W40779  12.835   0.086   1.530 -0.1458  0.1387  0.0531
24706W        W40780  14.130  13.831   2.534  0.0780  0.1898 -0.2743
24707W        W40781   3.776  18.140   5.243 -0.2383  0.0586  0.1194
24708W        W40782  10.724   7.624  16.282 -0.1297  0.3433  0.1619
24709W        W40783  13.974  14.977   5.390 -0.0401 -0.1894 -0.3422
24710W        W40784  13.011   5.726   2.233  0.5044 -0.2305  0.2864
24711W        W40785  11.199   5.066  14.633  0.0840 -0.2699  0.2092
24712W        W40786   0.417   8.949  13.165  0.1226 -0.0910 -0.1473
24713W        W40787  13.331   4.839  14.192 -0.0933  0.3478  0.2258
24714W        W40788  15.910   7.026   1.546 -0.1754 -0.0290 -0.2902
24715W        W40789   2.026  14.381  14.389  0.1436 -0.3980 -0.1596
24716W        W40790  14.816   7.231  16.481  0.2848 -0.0210 -0.1427
24717W        W40791   0.245   7.228   3.919  0.1232 -0.1037  0.0557
24718W        W40792   5.576   9.908   5.673 -0.1427 -0.2597  0.0097
24719W        W40793  14.295  15.543   4.820 -0.1047 -0.2724  0.0332
24720W        W40794   5.717   3.405   3.358 -0.0473 -0.2354 -0.0199
24721W        W40795  15.301   6.089   0.681 -0.1688 -0.1945  0.2520
24722W        W40796  11.285   6.637   2.176 -0.1449 -0.0339  0.0598
24723W        W40797   9.240   7.039  15.362 -0.3169  0.1298  0.1720
24724W        W40798   8.940  12.373  12.570  0.2086  0.2655 -0.0120
24725W        W40799  16.498   6.245   3.349 -0.3357 -0.2061  0.3075
24726W        W40800   5.553  15.247   0.062 -0.0942 -0.0411  0.1221
24727W        W40801  15.704  10.439  11.732  0.0402  0.3498 -0.1723
24728W        W40802   0.775  15.800  12.880  0.0393 -0.0069 -0.1691
24729W        W40803   8.193  18.008   0.232  0.1946  0.1517  0.0663
24730W        W40804   2.680   1.709  14.528  0.0063  0.1023 -0.0297
24731W        W40805   1.292  16.753   4.490 -0.2769  0.0996  0.1019
24732W        W40806  13.982  11.045  15.558 -0.1770  0.2877 -0.0323
24733W        W40807   4.241  13.027   0.612 -0.0471  0.0699 -0.1107
24734W        W40808   7.922   8.888   3.838 -0.0142 -0.1045  0.2841
24735W        W40809   3.631  12.882   1.904 -0.3150 -0.0402 -0.0489
24736W        W40810  15.566   6.375  12.049  0.0883  0.2739  0.2190
24737W        W40811   5.428  15.278   0.925 -0.0107  0.1337  0.1560
24738W        W40812  16.502   5.749  13.450 -0.0156 -0.0756 -0.1116
24739W        W40813   0.714  12.813  16.438 -0.2410  0.0255  0.0555
24740W        W40814  13.688  14.946   2.599 -0.0890 -0.1265 -0.0756
24741W        W40815  18.078  14.385  13.629 -0.3981 -0.1841 -0.5260
24742W        W40816   7.445  10.792   2.000  0.0314  0.0292  0.2199
24743W        W40817  10.468  15.179   5.219  0.0955  0.0219  0.1930
24744W        W40818   8.998  11.001   1.306  0.3772 -0.0125 -0.2227
24745W        W40819  14.999   4.397   1.329 -0.0619  0.2542  0.1769
24746W        W40820   5.668   7.328   2.138 -0.2142  0.4298 -0.2043
24747W        W40821   8.553   2.453   2.237  0.0353  0.2290  0.0257
24748W        W40822  10.008   1.950   3.160 -0.0868  0.0113  0.1184
24749W        W40823  10.426   8.470   4.154 -0.0649 -0.0324 -0.0407
24750W        W40824   1.175   4.055   1.288  0.0261  0.3003  0.0174
24751W        W40825   7.100  15.055   3.119  0.0284  0.3132  0.0968
24752W        W40826  13.125  15.985   1.085 -0.0133  0.1994  0.3176
24753W        W40827   8.315  11.657  12.819  0.1052 -0.1661 -0.0549
24754W        W40828   7.651   6.967   5.127  0.0986  0.2638 -0.1696
24755W        W40829  16.097  16.232  11.799 -0.0894 -0.0403 -0.2608
24756W        W40830   3.933  12.434   5.539  0.0445  0.3212  0.1332
24757W        W40831  17.262  15.065  12.552  0.1675  0.0772 -0.1359
24758W        W40832   5.348   3.134   3.099  0.2202  0.2567  0.1507
24759W        W40833  10.365   8.575   6.398 -0.0380 -0.2024  0.3076
24760W        W40834  17.427   6.839   0.564  0.0475  0.1732  0.0924
24761W        W40835   5.446   7.771  13.628 -0.2122  0.0263 -0.0844
24762W        W40836  12.083   3.881   3.552  0.4211  0.0097 -0.1452
24763W        W40837  17.010   3.040   6.087  0.1260  0.3334  0.2173
24764W        W40838   4.010   9.635  15.101 -0.1742  0.0747 -0.3374
24765W        W40839   5.126  16.884  11.636  0.0792  0.0054 -0.0728
24766W        W40840   5.954   2.674  14.406  0.2088 -0.0168  0.1025
24767W        W40841   8.608  10.532   0.301  0.0846 -0.0166 -0.1126
24768W        W40842  15.707  16.452  13.774 -0.3820 -0.1566  0.1697
24769W        W40843  10.634  15.096   0.286  0.0673  0.0751 -0.0136
24770W        W40844  10.169   7.416  13.563  0.0668 -0.2004  0.1199
24771W        W40845   9.858   9.426  10.467 -0.0736 -0.3714  0.1456
24772W        W40846   9.286  15.240   1.297  0.0004  0.1001  0.2565
24773W        W40847   9.217   9.333  15.078 -0.2389 -0.1260  0.2105
24774W        W40848   7.320   0.936   2.086 -0.2261  0.1664  0.0925
24775W        W40849   8.447   1.199  12.403  0.1281  0.1028 -0.0484
24776W        W40850  11.190   7.018   0.464 -0.2453 -0.2678 -0.1256
24777W        W40851   8.539   6.474  16.346  0.0654  0.1012 -0.1350
24778W        W40852   7.138   2.728   1.013  0.2746 -0.3781 -0.0690
24779W        W40853  15.941   9.559   5.842 -0.2006  0.1662  0.1723
24780W        W40854  12.903  12.327   4.008  0.1016 -0.1554  0.0175
24781W        W40855  11.603  14.249   4.011 -0.1229 -0.1360  0.0313
24782W        W40856   1.399  15.336  10.734 -0.1256  0.3327 -0.0300
24783W        W40857  11.148  11.932   3.836 -0.0810 -0.0447  0.1209
24784W        W40858   7.569  15.068   2.927  0.1910  0.3026  0.0636
24785W        W40859   3.070   8.766   2.122 -0.1485  0.0775  0.1524
24786W        W40860  13.292   9.911   3.300 -0.0843  0.2936 -0.1166
24787W        W40861   5.021   7.410   1.468 -0.1520 -0.0884 -0.1695
24788W        W40862  14.668  17.734   4.681  0.0450  0.2123 -0.0724
24789W        W40863   3.014  11.688  13.781 -0.0922  0.2915  0.0495
24790W        W40864   6.640   7.019  11.834  0.0952 -0.4449 -0.1786
24791W        W40865  11.416   8.621  12.651 -0.2324 -0.0347  0.0104
24792W        W40866   2.941  14.799  14.343 -0.3554  0.0132 -0.1681
24793W        W40867  16.970   2.165  14.585  0.0296 -0.2807  0.1148
24794W        W40868   1.232   2.895   1.402  0.0970 -0.1652 -0.1685
24795W        W40869   8.014   1.941  16.084  0.3871  0.0678  0.2005
24796W        W40870   7.210   4.226  13.412 -0.1528 -0.3396 -0.0395
24797W        W40871   4.614   0.377   1.010  0.1864  0.1682  0.0128
24798W        W40872   4.091   0.470  14.011  0.0644  0.1977 -0.2409
24799W        W40873   4.935  15.668   3.742 -0.1293  0.2514  0.2748
24800W        W40874   1.710  16.317   4.327  0.1972  0.0775 -0.2196
24801W        W40875   9.989   2.381   4.642 -0.0154  0.4224  0.3498
24802W        W40876  13.983   2.026  13.945 -0.0808 -0.0611 -0.0910
24803W        W40877   0.317   1.595  12.412 -0.1485  0.4433  0.3031
24804W        W40878   2.443  11.017   4.003  0.0920 -0.0607 -0.1237
24805W        W40879  17.628   8.042   1.898 -0.1380 -0.0704 -0.0837
24806W        W40880  16.099  17.057   3.112  0.3583 -0.1013 -0.1451
24807W        W40881   2.760   9.229   4.386 -0.0242 -0.2106  0.0276
24808W        W40882   9.217   9.716   6.254 -0.1323 -0.0190 -0.0220
24809W        W40883   0.418  15.947  15.664  0.0312 -0.1935  0.1213
24810W        W40884   3.260   7.189  14.641 -0.2096  0.1778  0.2749
24811W        W40885  17.795  11.264  16.059 -0.0474 -0.1390 -0.2318
24812W        W40886   9.730  18.138  14.526  0.0081  0.2300  0.0492
24813W        W40887   7.216   7.090   4.234  0.2285  0.0863 -0.4785
24814W        W40888  12.371   2.733  11.798 -0.1502 -0.0845 -0.1197
24815W        W40889   7.247   6.138   4.567 -0.2025  0.1897  0.3059
24816W        W40890   1.158   1.597   0.206  0.1516 -0.3212 -0.2010
24817W        W40891   5.311   6.100   3.602 -0.1320 -0.0722 -0.0269
24818W        W40892   1.342   8.454  14.797  0.3021  0.1509 -0.3896
24819W        W40893  15.460   4.054  14.923 -0.2119  0.3681 -0.1668
24820W        W40894  15.103   2.047   1.667  0.1180  0.1347  0.2388
24821W        W40895  10.970  18.005  16.076 -0.0640  0.1001 -0.0167
24822W        W40896  11.170   6.484  14.578  0.4053 -0.1176 -0.1567
24823W        W40897   4.441   2.776  12.411  0.0575 -0.1396  0.2213
24824W        W40898   6.394   2.516  14.519  0.0601 -0.4119  0.1980
24825W        W40899   2.076   3.733  15.556  0.2300 -0.0608  0.0391
24826W        W40900   0.290  17.901  14.029  0.1074  0.3410 -0.0970
24827W        W40901   2.817  10.260  11.158  0.1173 -0.3068 -0.1712
24828W        W40902  10.618   8.646   5.977 -0.1498 -0.0633  0.0308
24829W        W40903   7.985   4.471  16.360  0.2642  0.1695 -0.2396
24830W        W40904   3.803  10.338  15.620  0.0161  0.0148  0.2274
24831W        W40905   7.335   7.861  14.654 -0.1015  0.3464  0.2236
24832W        W40906   3.321  15.580  14.116  0.0145  0.2125  0.0017
24833W        W40907   0.900  16.915   4.058  0.0937  0.0147 -0.1478
24834W        W40908   6.109  17.751  13.534 -0.2883  0.1328 -0.2524
24835W        W40909  10.276  17.854   1.906  0.2439  0.1181 -0.0637
24836W        W40910  15.117   9.479  16.515  0.0288  0.0949 -0.2794
24837W        W40911  17.102   2.678   1.244  0.3915 -0.3129 -0.0068
24838W        W40912  12.066   3.479  14.280  0.4381 -0.1425 -0.0193
24839W        W40913  16.481   6.638  16.515 -0.0479 -0.0168  0.0613
24840W        W40914  12.337   5.827  13.935 -0.1657 -0.1855  0.1667
24841W        W40915  15.459  12.669  13.202 -0.3365  0.0438 -0.0914
24842W        W40916   5.371   8.470   0.009 -0.0467  0.0406  0.0330
24843W        W40917   0.284   1.875   2.028 -0.0170 -0.0217 -0.0619
24844W        W40918   1.426  15.654   3.586 -0.3565 -0.0644  0.4543
24845W        W40919   1.167  13.438  13.116  0.0320  0.1264 -0.0612
24846W        W40920   2.053  12.031  16.145  0.0495 -0.0343  0.0727
24847W        W40921   9.535  13.080  12.173 -0.3699 -0.1880  0.1480
24848W        W40922   3.244  15.404   4.790  0.1830  0.0556  0.1185
24849W        W40923   0.568   8.205   4.342  0.2992  0.1148  0.1174
24850W        W40924   2.543  12.091   0.463 -0.0720 -0.1219  0.2065
24851W        W40925  16.594   3.295  11.707 -0.1067  0.2933  0.1176
24852W        W40926  10.509   8.230   5.119  0.1680  0.1027  0.1452
24853W        W40927   7.963  17.018  15.004  0.3331 -0.0234  0.0775
24854W        W40928   0.280   7.566   1.176  0.1975 -0.0488 -0.0596
24855W        W40929  16.172   1.350   5.210 -0.1135  0.0868 -0.2493
24856W        W40930   2.457   2.158   4.685 -0.0574 -0.0498  0.0517
24857W        W40931   2.930   4.111  15.162  0.2148  0.0036  0.0340
24858W        W40932   9.212   6.111  15.082 -0.1283  0.0962  0.2119
24859W        W40933  12.625   8.016  13.361 -0.0964 -0.2123  0.2118
24860W        W40934  10.254  13.888   1.673  0.0643  0.0412 -0.0613
24861W        W40935   3.529  12.475   5.159 -0.1445 -0.1747  0.0388
24862W        W40936   7.451  15.693  15.957  0.1613 -0.3281 -0.0883
24863W        W40937   5.272   4.766   5.335  0.4229 -0.2608 -0.0987
24864W        W40938  13.896  13.257   2.785 -0.0670  0.1881  0.1316
24865W        W40939  15.948  12.566  15.817  0.0915  0.2379 -0.2268
24866W        W40940  11.497  15.855  15.940  0.2471 -0.1460 -0.0623
24867W        W40941  11.806   6.954   0.497  0.0560  0.1527 -0.1944
24868W        W40942  10.539   7.903   0.556 -0.0288 -0.0477 -0.2982
24869W        W40943   8.590  17.445  14.139 -0.1789  0.0089  0.1011
24870W        W40944  15.668  18.210   0.966 -0.1709 -0.1423 -0.0552
24871W        W40945   4.103   6.525  11.812  0.2617 -0.4740  0.2270
24872W        W40946   6.990  10.664  13.531  0.3436  0.0414  0.1183
24873W        W40947  11.508   5.683  11.713 -0.1932  0.2346 -0.0277
24874W        W40948  12.713   4.188   4.682  0.0773 -0.4795  0.0636
24875W        W40949   7.069   8.326  16.491 -0.1866  0.3355  0.1031
24876W        W40950   0.301  15.970  13.157 -0.0442  0.1145 -0.0227
24877W        W40951  12.096  12.291  14.923  0.0692 -0.0491 -0.0809
24878W        W40952   9.984   5.110  16.507  0.3280 -0.0781  0.3231
24879W        W40953   8.107  10.021  13.172 -0.2229 -0.2319  0.1286
24880W        W40954  11.943   6.221   3.520  0.1110  0.0456 -0.1146
24881W        W40955   3.098   7.776   0.350  0.1236 -0.0620  0.1934
24882W        W40956   8.101  15.961  16.157  0.1026 -0.0600  0.1397
24883W        W40957  16.397  17.979   4.032 -0.2314  0.1113 -0.0607
24884W        W40958   2.286   3.777  13.313 -0.0807 -0.0851  0.1841
24885W        W40959  12.636  11.603  15.310 -0.0248  0.0660 -0.1396
24886W        W40960   1.773   7.088  11.301 -0.2432 -0.0235 -0.0537
24887W        W40961  13.055  17.857   2.273  0.1655  0.0644  0.0261
24888W        W40962   5.629  10.994   0.387 -0.4558 -0.2477  0.1138
24889W        W40963   4.216   7.070   1.022  0.1305 -0.1832 -0.1746
24890W        W40964  16.252   9.599   1.332 -0.1414 -0.0308 -0.0132
24891W        W40965   9.118  16.822   0.795  0.1470 -0.1942  0.2026
24892W        W40966  11.902  13.055   2.031  0.0232  0.2702 -0.1796
24893W        W40967  11.884  15.866   6.244 -0.0709  0.0118  0.0448
24894W        W40968  15.809  17.802   4.914 -0.2442 -0.1368 -0.2113
24895W        W40969  11.306  16.419  12.112 -0.0677  0.3933  0.0010
24896W        W40970  13.244  13.781   0.015 -0.2382  0.0551  0.2813
24897W        W40971   5.146  11.433  14.765 -0.0384  0.1342  0.1980
24898W        W40972   7.534  16.434  12.226  0.2493  0.0426  0.1581
24899W        W40973  10.428   5.461  14.516  0.2811  0.0101 -0.1586
24900W        W40974  11.182  14.414  14.298  0.1797 -0.1351 -0.1475
24901W        W40975  11.036   2.550   6.059  0.0206  0.1916 -0.0418
24902W        W40976   5.997  10.060   5.387  0.2236  0.4496  0.0870
24903W        W40977  16.719  17.994   4.429  0.1193 -0.0202  0.1401
24904W        W40978  17.161  15.180   2.781 -0.0324 -0.0543 -0.0275
24905W        W40979   5.534   8.008   0.863  0.1766  0.0156  0.0129
24906W        W40980  18.134   2.217   5.258  0.0259 -0.0916 -0.0706
24907W        W40981   2.148   8.639   3.276  0.2174  0.0654 -0.0445
24908W        W40982   2.854   9.222  15.654  0.0850  0.0608 -0.1828
24909W        W40983   0.785   4.837   2.358 -0.2265  0.0761 -0.1099
24910W        W40984   0.637   0.818   5.632  0.0164  0.0592  0.2976
24911W        W40985  14.941  16.266  13.449 -0.1486 -0.1167 -0.1064
24912W        W40986  17.098  15.696   1.249  0.0598  0.0530 -0.1268
24913W        W40987   3.752  17.258  12.723  0.0182 -0.0233  0.3369
24914W        W40988   1.703  11.368  15.183  0.0962  0.2786 -0.0319
24915W        W40989  14.511   9.488  12.612  0.0911 -0.0787 -0.2840
24916W        W40990   2.217   3.446   2.484  0.2316 -0.1584  0.4644
24917W        W40991   0.852   2.024   3.295  0.1893  0.1856 -0.1287
24918W        W40992  11.196   7.090   3.000  0.1247  0.2819  0.1567
24919W        W40993   2.578   9.684   1.264  0.2160 -0.3071  0.4272
24920W        W40994  15.071  14.447   1.123  0.1666  0.0385  0.1524
24921W        W40995  13.319  13.180  12.718  0.1956 -0.0189  0.2245
24922W        W40996  13.356  17.868  14.738  0.1155 -0.0462 -0.2484
24923W        W40997   2.167  17.813  10.320  0.1090 -0.3524  0.1305
24924W        W40998  13.852   0.883  16.355  0.2802  0.0035 -0.1207
24925W        W40999  12.309   1.082   4.547 -0.0808 -0.1892 -0.0430
24926W        W41000  10.541   6.752   2.620  0.0558  0.2697 -0.0548
24927W        W41001  15.619  13.375   3.277 -0.3258 -0.2350  0.1352
24928W        W41002  11.284  10.754   5.250  0.1504 -0.1158 -0.2012
24929W        W41003   9.163  12.925  15.033 -0.2183 -0.4534  0.1529
24930W        W41004   0.653   0.825  11.566  0.0122  0.3655  0.0210
24931W        W41005   7.312  15.675   5.737  0.0030  0.2170  0.1554
24932W        W41006   3.282  14.017  13.723 -0.0110  0.3930  0.2004
24933W        W41007  13.461  15.356   5.809  0.1254 -0.2383 -0.0645
24934W        W41008   5.224  16.188  13.296  0.1639  0.1813 -0.0355
24935W        W41009   3.349  12.391  15.317 -0.0793  0.0863 -0.0905
24936W        W41010   7.327  17.591  14.130  0.2903 -0.3090 -0.0596
24937W        W41011   9.010   1.214   1.205 -0.1836 -0.1423 -0.1577
24938W        W41012  16.826  10.760  14.268 -0.0276  0.3343 -0.1059
24939W        W41013   5.125  17.599   2.893 -0.0397 -0.0193 -0.0791
24940W        W41014  12.503   6.441   4.909 -0.1770  0.0907  0.2121
24941W        W41015   6.438  15.528   1.998 -0.1171 -0.1858  0.3267
24942W        W41016   3.332   7.061   3.251 -0.1341 -0.3018 -0.1752
24943W        W41017   5.074   6.457   5.956  0.0458 -0.2161 -0.3650
24944W        W41018   1.532  13.304  11.243  0.1389 -0.0393 -0.1627
24945W        W41019   6.050   4.203  12.576 -0.1119 -0.4341  0.1952
24946W        W41020   2.933   7.938  13.019 -0.0604 -0.3133  0.2138
24947W        W41021   3.658   0.665   3.858 -0.0464 -0.1966  0.0515
24948W        W41022   1.603   8.243   3.896  0.0852 -0.1084 -0.1900
24949W        W41023   2.295   3.273   1.976 -0.4016  0.2165 -0.1521
24950W        W41024  16.097   1.891  15.212 -0.0368 -0.1406  0.3210
24951W        W41025  12.892   2.064  13.531 -0.0039  0.0987 -0.4032
24952W        W41026  17.221  15.413  16.072  0.4218  0.3580  0.2897
24953W        W41027   3.525   6.163   2.014  0.4799  0.2175  0.0132
24954W        W41028  14.425  10.470   4.507  0.3509  0.1894  0.1843
24955W        W41029  14.122  17.919   2.835 -0.2497  0.2006 -0.3653
24956W        W41030  12.558  10.044  12.183 -0.0873 -0.0881 -0.1676
24957W        W41031  15.136  17.120  13.344 -0.0774  0.0882  0.2492
24958W        W41032   9.723   6.295   0.102 -0.0532 -0.4516  0.0064
24959W        W41033   8.272  11.776   3.584 -0.1673  0.2910 -0.2746
24960W        W41034  18.009  12.724   0.527  0.0591  0.0500 -0.3225
24961W        W41035   6.848   1.627  11.778  0.0108  0.1427  0.1095
24962W        W41036   9.230   5.032  16.450  0.1706  0.1410 -0.1238
24963W        W41037   0.132   9.108   4.173  0.2879  0.0153 -0.2803
24964W        W41038  13.835  18.048  14.777 -0.0596  0.1138  0.2258
24965W        W41039  10.117  15.284   5.562 -0.1346 -0.2818 -0.1979
24966W        W41040  12.076   1.815  14.677 -0.0327  0.0019  0.0647
24967W        W41041  16.807  16.302  10.455 -0.1425  0.2352 -0.2774
24968W        W41042   9.705   6.348   6.002  0.0314  0.1043  0.1481
24969W        W41043   0.291  11.454   4.738 -0.0235  0.1431 -0.2342
24970W        W41044   7.808  12.592   5.519 -0.0825  0.1629 -0.1030
24971W        W41045   7.808   2.070  14.703 -0.2743  0.0990  0.0652
24972W        W41046  10.957   3.734   2.972 -0.2258 -0.1098  0.0321
24973W        W41047  18.131  11.925   2.008  0.3551  0.2097 -0.2872
24974W        W41048   7.320   7.297   2.177 -0.4573  0.0023  0.0699
24975W        W41049   8.029  10.296   0.976  0.2107  0.2648  0.0118
24976W        W41050   3.979  10.947   0.128 -0.1073 -0.1169  0.0860
24977W        W41051  16.815   9.351  15.205  0.0259  0.0767 -0.0848
24978W        W41052   9.595   6.455  14.604  0.1391 -0.2662 -0.0431
24979W        W41053   8.216   7.620  14.544  0.2634 -0.0083  0.0985
24980W        W41054   4.217   3.736   6.252 -0.1401  0.0176 -0.0012
24981W        W41055   3.214  17.313  14.671  0.3459  0.3125 -0.2609
24982W        W41056  18.143   0.590   4.919 -0.1547  0.4066 -0.0896
24983W        W41057  15.205   0.468  14.561  0.0044 -0.0069  0.1715
24984W        W41058   1.924  17.725   1.813 -0.0149  0.2553  0.0970
24985W        W41059  10.470  14.941   1.702 -0.1522  0.6656  0.2195
24986W        W41060  17.727   1.449  16.461  0.0697 -0.1490  0.2345
24987W        W41061  12.110  17.792  15.467 -0.1255 -0.0503 -0.0607
24988W        W41062  15.327  14.945  11.883  0.0330 -0.0485  0.1357
24989W        W41063   6.109   0.063  13.798  0.0074 -0.0530  0.2166
24990W        W41064   8.447  16.274   2.621  0.1596  0.1954 -0.0977
24991W        W41065   9.367  17.314  13.273 -0.0327 -0.2330  0.0043
24992W        W41066  14.128  13.071   0.592  0.1323  0.1310 -0.0103
24993W        W41067   0.030   6.319  16.253 -0.1538  0.0528  0.1309
24994W        W41068   6.069  15.389  16.127  0.3194 -0.3197 -0.0521
24995W        W41069   8.896   5.600   2.481  0.0420 -0.0902 -0.0775
24996W        W41070  12.422   3.281   3.792 -0.2900  0.2041  0.1125
24997W        W41071   8.498  13.956   1.617  0.1130 -0.0129 -0.0876
24998W        W41072  15.071   4.798   1.630  0.1318 -0.0558 -0.1731
24999W        W41073   1.687   7.100  12.782  0.2071  0.0535  0.1879
25000W        W41074   9.949  15.546   2.687  0.0722  0.0410  0.0515
25001W        W41075  16.065   6.529   3.024 -0.2379  0.0599  0.2338
25002W        W41076   7.562   4.026  13.745  0.1772 -0.1100 -0.2338
25003W        W41077  10.066   8.042   5.371 -0.1819  0.1137 -0.2712
25004W        W41078   7.995   5.315   2.007 -0.0096  0.2253 -0.0271
25005W        W41079   4.207   3.383   2.132 -0.2070 -0.2065  0.2325
25006W        W41080   8.652  14.605  11.023  0.0801 -0.1122  0.0034
25007W        W41081   6.851   8.111   2.388  0.3287 -0.0789 -0.1596
25008W        W41082   8.942   6.593   0.986 -0.2789 -0.0477 -0.2491
25009W        W41083  12.135   6.854   5.158 -0.3206  0.0604  0.1860
25010W        W41084   4.698  12.472   4.374 -0.0508 -0.0223  0.0565
25011W        W41085  13.401  10.698   1.598  0.2803  0.2755 -0.1469
25012W        W41086   0.840  11.370   2.171 -0.0115 -0.0800 -0.1351
25013W        W41087   6.561  14.064  16.452 -0.0139 -0.0705 -0.1182
25014W        W41088  12.455   2.236   2.845  0.5977  0.0394  0.4144
25015W        W41089   6.278  10.012  13.513  0.1965  0.0115 -0.1273
25016W        W41090   1.295  11.791  11.587 -0.1299 -0.3416 -0.0805
25017W        W41091  14.340   7.284   4.871  0.0587 -0.2494  0.1671
25018W        W41092  12.295   5.039  16.381  0.3392 -0.0881  0.2083
25019W        W41093   8.881   3.999   1.107 -0.0923 -0.0949  0.0187
25020W        W41094  16.986   3.843   0.657 -0.1008  0.0444  0.2699
25021W        W41095   6.064   4.145   4.240 -0.2348  0.0857 -0.2015
25022W        W41096  17.804   8.054   4.978 -0.2327 -0.1907 -0.0378
25023W        W41097  15.856   3.542  16.476  0.1923  0.0882  0.2580
25024W        W41098   3.228   3.127  16.148  0.2371 -0.0848 -0.1640
25025W        W41099   1.493  15.149  16.521  0.1651 -0.6016  0.4260
25026W        W41100   2.186   3.869  11.615  0.0262 -0.0857 -0.1349
25027W        W41101  16.453  13.022  11.882 -0.1000  0.1221 -0.3239
25028W        W41102   3.645   3.561  12.917 -0.0708  0.0205 -0.2279
25029W        W41103   6.516  15.411  14.782 -0.1634  0.0007  0.1017
25030W        W41104  11.433   4.558  12.656 -0.2676 -0.1873  0.1884
25031W        W41105  12.060   8.003  11.430  0.2012 -0.2011 -0.0276
25032W        W41106   1.013   0.559  14.652 -0.1393  0.1417 -0.3144
25033W        W41107  15.995  11.219  11.531  0.3365 -0.1009  0.2211
25034W        W41108   3.642  17.753   1.642  0.0132 -0.0589  0.0694
25035W        W41109   3.801  11.342   1.969  0.0855 -0.2661 -0.1568
25036W        W41110  15.719  10.475  13.511  0.1551  0.0387  0.0771
25037W        W41111   3.276   2.056   4.468 -0.2311 -0.1914 -0.0934
25038W        W41112   5.568   7.911   4.363  0.0233 -0.2173 -0.0551
25039W        W41113   7.779   0.832  13.172 -0.0500 -0.1206  0.0090
25040W        W41114  13.137   8.755   3.666 -0.0131 -0.0630 -0.0764
25041W        W41115   6.781   4.366  12.215 -0.2241  0.0811 -0.0830
25042W        W41116   3.549  13.955   4.522 -0.0541  0.2689 -0.0200
25043W        W41117  11.319  16.219  14.556 -0.0548 -0.0528  0.1247
25044W        W41118   8.855  10.973   6.468  0.0641 -0.1147 -0.1839
25045W        W41119   9.260   1.977   4.278  0.0108  0.2058  0.0899
25046W        W41120  11.351  13.018  14.266 -0.0317  0.1685 -0.5446
25047W        W41121  14.307   8.100   2.922  0.1551  0.0594  0.0160
25048W        W41122  13.408   1.920  16.490  0.1194  0.0037  0.1384
25049W        W41123  15.968   8.080   2.250 -0.1069 -0.0752 -0.3472
25050W        W41124   5.507   5.194   1.814  0.0591  0.1484 -0.2720
25051W        W41125  13.109   5.070   0.088 -0.2025 -0.1528  0.2932
25052W        W41126  10.481   5.607   6.172 -0.0829 -0.0865 -0.1060
25053W        W41127   4.071  13.277   3.428 -0.1209  0.1370  0.0141
25054W        W41128   2.281  15.398   4.152  0.1636  0.4041 -0.1794
25055W        W41129  16.237  17.930  10.981  0.1788  0.0894  0.3275
25056W        W41130  12.521  11.901   5.830  0.1266 -0.0016  0.0547
25057W        W41131  16.454  11.637  13.989 -0.3849  0.0301  0.1403
25058W        W41132   2.616   2.107   5.186  0.0863  0.1092 -0.3252
25059W        W41133   6.876   3.407   3.622 -0.4770 -0.1327  0.2626
25060W        W41134  16.090  16.534   4.510 -0.2126  0.1358 -0.1244
25061W        W41135  16.197   8.363   5.224 -0.3239  0.0082 -0.0143
25062W        W41136   6.850   1.070  14.601 -0.2997 -0.3500 -0.1963
25063W        W41137   1.381   0.937   3.709  0.0965  0.1377  0.1595
25064W        W41138   9.042   1.819  13.921 -0.0220  0.7205 -0.2471
25065W        W41139  17.338   5.967   1.474  0.1511 -0.2380  0.1778
25066W        W41140   0.032  12.837  12.429  0.0237  0.0024  0.0493
25067W        W41141   9.749  17.946   1.792  0.0452  0.1973  0.0399
25068W        W41142  17.644  11.994   2.156 -0.1292 -0.0717  0.1646
25069W        W41143   6.883   6.433  15.770  0.1162 -0.0623 -0.2445
25070W        W41144   8.114  17.034   0.043 -0.1470  0.1017 -0.3282
25071W        W41145   9.967   7.805  11.917 -0.2163 -0.0396 -0.3113
25072W        W41146  13.814   2.351  12.336  0.1761 -0.0891 -0.4574
25073W        W41147   9.966   9.349   2.646 -0.3557 -0.0578  0.2861
25074W        W41148   5.482  13.653   1.055  0.0205 -0.0159  0.2181
25075W        W41149  10.385   3.045   3.561 -0.2503 -0.1108 -0.2202
25076W        W41150   3.317   7.571  15.400 -0.2987  0.0867  0.1419
25077W        W41151   1.266  16.166   5.037 -0.0686 -0.0384 -0.1947
25078W        W41152   8.336   9.741   0.313 -0.0954  0.1401  0.1068
25079W        W41153   8.404  16.988  13.919  0.0191 -0.1706 -0.0833
25080W        W41154   1.682  15.999  12.047 -0.1057  0.1638  0.0398
25081W        W41155  14.418   8.832  13.288  0.0198 -0.2802 -0.1684
25082W        W41156   5.710  10.249   3.228  0.2044 -0.0948 -0.1923
25083W        W41157   7.758  11.708   1.016  0.3464 -0.0347 -0.2900
25084W        W41158   9.305   9.455  13.596 -0.0561  0.2304 -0.0059
25085W        W41159   7.233   2.765  13.763  0.3200  0.0193 -0.1866
25086W        W41160  17.505   3.405   2.392  0.2094  0.3401  0.4460
25087W        W41161  17.980   4.609  16.528  0.0334  0.3516 -0.1180
25088W        W41162   3.137   4.327   4.869  0.2012  0.2642  0.0351
25089W        W41163  15.732  14.707  11.921 -0.0930  0.2718 -0.2025
25090W        W41164   9.658  15.608   1.548 -0.0035  0.1012 -0.0285
25091W        W41165  17.232  17.894  15.925 -0.0773 -0.0193 -0.0788
25092W        W41166  10.454  10.014   5.610 -0.3200  0.3840 -0.2177
25093W        W41167   3.198   0.306   4.020  0.0063 -0.0561  0.3984
25094W        W41168  17.703  11.297  11.980  0.0558  0.1202 -0.1383
25095W        W41169  11.271  10.892   4.203  0.1310 -0.0923  0.1084
25096W        W41170  11.050  14.909   1.817 -0.1344  0.2921  0.0489
25097W        W41171  13.157   4.960  12.692  0.3490 -0.0149 -0.0760
25098W        W41172   1.883   1.061  16.244 -0.0875 -0.1471 -0.0367
25099W        W41173   9.781  16.190  12.733 -0.1710  0.1334  0.0828
25100W        W41174  18.136  11.077  12.144 -0.2467 -0.2490 -0.1896
25101W        W41175   3.677  11.664   5.096  0.1969 -0.4871 -0.0351
25102W        W41176   2.752  14.833  11.192 -0.0330  0.0468 -0.0028
25103W        W41177   9.495  10.027  11.339  0.0883 -0.0722 -0.1404
25104W        W41178   3.624   3.081  12.609  0.0764 -0.1436  0.0492
25105W        W41179   7.582   9.358  16.426  0.2400 -0.1358  0.1415
25106W        W41180   4.478  15.013   4.063  0.1415 -0.1195  0.3339
25107W        W41181  15.431  17.070  15.229  0.0816  0.0129 -0.2556
25108W        W41182   1.488   5.465   2.920  0.2383  0.1354  0.0192
25109W        W41183  11.312   0.887  12.962 -0.3617  0.2592  0.1697
25110W        W41184  14.894   0.179  13.293  0.2438  0.0774  0.1262
25111W        W41185   3.799  12.891   5.311  0.1481  0.0356 -0.2449
25112W        W41186   3.931  15.081  13.375  0.0085  0.2809  0.0024
25113W        W41187  14.830   8.397   2.045 -0.1043  0.0953  0.3136
25114W        W41188  15.197   8.091  14.581  0.2173  0.0856 -0.0567
25115W        W41189  17.698  12.835   2.781  0.1363  0.0421  0.0674
25116W        W41190  10.638  11.771  13.652  0.0027  0.2259  0.2283
25117W        W41191   3.818   5.007   1.976  0.0259  0.2008  0.1986
25118W        W41192  13.514  11.826   3.372 -0.0430 -0.1870  0.0288
25119W        W41193  16.464  10.488   5.075  0.0416 -0.0828 -0.1877
25120W        W41194  12.135   9.575  15.101 -0.0021  0.1794  0.2168
25121W        W41195  12.922   6.880   1.050  0.0351  0.1763  0.1514
25122W        W41196  12.811  11.342   2.245 -0.1167  0.2502 -0.0586
25123W        W41197  13.628   2.646  16.389 -0.0497  0.1724 -0.2200
25124W        W41198   5.085   5.219  16.180  0.0146 -0.2677 -0.2359
25125W        W41199   6.753   8.013   4.735 -0.2513  0.0846  0.1407
25126W        W41200   4.689  18.097   2.861 -0.4306  0.1917 -0.0136
25127W        W41201  12.798  15.675   4.770  0.0119  0.0642 -0.0402
25128W        W41202   2.485  12.152  16.509  0.2152  0.0381 -0.1123
25129W        W41203   3.302   4.898  10.384 -0.2705  0.0339  0.1575
25130W        W41204   6.177   5.542  11.161 -0.1721  0.0867  0.2644
25131W        W41205   2.851  10.268   5.079  0.0316  0.0816  0.1948
25132W        W41206   2.011  16.604   3.959  0.1778 -0.1400  0.1404
25133W        W41207  13.463  14.008   2.702  0.1813 -0.1730  0.0812
25134W        W41208  11.663  12.017  12.140 -0.0812 -0.0439 -0.0754
25135W        W41209  11.298  16.308  15.340  0.0487  0.0982  0.0188
25136W        W41210   8.240   0.471   2.032 -0.0536 -0.2483  0.2386
25137W        W41211  11.604   9.943   1.536  0.1711  0.0863 -0.0948
25138W        W41212  10.603  10.043  15.149 -0.1427  0.3044 -0.2529
25139W        W41213   2.396  14.255  13.742  0.1852 -0.2310 -0.0425
25140W        W41214   7.082   5.127  14.083  0.0875  0.2476  0.0295
25141W        W41215   5.575  11.507   0.121  0.1431 -0.1051  0.2836
25142W        W41216  16.211  17.544  11.355  0.1951  0.1018 -0.1154
25143W        W41217  11.081  12.767   5.111 -0.2379 -0.0497 -0.4074
25144W        W41218   8.660  11.657  15.636  0.0428  0.2254  0.0778
25145W        W41219  15.518   8.067   3.670 -0.1615  0.0349 -0.0788
25146W        W41220  17.547  11.037   0.099 -0.1323 -0.0369  0.0331
25147W        W41221   4.576   4.541   0.332 -0.1507  0.0607  0.1076
25148W        W41222   1.240  11.899  14.475  0.3559  0.0026  0.0232
25149W        W41223  15.896  13.278   0.225  0.0254  0.0398  0.2172
25150W        W41224   6.180   7.255   4.072  0.1412 -0.1380  0.0313
25151W        W41225   5.403  14.342  13.944  0.1265 -0.2074 -0.1547
25152W        W41226  15.906  13.083   1.211  0.2689  0.0373  0.1500
25153W        W41227  18.093  10.719   6.045 -0.4484 -0.3779  0.3040
25154W        W41228   8.575   4.491  11.957  0.1226 -0.6529 -0.0851
25155W        W41229   6.120  10.108   0.930  0.1680  0.2408  0.4215
25156W        W41230  10.492  17.248   5.279 -0.1776 -0.2003 -0.0223
25157W        W41231   5.998   0.580  15.701 -0.4680  0.1779 -0.0321
25158W        W41232  13.937  16.725  13.006 -0.0299 -0.2558  0.1581
25159W        W41233  16.777   7.206   2.586 -0.1276  0.0317 -0.1837
25160W        W41234   5.753   9.849   2.148 -0.1837  0.0236  0.1169
25161W        W41235   5.596   5.090  15.806 -0.2288  0.1848  0.2485
25162W        W41236   7.292   9.191   5.629  0.1458  0.0011 -0.2718
25163W        W41237   0.171  16.904   5.485  0.0464  0.2134  0.0821
25164W        W41238  11.331   9.956  13.835 -0.0786 -0.0134  0.0610
25165W        W41239  12.281  10.436   1.304 -0.0870  0.1902 -0.3368
25166W        W41240  16.077  12.350   4.574 -0.3329 -0.1726 -0.1846
25167W        W41241   3.387   7.990  15.138 -0.1131  0.0719 -0.1023
25168W        W41242   4.217   2.441  13.769  0.1003  0.2401  0.3078
25169W        W41243   1.368   3.717  12.827  0.1335 -0.0400  0.1185
25170W        W41244  17.065  12.076   4.661  0.0248 -0.1319  0.0742
25171W        W41245   6.194   0.951  12.272 -0.3022  0.0616 -0.0321
25172W        W41246  10.705  10.598   2.309 -0.0090 -0.0227 -0.0083
25173W        W41247  12.673   0.499   1.924  0.0642 -0.1537 -0.0149
25174W        W41248   2.178  11.425  11.021  0.2812 -0.1000  0.0689
25175W        W41249   8.813  14.493   4.115 -0.0694 -0.2406 -0.1433
25176W        W41250   5.606   8.767   3.235 -0.2075  0.1461  0.0226
25177W        W41251   7.160   5.750   5.456 -0.2134 -0.0476 -0.3640
25178W        W41252  15.815   5.157   5.597  0.0979  0.3111 -0.1331
25179W        W41253  13.739  12.169  15.779  0.0277 -0.0116  0.2251
25180W        W41254  12.714   0.703  14.968 -0.1754  0.0252  0.1667
25181W        W41255   3.291   2.736  13.430  0.2122 -0.1990  0.0763
25182W        W41256   2.322   1.727  15.121 -0.0114  0.2074 -0.0717
25183W        W41257   4.746   9.907   4.042  0.1293  0.2185 -0.2138
25184W        W41258   7.528  10.768  14.963 -0.0970  0.1727 -0.1580
25185W        W41259   3.524  17.663  11.789  0.2902 -0.1122 -0.1795
25186W        W41260  13.991  10.193  11.552 -0.0188 -0.2129 -0.3085
25187W        W41261   7.931   1.020   0.192  0.1786 -0.0271  0.0871
25188W        W41262  16.665  11.425  14.479  0.0716  0.1467  0.0515
25189W        W41263  14.316   7.622  14.284  0.0853 -0.2441  0.1773
25190W        W41264  18.019   6.212   1.182  0.1029  0.0787 -0.2169
25191W        W41265   0.578  12.621   3.933 -0.1638  0.0930 -0.1966
25192W        W41266  12.864   8.718   3.037 -0.0428  0.0852  0.0797
25193W        W41267  11.704  13.205   0.765 -0.1584 -0.2033 -0.1802
25194W        W41268  13.511   5.604   5.517  0.4059  0.0240 -0.0385
25195W        W41269   1.826  16.123  14.778  0.1057  0.0928 -0.2664
25196W        W41270   5.879   5.700  16.381 -0.0795 -0.1061  0.1662
25197W        W41271   5.951   6.298  15.761 -0.0380  0.0331  0.0210
25198W        W41272  12.765   7.616   2.800 -0.1959  0.2119  0.1399
25199W        W41273  10.243   2.883   5.413  0.0910 -0.0357 -0.1389
25200W        W41274   8.481  14.147   3.372 -0.0602 -0.0700  0.1262
25201W        W41275   0.700   9.430   1.775  0.2182 -0.0004 -0.2110
25202W        W41276  14.094   2.456   2.589 -0.1246 -0.3082 -0.2800
25203W        W41277  11.480   7.622  12.422 -0.5262  0.1161  0.2431
25204W        W41278   6.677  17.758   3.979 -0.6077  0.1451  0.0665
25205W        W41279   0.410  11.849   5.087  0.3930 -0.0390 -0.2457
25206W        W41280   8.044   4.739   2.114 -0.2121  0.1432 -0.0285
25207W        W41281  10.503   5.820  15.286  0.3403 -0.1535  0.0895
25208W        W41282  14.665  13.629  13.655 -0.4631  0.1258 -0.0997
25209W        W41283  16.211   7.133   0.193 -0.0941  0.0485 -0.0168
25210W        W41284  15.490   2.382  15.938 -0.3751 -0.0881 -0.1346
25211W        W41285   5.699   8.500   2.657 -0.2354 -0.2551 -0.2281
25212W        W41286  11.190  16.570  14.034 -0.1821  0.1323 -0.1843
25213W        W41287   6.506   9.382  12.166 -0.0578  0.1508  0.2489
25214W        W41288  17.165   2.797  15.978 -0.0914 -0.3360 -0.1207
25215W        W41289  12.169   1.848  13.825 -0.0416 -0.0367 -0.0307
25216W        W41290   0.684  14.752   4.308  0.1057  0.1492  0.4022
25217W        W41291  10.294   0.366   3.749 -0.0959  0.1260 -0.0605
25218W        W41292   2.308  11.612   5.466  0.0996  0.0227  0.1121
25219W        W41293   1.763   0.466  12.417 -0.0736  0.3361  0.1282
25220W        W41294  15.138   9.857  16.170 -0.0278  0.2623  0.3093
25221W        W41295   5.483   6.935   3.542 -0.1043  0.1070  0.1854
25222W        W41296   2.048  14.983  15.166  0.2493 -0.0592 -0.3633
25223W        W41297  15.836  15.020   5.698 -0.1315 -0.0909 -0.1868
25224W        W41298   4.829  17.776  11.153 -0.2064  0.2622 -0.1250
25225W        W41299  13.872   9.117  14.504  0.1772  0.0167 -0.3598
25226W        W41300  18.009  10.356   4.286  0.0282  0.3284 -0.0872
25227W        W41301  14.314  17.519  11.968 -0.2135 -0.0110 -0.1892
25228W        W41302  11.524   2.602   2.275  0.0015  0.2273  0.0812
25229W        W41303   0.382  12.392   4.934  0.1663 -0.1994 -0.0396
25230W        W41304   9.314   6.919  13.581  0.1857 -0.0979  0.1303
25231W        W41305   5.354  15.868  12.392 -0.3159 -0.0240  0.2341
25232W        W41306   5.071   9.556  12.916 -0.0602  0.2182 -0.2548
25233W        W41307  11.051   6.381   1.183 -0.1371  0.2110  0.0334
25234W        W41308  15.730   6.264   2.835 -0.1512  0.1091  0.0334
25235W        W41309   4.296   9.264   0.650 -0.1508 -0.2444 -0.0799
25236W        W41310   3.537   5.739  12.755  0.1838 -0.1132  0.1192
25237W        W41311   7.783   9.339   4.203  0.0532 -0.1450  0.2476
25238W        W41312  11.817   7.573  15.364  0.0521 -0.0522 -0.2182
25239W        W41313  10.993  12.329   1.035 -0.0818  0.2836 -0.1233
25240W        W41314  18.032  10.847   3.549  0.1937 -0.1158 -0.0714
25241W        W41315  16.338   1.139  14.488 -0.0350 -0.0944  0.0761
25242W        W41316   4.913  10.297   4.341 -0.1944 -0.1762  0.2243
25243W        W41317   7.615  16.586   1.695 -0.1925 -0.0120 -0.1938
25244W        W41318   6.526  17.983   2.703 -0.0286  0.2478 -0.3065
25245W        W41319  18.077  12.041  14.909 -0.0627 -0.4282  0.1172
25246W        W41320   0.905  10.259   6.371  0.0227 -0.0868  0.0978
25247W        W41321  13.228   8.135   4.991 -0.2218 -0.0175  0.0609
25248W        W41322  17.402   7.399   0.402  0.2414  0.0131  0.1487
25249W        W41323  15.069  14.564  11.196  0.1844  0.2732  0.2146
25250W        W41324  12.163   7.165   0.747 -0.0297  0.3142  0.2756
25251W        W41325  10.559  11.225  13.689 -0.0195 -0.0296  0.3569
25252W        W41326   9.729   5.752   3.734  0.0227  0.0428  0.1324
25253W        W41327  10.651   4.152  11.555 -0.1328 -0.1834  0.0582
25254W        W41328   5.854   3.033  14.790  0.5072  0.3533 -0.2154
25255W        W41329   7.669  17.560   4.361 -0.0608 -0.2712 -0.0513
25256W        W41330   1.441   6.637  13.335  0.1341 -0.0716  0.1352
25257W        W41331   6.499   2.572   1.786  0.1976 -0.2060 -0.3634
25258W        W41332  10.040  17.023  15.838  0.1618 -0.1447 -0.2149
25259W        W41333   7.192  16.608   2.603  0.0747  0.3334  0.1827
25260W        W41334   5.510   2.454   1.927 -0.0312 -0.0204  0.0208
25261W        W41335   0.452   7.474  12.402 -0.0836 -0.2118  0.2617
25262W        W41336  14.080   7.121  14.303  0.1727  0.1251  0.0074
25263W        W41337   8.129   7.102   3.078 -0.2110 -0.0711  0.1995
25264W        W41338  16.125   4.026   1.785 -0.0325 -0.0544 -0.0928
25265W        W41339   4.635  14.793   1.909 -0.2031 -0.2115  0.1904
25266W        W41340   0.195   8.983  12.445  0.2659  0.0533 -0.1500
25267W        W41341  10.543  15.060   4.623  0.0018  0.2625  0.1859
25268W        W41342   7.657   0.991  10.916  0.1023 -0.1341 -0.2595
25269W        W41343  11.914   2.121  13.387 -0.3521  0.1437 -0.1198
25270W        W41344  10.650   2.932   2.543  0.2589  0.1151 -0.1244
25271W        W41345   3.907   7.745  13.973 -0.0288  0.2180  0.0692
25272W        W41346   6.296   5.849  13.216  0.1440  0.1546 -0.0116
25273W        W41347   5.411  14.132  11.825 -0.0651  0.0922  0.1575
25274W        W41348  15.391   4.337  12.346  0.0064 -0.0883  0.1223
25275W        W41349   7.316  14.228  14.139  0.0662 -0.2630  0.3893
25276W        W41350  12.749   9.183  15.402  0.1699  0.0130  0.2320
25277W        W41351   3.993  16.818  12.595 -0.0101 -0.1794 -0.0373
25278W        W41352   1.947   3.029   0.881  0.1029  0.0329  0.0851
25279W        W41353   2.621  17.208  12.413  0.0843  0.0639 -0.1215
25280W        W41354  11.648  12.182  16.394 -0.1068  0.0454  0.0344
25281W        W41355   2.518   8.874  12.985  0.0604  0.2297  0.0005
25282W        W41356  10.661   1.614   6.519  0.3857  0.1632  0.0021
25283W        W41357   6.191  10.783  13.016  0.3081  0.0112  0.3544
25284W        W41358   5.510   6.420   1.493  0.3824 -0.2056  0.0839
25285W        W41359   8.091  13.749  15.488  0.2283  0.2030 -0.1124
25286W        W41360  16.470   8.071  13.042 -0.1064 -0.3351 -0.1423
25287W        W41361   8.840  13.941   5.111  0.0876 -0.0512 -0.0396
25288W        W41362   0.890  17.579   0.144 -0.0645 -0.2160 -0.0448
25289W        W41363  14.617  11.784  12.164 -0.0884  0.1139  0.2451
25290W        W41364   6.337   6.984   4.668 -0.1898 -0.2550  0.0196
25291W        W41365   8.695  15.310  14.897 -0.2953  0.4998 -0.1079
25292W        W41366   0.775   0.416  11.254  0.1220  0.0454  0.1243
25293W        W41367   7.761   2.481   1.331 -0.1416 -0.2716 -0.0391
25294W        W41368  12.777  11.338   5.141  0.2191 -0.0378 -0.0027
25295W        W41369   6.029  10.921  15.840 -0.0555  0.1920 -0.3291
25296W        W41370   3.297   6.282  13.424  0.4758 -0.0164 -0.1272
25297W        W41371   2.414  10.095   1.578 -0.0110 -0.2477 -0.1593
25298W        W41372   8.916  17.226   4.639  0.0416  0.2937 -0.1506
25299W        W41373  12.103  12.330  14.408  0.0727  0.1018  0.2417
25300W        W41374   6.214   1.252  13.049  0.1582  0.0546  0.0106
25301W        W41375  12.255  17.151   5.355 -0.1235  0.1899 -0.2184
25302W        W41376  11.647   1.411   5.222 -0.3354  0.1714  0.1318
25303W        W41377   0.102  11.957  15.444 -0.0015  0.0275 -0.3548
25304W        W41378   7.422  11.933  12.830 -0.4292 -0.1723  0.2043
25305W        W41379  11.350  11.872  13.248  0.0816  0.0635 -0.1460
25306W        W41380  17.922  11.486   1.750 -0.0834  0.4559 -0.0047
25307W        W41381   4.548   6.536   2.160  0.1938  0.4106  0.4924
25308W        W41382   8.779   8.310   0.590  0.0267  0.1387  0.1665
25309W        W41383  11.639   8.897   3.885 -0.5794 -0.4204 -0.1494
25310W        W41384   9.468   9.648  14.649 -0.0518  0.0741  0.1278
25311W        W41385  13.415  13.157   1.170  0.0706  0.0225 -0.0295
25312W        W41386  11.898   9.574  12.212 -0.1092 -0.1512 -0.2029
25313W        W41387  13.587   0.666  14.976  0.0927  0.2751  0.1166
25314W        W41388   4.623  16.610   1.164  0.0608  0.2334  0.1401
25315W        W41389  15.416   7.690   1.990 -0.3208  0.0234 -0.0208
25316W        W41390  18.185  10.653  15.915 -0.0965 -0.1059 -0.0187
25317W        W41391  10.187  18.220  14.981 -0.2493 -0.0353  0.4138
25318W        W41392   7.201   1.730  14.804  0.1905 -0.0449  0.0872
25319W        W41393  10.038  13.951  15.175  0.1398  0.2677  0.3023
25320W        W41394  13.969  17.593  11.436  0.1094 -0.4540  0.1987
25321W        W41395   9.253  17.818  11.067  0.2947  0.4466 -0.1399
25322W        W41396  13.892   9.445  15.328 -0.2070  0.0381 -0.1484
25323W        W41397   6.244  16.209   0.032  0.1310 -0.0668 -0.1421
25324W        W41398   1.681  16.028   1.393 -0.3703  0.1626  0.0578
25325W        W41399   9.903  11.771   4.847 -0.1450  0.1017  0.3727
25326W        W41400   8.642   7.551  11.897  0.0891 -0.0078 -0.1617
25327W        W41401  14.826   1.041   2.941 -0.1496  0.0848  0.3323
25328W        W41402  11.116  13.792   4.174 -0.1771 -0.0117  0.1142
25329W        W41403   6.349  15.941  11.625  0.3492 -0.0467 -0.0225
25330W        W41404  17.704   3.750  10.763 -0.4900  0.3059 -0.1056
25331W        W41405  14.638   2.274   2.386 -0.1515  0.1963 -0.1313
25332W        W41406  13.816   4.514  15.614 -0.1181 -0.1340  0.1508
25333W        W41407  15.036  17.045   0.274  0.0998  0.1845  0.3507
25334W        W41408  16.141  14.586   1.705 -0.1658  0.1608 -0.3323
25335W        W41409  10.254   9.765  11.866  0.0960 -0.2289 -0.0656
25336W        W41410  16.898   4.815  11.252 -0.0215  0.0671  0.0822
25337W        W41411   4.165   4.977  16.035  0.1928  0.1150 -0.2649
25338W        W41412   1.127   4.857  13.736 -0.1809 -0.1491  0.0090
25339W        W41413   5.387   0.452  10.379  0.2558  0.0494 -0.2232
25340W        W41414   7.097  14.829  11.542  0.0112  0.1027  0.1293
25341W        W41415   4.264  16.325  15.833 -0.1921  0.1371  0.1807
25342W        W41416   0.162  16.944  11.705  0.1516  0.0115  0.0948
25343W        W41417  10.310   2.446  11.748 -0.1613 -0.1163  0.1304
25344W        W41418   5.554   8.539   5.095 -0.0711  0.0972 -0.0802
25345W        W41419  13.927   5.395   1.838  0.1033 -0.0581  0.0198
25346W        W41420   0.564  15.998  16.546  0.3384  0.2370  0.0145
25347W        W41421  15.994   2.278   2.147  0.1861 -0.1453  0.1088
25348W        W41422   6.278   5.971  11.391  0.3121 -0.1271  0.1460
25349W        W41423  16.166   1.933   2.500 -0.3282  0.1651 -0.0825
25350W        W41424   9.191   8.126   2.631 -0.5484  0.2317 -0.1068
25351W        W41425  17.144   3.062  14.824  0.1512 -0.2653 -0.1950
25352W        W41426   0.490   0.017  12.706  0.2759  0.1066  0.0267
25353W        W41427   0.272   5.322  16.284  0.0461 -0.0974  0.1120
25354W        W41428  17.279   0.888   2.183 -0.0406  0.2406  0.0386
25355W        W41429   2.677  13.389   1.500 -0.1326 -0.2578  0.2084
25356W        W41430  16.100   3.835  14.223 -0.1874  0.2180 -0.2185
25357W        W41431  11.992   0.445  14.971  0.1458 -0.0353 -0.0446
25358W        W41432  17.440   5.027   2.303  0.0676 -0.0856  0.0134
25359W        W41433   9.212   8.265   1.302 -0.1778 -0.1966  0.0354
25360W        W41434  10.299   6.839   0.647  0.3197  0.0382  0.0538
25361W        W41435  12.479   3.256  11.656  0.0048  0.4242  0.3970
25362W        W41436  16.065   1.175   4.357 -0.0767  0.0132  0.1716
25363W        W41437   4.886   4.830  16.539 -0.0698 -0.1871 -0.1286
25364W        W41438  13.732   4.425   1.924  0.0413 -0.0933 -0.0579
25365W        W41439  14.672   7.806  15.915  0.2538 -0.3121  0.0191
25366W        W41440   2.694   6.310  15.495  0.0705 -0.0670  0.1500
25367W        W41441   7.874  12.631   6.071  0.1713  0.1104  0.0718
25368W        W41442   5.237   1.750  12.324 -0.0028 -0.1428 -0.2590
25369W        W41443   3.988  10.821   4.594  0.1021 -0.0217 -0.0295
25370W        W41444   7.740   4.455   0.890  0.1242 -0.0992  0.1413
25371W        W41445  14.267  14.707   1.432 -0.4072 -0.1770  0.0315
25372W        W41446  14.563   6.181   2.853 -0.0484  0.2385 -0.1131
25373W        W41447   2.752   4.865   2.864 -0.0855 -0.4803  0.0441
25374W        W41448   8.885  11.959  12.103  0.0290 -0.0813  0.1139
25375W        W41449   0.081  13.564   1.064 -0.0227 -0.2474  0.0012
25376W        W41450   2.055   4.335   1.344  0.1368 -0.3355  0.0038
25377W        W41451   2.203   4.461  16.151 -0.1209  0.3560 -0.1762
25378W        W41452   7.968  14.588  16.134  0.1086  0.1455  0.0226
25379W        W41453  14.472  12.131  10.595  0.1956  0.1861  0.2227
25380W        W41454  10.702   5.969  14.433 -0.1483 -0.2761 -0.2129
25381W        W41455   8.609  14.128   0.657 -0.0656  0.3114  0.0450
25382W        W41456   7.146   7.734   1.645  0.2258  0.3901  0.2328
25383W        W41457  10.877  17.016   0.761  0.1448  0.2278 -0.2186
25384W        W41458   9.013   2.276  12.052 -0.1456 -0.0492 -0.0662
25385W        W41459  15.792   3.906   4.979  0.0489 -0.1300  0.2380
25386W        W41460  13.273   3.337   4.195 -0.1168 -0.1696 -0.0059
25387W        W41461   1.094  12.459   3.765  0.1717  0.1767 -0.0503
25388W        W41462  14.259   2.505  12.129  0.1322  0.0429  0.1540
25389W        W41463   4.112   3.339  15.586 -0.1057  0.1875 -0.1403
25390W        W41464  17.407  14.830  14.943  0.2980  0.3023 -0.0182
25391W        W41465  15.233  12.255  14.058 -0.1448  0.3459 -0.1979
25392W        W41466  18.022  12.373  12.434  0.1203 -0.0888  0.0280
25393W        W41467   3.771   8.344  15.211 -0.1775  0.2704 -0.0712
25394W        W41468   7.881  14.156  15.095  0.2087  0.0557  0.0540
25395W        W41469   7.801   8.937   2.913  0.0216 -0.3989  0.1337
25396W        W41470   4.573  15.995   4.042 -0.0039  0.1559 -0.2377
25397W        W41471   4.655   8.447   4.499  0.2974 -0.0839  0.1218
25398W        W41472   1.977  10.695   3.435  0.1249 -0.1445  0.1073
25399W        W41473   6.206  16.432  11.492  0.2104  0.1208 -0.0987
25400W        W41474  14.005  13.200  11.978  0.1465 -0.0211  0.0620
25401W        W41475   9.487  15.199  16.082  0.0719 -0.1092  0.1289
25402W        W41476   8.197  15.974  14.914  0.4744  0.3708 -0.0607
25403W        W41477   1.385   2.708   3.434 -0.0575 -0.2792 -0.0424
25404W        W41478  14.970  14.098  15.914 -0.2671 -0.0962  0.0910
25405W        W41479  16.667  11.454  16.398 -0.2754  0.0457 -0.2126
25406W        W41480  17.373  15.265   4.585  0.2916 -0.1051 -0.0666
25407W        W41481   4.835   5.083  15.140  0.1740  0.1509 -0.2075
25408W        W41482   6.870   5.442   1.514 -0.1262 -0.0653  0.1958
25409W        W41483   1.460   0.289   4.577 -0.4143  0.2834 -0.0432
25410W        W41484   0.496   8.894   4.478 -0.0928 -0.0323  0.1615
25411W        W41485   2.570   7.203  13.014 -0.0234  0.3743 -0.1136
25412W        W41486   5.064   9.827   0.566 -0.0611  0.1260 -0.0104
25413W        W41487  13.295  11.535  16.021  0.1662  0.1413  0.2349
25414W        W41488   6.497   0.494  12.706  0.3237  0.0046  0.1788
25415W        W41489   6.152   1.464  13.888 -0.3761  0.0984 -0.1443
25416W        W41490   7.114   3.430   2.655  0.1387  0.0273 -0.3098
25417W        W41491  15.273  17.680  11.432 -0.1660  0.0203  0.0745
25418W        W41492  10.509   0.894  11.808 -0.2911 -0.3665  0.2343
25419W        W41493   5.277   2.119   1.154  0.0170 -0.3484 -0.1426
25420W        W41494   8.152   1.613   5.855 -0.0384 -0.0499  0.2008
25421W        W41495   7.926  15.695   4.302  0.0286 -0.0397 -0.2399
25422W        W41496  10.369   8.041  10.736  0.3379  0.0647  0.1728
25423W        W41497   4.374   9.144  13.097 -0.4165 -0.1533 -0.2532
25424W        W41498  11.627  12.017   2.039  0.3119 -0.2367  0.1238
25425W        W41499   5.431   3.173   0.092 -0.0386  0.0822 -0.3705
25426W        W41500  17.038   4.041   3.923  0.0097  0.3635 -0.1414
25427W        W41501   9.632   6.942  11.983 -0.3014 -0.1223  0.2780
25428W        W41502   8.587   6.066   5.158 -0.2016 -0.1093 -0.1772
25429W        W41503   7.054   5.726  12.040  0.0573 -0.1485  0.0649
25430W        W41504   4.133   7.754   5.119  0.0013 -0.1100  0.0605
25431W        W41505  14.714  16.389   3.980 -0.3112  0.1306  0.0910
25432W        W41506  15.223   9.655  15.003  0.0146 -0.1461  0.1013
25433W        W41507  12.782  12.088   5.001 -0.1946 -0.1348  0.0074
25434W        W41508   0.557   9.494  13.171  0.1977 -0.0351  0.0559
25435W        W41509   2.654   5.293  12.793 -0.2497  0.2545  0.2843
25436W        W41510  12.837  11.798  14.106  0.3028 -0.2845 -0.1070
25437W        W41511   5.396   4.417  13.855 -0.1900  0.2988  0.0329
25438W        W41512  16.073  15.927  16.233  0.0210 -0.0661  0.0353
25439W        W41513   8.477   8.710   2.378 -0.1058  0.0378  0.0907
25440W        W41514   7.625   5.494  10.745 -0.1429  0.2697  0.1734
25441W        W41515   1.931  12.860   2.789  0.3099  0.0370  0.3725
25442W        W41516   7.786   3.570  13.671  0.0817  0.2227  0.1636
25443W        W41517   0.274   9.026  14.955 -0.0356 -0.1603 -0.2679
25444W        W41518   1.082   9.754  15.577  0.3194 -0.2456 -0.3609
25445W        W41519   5.692  17.446   2.573  0.3710  0.0154 -0.1622
25446W        W41520   3.389   1.417   1.837  0.0492 -0.3021 -0.1062
25447W        W41521   2.927  13.046  16.276 -0.0090  0.0949  0.0692
25448W        W41522  16.263   7.925  16.292 -0.0576 -0.4467 -0.0927
25449W        W41523  16.079   3.767  15.525 -0.0629  0.0234 -0.1750
25450W        W41524  12.355   4.022   6.164  0.1121 -0.5042  0.0326
25451W        W41525  17.652   3.410   4.869 -0.1937 -0.3630  0.4186
25452W        W41526   4.267   3.224   1.154 -0.0043 -0.4282 -0.2919
25453W        W41527   6.424   4.280   3.599  0.2850 -0.1932 -0.1774
25454W        W41528  17.580  16.345   2.495 -0.0743  0.0578 -0.0062
25455W        W41529   4.755  12.473  15.377  0.3806  0.0063  0.0840
25456W        W41530   3.965   3.060   2.413  0.1257 -0.0502  0.0882
25457W        W41531  10.527  12.599   4.356 -0.2084  0.1187  0.0341
25458W        W41532   1.402   2.677  15.740 -0.0510 -0.1429 -0.0623
25459W        W41533   9.069   2.978   0.637  0.1273 -0.0409  0.1261
25460W        W41534  11.856  11.637   0.008 -0.0251 -0.1445  0.1804
25461W        W41535  17.133  12.693   2.743 -0.1052  0.1500  0.0443
25462W        W41536  14.389   2.846  14.248 -0.0783  0.1311 -0.2276
25463W        W41537   7.559  10.341  12.238  0.1193  0.3468 -0.0088
25464W        W41538   1.732  11.547  12.550  0.1879 -0.0307  0.1964
25465W        W41539  17.195   7.751   1.741  0.1311  0.0020  0.0770
25466W        W41540   2.119  16.841   3.111  0.1295  0.0779 -0.1741
25467W        W41541  15.655  12.030  13.857 -0.2200  0.1787 -0.1413
25468W        W41542  12.719   0.164  14.937  0.0644 -0.1859 -0.0413
25469W        W41543  10.560   1.558   5.168  0.1604  0.1403  0.2550
25470W        W41544  17.560   5.334  13.602  0.3756  0.0265  0.0823
25471W        W41545  15.797   1.156  14.546  0.1726  0.2584  0.3249
25472W        W41546  13.565   9.488   3.403  0.2389  0.1277  0.0048
25473W        W41547  17.132   6.955  13.209 -0.1495  0.0315 -0.1499
25474W        W41548   1.408   4.752   3.527  0.2300 -0.0239 -0.0753
25475W        W41549  14.853  12.946   3.121  0.4073 -0.0042  0.0205
25476W        W41550  10.092  15.195  16.013  0.0619 -0.0669  0.2504
25477W        W41551  15.633   8.850   0.730 -0.1968 -0.0181  0.0172
25478W        W41552   0.295  11.482  15.625  0.0975  0.2284  0.1950
25479W        W41553  15.877  14.672  15.047 -0.1676 -0.2236  0.0893
25480W        W41554   7.830  10.986   2.241 -0.0768  0.2038 -0.3982
25481W        W41555   7.037  14.540   3.801  0.1170  0.1298 -0.1069
25482W        W41556  13.188  16.732  15.326 -0.0200 -0.4097 -0.0348
25483W        W41557  13.799  11.427   2.189 -0.1773  0.1328 -0.0146
25484W        W41558   6.142   0.021  15.535  0.1101 -0.2355 -0.0379
25485W        W41559  13.546   4.341  15.090  0.5221 -0.0996  0.2363
25486W        W41560   0.449   8.939   3.316  0.0890 -0.3948 -0.1952
25487W        W41561  12.577   8.377  12.964 -0.2678 -0.1558 -0.1471
25488W        W41562   7.668   1.760  15.169 -0.1197 -0.0888  0.2517
25489W        W41563   1.024   4.717   5.434 -0.3340 -0.2265 -0.1054
25490W        W41564  10.853   7.862   1.063 -0.3886 -0.0899  0.0217
25491W        W41565  13.750   4.300   5.244  0.4552 -0.0824 -0.1331
25492W        W41566  16.016  12.292  14.532  0.0670 -0.1637  0.3382
25493W        W41567   1.069  14.919   2.381 -0.4440  0.3091 -0.1484
25494W        W41568   8.040  18.066   2.696 -0.1792 -0.0958  0.2228
25495W        W41569  13.072   8.090   1.875  0.2733 -0.1436 -0.1139
25496W        W41570  11.490  14.031  12.752  0.0276 -0.2095 -0.1423
25497W        W41571   3.434   2.813   0.396 -0.0998  0.2515 -0.0304
25498W        W41572   8.440   7.459   1.954 -0.0747  0.1508 -0.0042
25499W        W41573  10.090   0.267  15.720  0.0749 -0.0868 -0.0800
25500W        W41574   9.374   2.346   3.121 -0.1405 -0.1461  0.2950
25501W        W41575  16.475   5.314   6.019  0.1435 -0.0622  0.0493
25502W        W41576   3.267   4.373   4.414 -0.0702  0.0882  0.0966
25503W        W41577   8.850   8.413  15.501  0.0174 -0.0396  0.1070
25504W        W41578  10.641  16.765  12.649 -0.3620 -0.4055  0.2463
25505W        W41579   9.942  11.669  15.475 -0.1961 -0.0028  0.0552
25506W        W41580   7.187   8.996   0.503 -0.2119  0.1850  0.0207
25507W        W41581   4.169  13.248  15.535 -0.1532 -0.1158  0.4371
25508W        W41582   5.418   2.724   4.507  0.0532  0.1878  0.0412
25509W        W41583   0.685   7.618  14.381  0.4111 -0.1926 -0.0281
25510W        W41584  11.856  13.373   1.619 -0.2106  0.0988 -0.0978
25511W        W41585  12.452  17.960  14.119  0.0169  0.4024 -0.2176
25512W        W41586  17.317  16.880   5.244 -0.1965 -0.0700  0.0173
25513W        W41587   6.045  16.162  12.520  0.2779 -0.0484 -0.0567
25514W        W41588   6.832  13.278  12.347 -0.1556 -0.0168  0.1229
25515W        W41589  13.105   9.863   0.917  0.0151  0.1258 -0.0440
25516W        W41590  14.911   4.781   3.685 -0.0531 -0.0277  0.2146
25517W        W41591   5.430  15.965   1.999 -0.2365 -0.0682 -0.1694
25518W        W41592   1.183   7.949   4.090  0.0364 -0.2351  0.3214
25519W        W41593   1.106   7.015  12.441 -0.1366  0.0895 -0.1479
25520W        W41594  11.026   1.380   3.059  0.2505 -0.3155  0.0101
25521W        W41595  10.003  13.139  14.449  0.3201 -0.1376  0.0377
25522W        W41596  11.116   5.066   5.139  0.0235  0.0357  0.0782
25523W        W41597   0.167  11.012  16.352  0.1268  0.0526 -0.1728
25524W        W41598   8.935   7.911   2.228 -0.1015 -0.0780  0.0078
25525W        W41599  15.058  15.555  16.305 -0.0804 -0.2220  0.1409
25526W        W41600   6.996   7.461  11.996  0.0808  0.4416  0.0554
25527W        W41601   1.360  13.156  15.391  0.1460  0.1998 -0.0181
25528W        W41602  17.935  17.515   5.222  0.0416  0.1507  0.1117
25529W        W41603  10.836   0.175   4.594  0.1997  0.0431 -0.0973
25530W        W41604  16.211   5.025  15.271 -0.1529  0.0033 -0.1382
25531W        W41605  17.154  14.641   3.344 -0.0084  0.0966  0.1413
25532W        W41606  17.147   5.692  15.951  0.0401 -0.2959  0.3011
25533W        W41607   6.902   2.783  12.568  0.1913 -0.1642 -0.0466
25534W        W41608  13.778  16.581   2.778 -0.3949 -0.0331 -0.0925
25535W        W41609   6.469   3.513   5.410 -0.0242  0.0098 -0.0841
25536W        W41610   2.906  15.744  16.015  0.0081  0.0134 -0.0133
25537W        W41611  11.420  13.367   1.288 -0.0750  0.0664 -0.0355
25538W        W41612  13.708   7.159   4.352 -0.0056 -0.1367 -0.2233
25539W        W41613   4.895  14.549  14.208  0.0122 -0.0411  0.2042
25540W        W41614   4.868   5.905  15.025 -0.1583 -0.0976  0.1371
25541W        W41615   1.632   6.906   1.630  0.0552 -0.0757  0.2025
25542W        W41616  12.692   1.793  14.026 -0.1330 -0.0053 -0.1827
25543W        W41617  16.984  17.501   3.360 -0.1558  0.2326  0.0774
25544W        W41618  17.448   0.466   1.955 -0.0126 -0.1334 -0.0015
25545W        W41619   2.502  14.165  14.231  0.3400  0.0173  0.1202
25546W        W41620   9.270   5.540  15.915  0.0141  0.0202  0.1496
25547W        W41621   7.160   2.569  12.151 -0.1082 -0.3560 -0.1399
25548W        W41622  12.595   3.850   3.720 -0.2268 -0.3029  0.4254
25549W        W41623  10.572   3.283   5.690  0.1152 -0.1167  0.0361
25550W        W41624   5.540   7.151   4.983  0.0669 -0.0279  0.0013
25551W        W41625   2.872   0.108   1.151 -0.1713 -0.1012 -0.0306
25552W        W41626  16.617  11.126   3.808 -0.2966 -0.0300  0.1510
25553W        W41627  15.167   2.960   3.044  0.0381  0.0832  0.1914
25554W        W41628   1.425  14.258   5.577 -0.1629  0.4992 -0.1125
25555W        W41629   3.839  14.748   0.726  0.4490  0.3848 -0.0892
25556W        W41630   4.775   4.850  16.086  0.5238  0.0209  0.3069
25557W        W41631  16.957   6.618   5.426  0.0772  0.5468  0.0821
25558W        W41632  17.320   4.293   2.299 -0.1636 -0.2989  0.1827
25559W        W41633   9.641  10.119  15.379  0.1544  0.1816 -0.0317
25560W        W41634   6.883   2.851   1.482 -0.0253 -0.0021 -0.2188
25561W        W41635  13.096   4.983  13.617 -0.1274  0.0014  0.1673
25562W        W41636   4.610  11.969   1.164  0.1764 -0.0860 -0.2794
25563W        W41637   4.685  13.619   3.969  0.0825 -0.2940  0.3101
25564W        W41638   7.017  15.568  16.235 -0.0319 -0.0143  0.1622
25565W        W41639   7.585  16.951   0.908 -0.0440 -0.0146 -0.1933
25566W        W41640  12.506   2.064  14.443 -0.2712  0.2440  0.0863
25567W        W41641  17.409  13.089  11.464  0.0994 -0.3524  0.1188
25568W        W41642   5.054   8.244  12.492 -0.0819  0.0392 -0.2251
25569W        W41643   2.621   6.911   4.596 -0.0786  0.1940  0.3542
25570W        W41644   1.551  11.931  16.018  0.2023 -0.1374 -0.0645
25571W        W41645  10.988  18.151  13.767 -0.0900  0.1554 -0.2183
25572W        W41646  15.695   2.026   1.205  0.1903  0.0111 -0.2884
25573W        W41647   1.819  10.227  11.815 -0.0922 -0.2153 -0.1009
25574W        W41648   3.693   1.641  16.086  0.0225 -0.3921  0.0763
25575W        W41649  12.254  17.910   3.353 -0.0480 -0.2315  0.3894
25576W        W41650  14.310   5.052  15.955  0.0036  0.1139  0.0838
25577W        W41651  16.752  10.020  14.675  0.0706 -0.0055 -0.0194
25578W        W41652   0.049   3.656   0.546 -0.0016 -0.1897 -0.3051
25579W        W41653   3.876  15.617   4.444 -0.1485  0.0397 -0.3836
25580W        W41654  16.429   1.725  14.843 -0.0814 -0.1759 -0.0179
25581W        W41655   8.857   8.209   5.684 -0.3896  0.0482  0.2573
25582W        W41656  10.015   3.575   0.981 -0.2757  0.2585  0.3757
25583W        W41657   5.470   1.515   0.405 -0.0322  0.0000 -0.3749
25584W        W41658  18.192   1.786  13.484  0.1612 -0.1862 -0.1359
25585W        W41659   4.616  16.161   2.861  0.2510  0.0960  0.0837
25586W        W41660   6.942   6.541  12.966  0.1373  0.2135  0.1644
25587W        W41661  12.594   2.607  12.831 -0.1155  0.3918  0.0181
25588W        W41662  15.514   2.348  13.860  0.1088 -0.1495  0.3481
25589W        W41663  16.569   1.728  11.008  0.0192 -0.1201  0.0121
25590W        W41664   6.622  18.075   0.940  0.0092  0.0399  0.1060
25591W        W41665  13.620   0.126  12.092  0.1518  0.1445  0.2193
25592W        W41666  16.022   3.104  14.997 -0.0594  0.0546  0.1038
25593W        W41667  15.009  16.175  12.812 -0.0392  0.0950  0.3970
25594W        W41668   6.132  17.798   0.944  0.1289 -0.1449 -0.1099
25595W        W41669  14.642  17.824  12.995  0.1410 -0.3007  0.0352
25596W        W41670   6.184  15.292  12.179 -0.0553  0.0332  0.1406
25597W        W41671  17.750  16.302   0.721  0.1663 -0.1013 -0.1213
25598W        W41672   3.263   8.653   4.819  0.1220 -0.0069 -0.3817
25599W        W41673  12.796   8.129   1.508  0.3034 -0.1941  0.0584
25600W        W41674  15.950   5.651  14.085 -0.1936 -0.1121  0.0617
25601W        W41675  12.472  16.725  15.957 -0.0773 -0.0318 -0.0595
25602W        W41676   4.644  13.301  16.010  0.0796  0.0364 -0.3417
25603W        W41677   1.719   6.705   0.881 -0.1662 -0.0970  0.1627
25604W        W41678  14.126  17.205  14.481 -0.2798 -0.0893 -0.4269
25605W        W41679   8.590   2.420   5.577 -0.0489  0.0869 -0.2583
25606W        W41680  10.059   2.629   2.773  0.0802 -0.1250  0.2784
25607W        W41681   2.669  16.566   0.139  0.3961 -0.0186 -0.1576
25608W        W41682   1.270  13.399   4.001 -0.2695  0.0049 -0.1770
25609W        W41683  17.846  17.786   2.798  0.1174  0.1474 -0.2449
25610W        W41684   4.852   1.496   0.543 -0.1250  0.0712 -0.0967
25611W        W41685  16.719  14.357  10.702  0.2936 -0.0673  0.1434
25612W        W41686  11.464   8.017   2.452  0.0136  0.1725  0.1654
25613W        W41687  18.035  16.788   0.683  0.0425 -0.0409  0.0623
25614W        W41688  10.491   2.666  12.342  0.1222  0.3400  0.0312
25615W        W41689   3.491  10.880   5.361 -0.1901 -0.1515  0.0471
25616W        W41690   6.830  13.813   0.257 -0.2546 -0.0833  0.0036
25617W        W41691   0.766   5.313   0.005 -0.0398 -0.0759 -0.2342
25618W        W41692  15.974   7.716   5.092  0.0871 -0.0430 -0.1007
25619W        W41693  16.760   0.726  13.218  0.0378  0.0581 -0.0829
25620W        W41694   9.930  17.147  11.655 -0.1636  0.2487 -0.4233
25621W        W41695  10.404  11.486  15.642  0.0384 -0.4877 -0.2352
25622W        W41696   6.495   1.011   5.457 -0.2032  0.2368 -0.0809
25623W        W41697  11.678   3.931  14.996 -0.2264 -0.3311  0.1068
25624W        W41698   1.381   8.786  16.490 -0.0353  0.1612 -0.2476
25625W        W41699   4.233   2.571  10.444 -0.0176 -0.0857 -0.0726
25626W        W41700  17.828  13.748   5.364  0.2801 -0.1510  0.1081
25627W        W41701  11.829  15.342   2.338  0.0853  0.0666  0.0795
25628W        W41702   7.409   3.310   5.740 -0.0552 -0.0004  0.0544
25629W        W41703  16.103   8.961  13.998 -0.1529  0.3013  0.0189
25630W        W41704  12.773  16.052  12.193  0.0839  0.0910  0.0441
25631W        W41705   3.546  10.678  16.433  0.0242  0.3093  0.0992
25632W        W41706   4.398  10.996   0.580 -0.4766  0.1104  0.1573
25633W        W41707   1.077  11.942   1.527 -0.2274 -0.1519 -0.2255
25634W        W41708   8.799   7.617  13.421 -0.1611 -0.2054 -0.2085
25635W        W41709   0.327   8.976   1.711  0.0288 -0.1199  0.2026
25636W        W41710   0.501   5.437   1.405 -0.2119 -0.1898  0.2018
25637W        W41711  16.677   6.691   4.974 -0.1170 -0.1047 -0.2714
25638W        W41712   9.688  14.790   4.645  0.1274 -0.0031  0.3020
25639W        W41713   9.496  14.499  12.311  0.1039  0.1901 -0.0824
25640W        W41714  14.815   7.593   6.108  0.1930 -0.2021 -0.1306
25641W        W41715  17.793  11.924  11.243  0.1568 -0.1631  0.1351
25642W        W41716  11.763   9.414   5.317  0.1310  0.3713 -0.0034
25643W        W41717  14.199   6.000  13.588  0.0468  0.0699  0.1790
25644W        W41718   0.921   3.371  15.877 -0.1991 -0.0587 -0.1326
25645W        W41719  14.942  11.146   4.369 -0.0891 -0.2604 -0.2549
25646W        W41720   2.057   0.180   0.900 -0.0711  0.1041 -0.0375
25647W        W41721   6.888  11.968  13.186 -0.2512 -0.0721 -0.1077
25648W        W41722  17.433  16.126   1.075 -0.3735  0.1519  0.1208
25649W        W41723   5.246  12.838   3.924  0.0918  0.2068 -0.1275
25650W        W41724   8.798   3.017  11.413  0.3131 -0.0688 -0.3201
25651W        W41725   3.605  15.997  11.714  0.4644  0.2922  0.2419
25652W        W41726   3.036   2.327  11.444 -0.1741  0.0229  0.2819
25653W        W41727   4.980   5.063  11.941 -0.3040  0.0564  0.0050
25654W        W41728   4.216  12.623   1.722  0.1129  0.2555 -0.3512
25655W        W41729  16.388  11.982  11.660 -0.1299  0.0764  0.1637
25656W        W41730   9.442  16.479  15.589  0.0544  0.0023 -0.1058
25657W        W41731   1.930   8.228  16.276  0.2972 -0.1161  0.2929
25658W        W41732   0.468  17.789   0.408 -0.0862 -0.3799 -0.2068
25659W        W41733  14.984   4.711   0.779 -0.0416 -0.1101 -0.1158
25660W        W41734   4.793   0.003   1.990 -0.0955 -0.1496 -0.0647
25661W        W41735   7.353   0.277   3.884 -0.2846  0.0755  0.1122
25662W        W41736   0.375  14.225  13.860 -0.1574 -0.0525 -0.0437
25663W        W41737   2.478  16.672   2.760 -0.3399 -0.3641 -0.1172
25664W        W41738  12.453   4.115  11.945 -0.0260  0.2374  0.0601
25665W        W41739   7.935  10.323  11.043  0.2628 -0.0122 -0.4692
25666W        W41740   2.201  11.181   3.196  0.0553 -0.1526 -0.3266
25667W        W41741   8.264   2.797  12.446 -0.1763  0.0479 -0.0424
25668W        W41742  15.191   8.369   2.807 -0.1521  0.1111 -0.0698
25669W        W41743   8.646   7.107   1.064 -0.1843 -0.2131 -0.1088
25670W        W41744   5.353   6.420  13.756 -0.2367  0.1694  0.0450
25671W        W41745  10.725  12.314   0.595 -0.0322  0.0476  0.1106
25672W        W41746  10.611   1.825  13.722  0.5489  0.0983  0.1474
25673W        W41747   5.708   5.445   4.169 -0.0169 -0.1764 -0.4251
25674W        W41748   1.435  10.677  14.616 -0.0124 -0.0560 -0.0598
25675W        W41749   2.777   1.620   1.144 -0.1010  0.0010 -0.0799
25676W        W41750   7.240  15.887  15.362 -0.1259  0.2057 -0.0771
25677W        W41751   4.524  10.928   4.867  0.0619  0.0230 -0.0803
25678W        W41752   0.910  14.673   3.837  0.2286  0.2443  0.0337
25679W        W41753   0.867  10.238  15.464 -0.1384  0.0683 -0.5239
25680W        W41754   0.994   2.036   2.792  0.0717  0.2285  0.1493
25681W        W41755   7.479   8.777   5.425 -0.1286  0.2045 -0.0635
25682W        W41756   8.937   5.033  15.745 -0.1967  0.1757  0.0371
25683W        W41757   0.596   4.497   0.137  0.1540 -0.1315 -0.1288
25684W        W41758  12.093  11.865   0.416  0.0481  0.2468  0.3830
25685W        W41759   5.396  10.282   4.495  0.1269 -0.0263  0.0159
25686W        W41760   2.809  13.669  10.176 -0.1650 -0.2875 -0.0643
25687W        W41761   9.502  11.786   1.695  0.0282 -0.0715 -0.4165
25688W        W41762  11.698  16.278  15.750  0.2104 -0.2197  0.1414
25689W        W41763   0.232   5.697   3.813 -0.0579  0.1649 -0.1163
25690W        W41764   0.954   3.647  11.761 -0.3046  0.1145  0.0974
25691W        W41765   5.635  14.494   3.155  0.0016 -0.1551 -0.3244
25692W        W41766  13.914   8.791   1.681  0.0862 -0.1420  0.0876
25693W        W41767  12.954   7.147  16.547  0.0169  0.0997  0.2737
25694W        W41768   6.956   6.011   4.978 -0.3150  0.1169  0.3832
25695W        W41769   3.713   7.368  16.370  0.0842 -0.3142 -0.1365
25696W        W41770  15.917   4.972   1.396 -0.2753 -0.2276 -0.0325
25697W        W41771  10.139  10.653  12.482 -0.0487  0.2047 -0.3820
25698W        W41772  15.991  17.637   3.359  0.0016  0.5178  0.0922
25699W        W41773   8.568  11.962  15.238  0.1542  0.1123 -0.0373
25700W        W41774   9.054  11.708   0.382  0.2416  0.2737 -0.2245
25701W        W41775   9.613  16.202  15.023 -0.1005 -0.0865 -0.1176
25702W        W41776   3.891   2.612   2.222 -0.1412 -0.2208 -0.2783
25703W        W41777  13.347  15.410   4.964  0.1628  0.2084 -0.1367
25704W        W41778   6.488   9.422   1.496 -0.2729  0.2036 -0.2919
25705W        W41779   2.796   9.463  13.138 -0.1324  0.1998 -0.4519
25706W        W41780  11.238  11.401   1.508  0.4005 -0.4760 -0.1309
25707W        W41781  12.753   1.671  15.652 -0.2560  0.2723 -0.1709
25708W        W41782   8.040   5.423  12.887  0.1962 -0.0955  0.2421
25709W        W41783   3.470   1.139   2.747 -0.0912  0.2393 -0.1962
25710W        W41784  13.123  10.380   3.371 -0.5018  0.1098 -0.2174
25711W        W41785   5.566   4.319   3.339  0.0885  0.1229  0.0176
25712W        W41786  11.153   9.588  12.064 -0.0070 -0.0399 -0.4787
25713W        W41787   2.516   2.163  14.235  0.1650  0.0159 -0.3114
25714W        W41788   3.857  17.848   3.002  0.4442 -0.1338 -0.0564
25715W        W41789   7.173  17.684   4.090 -0.4060 -0.0887 -0.1381
25716W        W41790  17.880   5.223  12.033 -0.1545 -0.0479 -0.3577
25717W        W41791   0.645   3.463  16.289  0.0683 -0.1151  0.0328
25718W        W41792  17.490  12.040   3.043 -0.2283 -0.3204 -0.3015
25719W        W41793   2.900   9.228  14.565 -0.2218 -0.1278 -0.0532
25720W        W41794  14.069   0.844  11.989 -0.0856  0.1220  0.3464
25721W        W41795   8.222  12.205   5.613 -0.0762  0.3324  0.2375
25722W        W41796  15.599  18.050   4.481  0.0044 -0.3340 -0.0567
25723W        W41797   7.184   2.222  14.984  0.0668 -0.0508 -0.4098
25724W        W41798  12.145  11.581   3.567  0.1831 -0.3242  0.1199
25725W        W41799   9.101   5.575   0.001 -0.0769  0.2511 -0.5570
25726W        W41800  18.184   4.729   2.010  0.2811 -0.3373 -0.0897
25727W        W41801  11.780  13.088  13.787 -0.3759 -0.3502  0.0605
25728W        W41802   9.559   7.793   5.271  0.0486 -0.0132  0.1150
25729W        W41803  17.060   4.424   9.698 -0.3352  0.0816 -0.2274
25730W        W41804  14.223   4.512   5.266  0.3475 -0.2531 -0.0939
25731W        W41805   1.150   8.260   1.029  0.1354 -0.0906  0.0467
25732W        W41806   1.845  14.728   2.549 -0.2481 -0.0308 -0.1659
25733W        W41807   5.369  17.533   3.579  0.2562  0.0732 -0.0836
25734W        W41808   4.253  10.162   1.911 -0.1202 -0.1747 -0.1297
25735W        W41809  13.972   6.773   1.524 -0.2683  0.2113  0.1305
25736W        W41810   7.407   7.240   2.884  0.1219  0.2133  0.2487
25737W        W41811  14.131  18.023   0.028  0.0679 -0.2941  0.0241
25738W        W41812   7.477  11.567  11.841  0.0238 -0.0303 -0.0481
25739W        W41813  15.240   1.049   3.853 -0.2289  0.0285  0.1036
25740W        W41814   8.001   0.386  14.273  0.1115 -0.0302 -0.3591
25741W        W41815  13.645   1.652   1.508 -0.1947 -0.0710  0.4003
25742W        W41816   2.252   3.880   3.505 -0.1921  0.1630  0.1894
25743W        W41817   4.858  13.838  16.076 -0.0531  0.1489 -0.1342
25744W        W41818  10.741   8.502   1.853  0.4447 -0.1370  0.2893
25745W        W41819  15.281   4.808  16.069 -0.3201 -0.5962  0.1038
25746W        W41820   4.096   8.816   0.724 -0.1780 -0.1132 -0.5104
25747W        W41821   7.851  13.831  11.175  0.2482  0.1581  0.0012
25748W        W41822   7.418  10.378   1.739  0.1371 -0.2262 -0.0845
25749W        W41823  16.302  14.907   1.345  0.0933  0.0339 -0.0266
25750W        W41824  17.281   6.740   1.132  0.0496  0.0797 -0.2657
25751W        W41825  13.801  10.292  14.821  0.0659  0.1209  0.2065
25752W        W41826   7.681  12.995  14.495 -0.2745 -0.0581  0.3200
25753W        W41827  12.599  17.306   3.173  0.1638  0.1101 -0.3391
25754W        W41828   3.068  14.503  14.714  0.2283 -0.1499 -0.0523
25755W        W41829  10.027  16.953  13.883 -0.1677  0.0493  0.0456
25756W        W41830   8.923   0.047  11.291 -0.0760 -0.0766 -0.0124
25757W        W41831   0.506   7.458   0.196  0.0043  0.1590 -0.4374
25758W        W41832   3.261  11.962   2.129 -0.1257  0.1646 -0.3042
25759W        W41833   5.853  10.530  13.335  0.1396 -0.2514 -0.1739
25760W        W41834   6.499  17.472  14.363  0.1719  0.1820 -0.3125
25761W        W41835  17.170   3.575  14.003 -0.1381 -0.0013 -0.1011
25762W        W41836   7.815  17.704  14.269  0.0368  0.4748  0.0852
25763W        W41837  14.627   9.654   0.031  0.0051 -0.0075 -0.1190
25764W        W41838   6.085  10.066  15.791 -0.0314  0.2404 -0.1307
25765W        W41839  11.950   1.834   0.217  0.0201 -0.0563 -0.0328
25766W        W41840   0.136   9.293  13.459  0.1786 -0.1422 -0.2394
25767W        W41841   2.586  14.331  11.182  0.3393 -0.1945  0.2676
25768W        W41842  11.810  13.001   3.042 -0.2596 -0.1678 -0.2901
25769W        W41843   1.899   7.257   3.867  0.3094  0.1051 -0.0133
25770W        W41844   8.144   1.051   0.932 -0.1456  0.2879  0.0219
25771W        W41845  12.095   7.528  14.496 -0.2203 -0.1755 -0.1381
25772W        W41846  17.209   6.463  12.342 -0.3697  0.1562  0.1424
25773W        W41847   7.961   8.398  15.195 -0.2050 -0.1137 -0.1462
25774W        W41848  14.831   4.863   4.170 -0.0577 -0.2019 -0.2811
25775W        W41849  13.278  17.995   3.369  0.1477 -0.2948 -0.0244
25776W        W41850   1.156   5.639  16.480 -0.3502 -0.0758  0.0789
25777W        W41851   8.965   6.485   5.578  0.2606 -0.1714 -0.0440
25778W        W41852   0.869  16.319   0.358  0.1220  0.1676 -0.0812
25779W        W41853  12.230   3.894   2.329 -0.1092  0.1269  0.0856
25780W        W41854   8.440   4.351   1.008 -0.0391 -0.0054  0.1087
25781W        W41855   8.623   8.242  15.915 -0.1201  0.2821 -0.1204
25782W        W41856  12.534  11.403  15.778  0.0631  0.1260 -0.0311
25783W        W41857   4.463  12.323   3.096 -0.4558  0.0914 -0.2970
25784W        W41858  14.479   4.373  12.782 -0.1333 -0.4796  0.2319
25785W        W41859   7.658   2.188   1.929  0.3957  0.2462 -0.4478
25786W        W41860  14.736  14.808   1.054 -0.2671  0.1090  0.2566
25787W        W41861   4.299   4.744  11.931 -0.1741  0.0319 -0.0624
25788W        W41862  13.272   9.660   3.842 -0.1088  0.0499  0.1858
25789W        W41863  14.191   1.985   3.668 -0.3631  0.0727 -0.0011
25790W        W41864  16.853  11.070  11.951 -0.2822  0.1269 -0.2930
25791W        W41865  11.947  17.847  14.320 -0.0831 -0.4183  0.2280
25792W        W41866  18.151   6.143   2.114  0.1230  0.1107  0.2142
25793W        W41867  12.454   5.753   4.992 -0.2393  0.1375 -0.1135
25794W        W41868  18.100   7.527  14.092  0.0325  0.1305  0.1770
25795W        W41869   4.285   9.410  11.528 -0.2141  0.3829  0.0510
25796W        W41870  12.239   3.426   2.076  0.0578 -0.0859  0.1781
25797W        W41871  14.437   4.299  11.657  0.1490 -0.1445  0.4333
25798W        W41872   5.201  13.552  13.900 -0.1012  0.0816 -0.2916
25799W        W41873  13.428   0.296  13.154 -0.1402 -0.1424  0.2993
25800W        W41874  12.123  15.161  14.299 -0.0579  0.1560 -0.0011
25801W        W41875  16.167   7.124  10.867 -0.1053 -0.3955 -0.2391
25802W        W41876  17.579  10.803   1.795  0.1129 -0.1906  0.0783
25803W        W41877   1.195  12.498  11.808 -0.1403 -0.0495 -0.0498
25804W        W41878   9.318   3.431  13.194 -0.0336  0.1297  0.2311
25805W        W41879  14.556  10.146  13.685 -0.1737 -0.1233 -0.1017
25806W        W41880   6.088  15.800  15.640 -0.1561 -0.0500  0.2112
25807W        W41881   8.430   6.744   3.096 -0.1522 -0.0670  0.0530
25808W        W41882   0.539   7.815  13.263 -0.5020  0.2117 -0.1688
25809W        W41883  15.807  13.427  12.580  0.2149 -0.1589  0.1924
25810W        W41884  13.976   0.869   4.805 -0.3162 -0.1850  0.3847
25811W        W41885  12.602   5.537  15.116  0.0178  0.1393  0.0356
25812W        W41886  11.149   7.011   5.286  0.3248 -0.3482  0.2049
25813W        W41887   5.331   3.075   3.613  0.0067  0.3278 -0.0165
25814W        W41888   0.587   3.019   5.509 -0.0601 -0.0069  0.3449
25815W        W41889   8.881  17.294   2.334  0.3769  0.1158  0.1340
25816W        W41890  16.638   2.816   0.973 -0.1380  0.1433  0.0603
25817W        W41891   0.705   9.704   3.841 -0.0552 -0.1363 -0.0680
25818W        W41892  17.160  12.622   5.340  0.0783 -0.1222 -0.0463
25819W        W41893  10.898  11.117  13.329 -0.1608  0.1319 -0.0933
25820W        W41894  12.792  16.501  11.949  0.2997 -0.0403 -0.1111
25821W        W41895   6.325  16.346   1.537  0.1038  0.1589 -0.0219
25822W        W41896   5.753  12.076  15.172 -0.3220  0.2771  0.1140
25823W        W41897   4.817   5.143  14.665 -0.5222 -0.1413 -0.0546
25824W        W41898   4.838  12.503   1.310  0.2704  0.1505 -0.1219
25825W        W41899  12.747   4.711   2.018 -0.1436 -0.4023 -0.1190
25826W        W41900  13.827  12.825   2.479 -0.0644 -0.2578 -0.3966
25827W        W41901   3.721  10.354   4.515  0.0412 -0.2519 -0.0373
25828W        W41902  15.660   9.112   4.585 -0.0274  0.0898 -0.0005
25829W        W41903   7.935  17.099   4.867  0.1918 -0.2220  0.0151
25830W        W41904  17.877  14.050  14.637 -0.1262  0.3043  0.2729
25831W        W41905  16.173   3.913  12.868 -0.0691 -0.1166  0.0184
25832W        W41906   7.467  11.176   5.461  0.0702 -0.1532  0.0375
25833W        W41907   7.419  12.193   5.448  0.1972  0.1524  0.1661
25834W        W41908   2.915  17.532   3.986 -0.1045 -0.2605 -0.1765
25835W        W41909   1.297   4.539  13.057  0.0481  0.0193  0.3610
25836W        W41910   3.099   4.866   3.675  0.3153 -0.0211  0.1831
25837W        W41911   7.618   5.194  12.609 -0.0436 -0.0931 -0.1101
25838W        W41912  16.406   7.352  14.632  0.1869 -0.1332  0.0296
25839W        W41913  17.051  10.205  11.392 -0.0604  0.2098  0.1071
25840W        W41914  11.099  15.074   0.153  0.1482 -0.2143  0.1827
25841W        W41915  13.502  12.876   0.224  0.1493  0.2282  0.0398
25842W        W41916   9.834   1.821  15.611 -0.1898 -0.0603 -0.0397
25843W        W41917  13.812   4.798   5.081 -0.3487  0.1485  0.2357
25844W        W41918  17.588   4.204  11.881 -0.0173  0.3220  0.1692
25845W        W41919   9.521  16.276   1.493 -0.2308  0.0379  0.1511
25846W        W41920   2.938  14.669   1.344 -0.0556 -0.1055  0.0939
25847W        W41921   7.574  18.044  12.115 -0.0775  0.0550 -0.2487
25848W        W41922   4.658   0.078  13.319 -0.0074 -0.0714 -0.1456
25849W        W41923  13.396   1.380   5.082  0.1042  0.0386  0.0959
25850W        W41924  15.886   4.665  14.008 -0.0571  0.1515 -0.0901
25851W        W41925   2.465   6.217   5.217  0.0003 -0.2258 -0.2385
25852W        W41926  15.718   4.155  14.157  0.3340 -0.1937  0.1416
25853W        W41927  13.512  13.603   1.405 -0.2405  0.1597 -0.0931
25854W        W41928   0.213   7.325   2.334  0.0610  0.1506 -0.2206
25855W        W41929  17.047   6.822   3.318 -0.2554 -0.0404 -0.3052
25856W        W41930  15.794  14.156   0.323 -0.0359 -0.0199  0.0318
25857W        W41931   3.061  10.158   0.001  0.0458  0.1069  0.0503
25858W        W41932  17.669   6.239  12.467  0.0636  0.0270 -0.0696
25859W        W41933   1.593   5.712   3.389 -0.3356  0.1464 -0.2296
25860W        W41934   6.401   5.462  10.708 -0.0067 -0.1259  0.0106
25861W        W41935   1.902  12.509   0.900  0.0160  0.0684  0.2680
25862W        W41936   6.542  11.549   3.336 -0.3457 -0.1158  0.1515
25863W        W41937  14.581  17.145  13.671  0.1420 -0.1574  0.2591
25864W        W41938  17.754   4.319  16.066  0.0947  0.0194  0.0837
25865W        W41939  13.705   4.047   4.371 -0.2061  0.1180 -0.2256
25866W        W41940  11.102  17.065  14.079 -0.1111 -0.0686  0.0695
25867W        W41941   1.612   1.359  13.352 -0.1684 -0.3356  0.1244
25868W        W41942   8.374  11.248   5.683  0.1656 -0.1412 -0.2482
25869W        W41943   4.438   5.050  12.351 -0.4079  0.0402 -0.6679
25870W        W41944   4.029   6.460  12.849  0.1253  0.1376  0.0683
25871W        W41945   8.291  17.395   1.131 -0.1613  0.0008  0.1958
25872W        W41946   7.598   9.651   3.823  0.1936 -0.0344  0.0928
25873W        W41947  13.886   1.767  12.185 -0.3932 -0.2288  0.0224
25874W        W41948   0.302  10.140   2.647  0.1143  0.1467  0.1252
25875W        W41949   7.517   8.531  12.901 -0.2227 -0.1739  0.0061
25876W        W41950   3.077  14.172   1.574  0.2354  0.0277  0.0172
25877W        W41951   9.823   9.510   1.195  0.0449  0.3388  0.1915
25878W        W41952  10.292   7.662   0.981  0.1493  0.0585  0.0726
25879W        W41953  13.446   9.831  15.825 -0.1277  0.2394  0.2083
25880W        W41954   8.795   7.822  12.774  0.0259  0.1089 -0.1661
25881W        W41955  10.482   3.902   1.039  0.1437  0.1796  0.0253
25882W        W41956   8.669  16.196  12.600  0.1280  0.2501  0.3780
25883W        W41957  15.858  15.458  15.736 -0.4229  0.0647 -0.0549
25884W        W41958   9.091  10.577   6.587  0.4266  0.0589 -0.0747
25885W        W41959   2.084   1.723  14.599  0.2769 -0.2132 -0.0553
25886W        W41960  12.388  11.912   1.473 -0.3679  0.1273 -0.0019
25887W        W41961  13.648  11.061  15.143  0.0913 -0.1385  0.0818
25888W        W41962   8.978   0.922   1.615  0.2406  0.2448 -0.0969
25889W        W41963  11.289  12.259  15.498  0.2527  0.0003  0.2685
25890W        W41964   4.025  14.109   1.464  0.0559 -0.3133  0.3631
25891W        W41965  10.257  11.831   3.774 -0.1504 -0.0367 -0.1719
25892W        W41966   9.461   6.407  12.265 -0.2348  0.2231 -0.2562
25893W        W41967   2.569  18.156  11.021  0.0477  0.1084  0.0413
25894W        W41968   5.675  16.977  12.238  0.2658 -0.3877 -0.2653
25895W        W41969  12.536  15.495  14.368  0.2115 -0.2537  0.0659
25896W        W41970  11.193  11.201   3.177 -0.1191  0.2636  0.1573
25897W        W41971   4.205  17.227  12.435  0.0623  0.0082 -0.0886
25898W        W41972   5.866  10.914  12.603 -0.1583  0.0209  0.2303
25899W        W41973  16.520   7.442  11.432 -0.1000 -0.0881  0.0336
25900W        W41974  17.733   8.124  16.414  0.1024 -0.1368 -0.0685
25901W        W41975   4.458   4.693  15.743  0.2534  0.2419 -0.2115
25902W        W41976  10.807  13.933   0.469  0.2345  0.1732  0.1704
25903W        W41977   0.380   6.593   2.882 -0.2662  0.0762 -0.0270
25904W        W41978  10.855   4.520   2.465 -0.3676  0.0086 -0.2594
25905W        W41979   5.916  10.273  11.820  0.3042 -0.1649 -0.0030
25906W        W41980  15.026   8.154   0.261  0.1032 -0.5977 -0.0622
25907W        W41981  17.423   9.882   0.771  0.1761 -0.3191  0.1101
25908W        W41982   2.732  15.470  12.700 -0.3848  0.0815  0.0445
25909W        W41983  15.623  11.419  16.434  0.0011 -0.0518  0.2962
25910W        W41984  10.949  17.732   4.558 -0.0322 -0.1018  0.1370
25911W        W41985   7.317  12.170   4.661  0.1148 -0.0483  0.0871
25912W        W41986   3.423   9.400   1.082 -0.1728 -0.0892  0.0237
25913W        W41987  13.859  14.706   3.035  0.1608 -0.1544  0.0154
25914W        W41988  15.193   8.379  13.670  0.0946  0.2495  0.1169
25915W        W41989   5.300  16.047   3.597 -0.0957  0.0485 -0.0235
25916W        W41990  17.192  14.926  13.791 -0.1357 -0.1120 -0.1672
25917W        W41991   6.445   9.091  15.785 -0.0471 -0.3010  0.0061
25918W        W41992   9.155  13.981   2.404  0.1918  0.1987 -0.0236
25919W        W41993  16.021   7.306  11.543  0.0431  0.0981 -0.2893
25920W        W41994   2.736  15.545  14.696  0.1315 -0.0685  0.1975
25921W        W41995  18.081   5.728   0.624  0.1950  0.0748  0.3147
25922W        W41996   6.957   5.577  16.337  0.0289 -0.0403  0.3192
25923W        W41997   6.863  18.158  12.472 -0.2821  0.2104 -0.0963
25924W        W41998   1.549  16.286  14.336 -0.1602  0.2120  0.0398
25925W        W41999  11.993   8.806  14.710  0.2683 -0.0019 -0.3696
25926W        W42000   0.330   6.687  16.471 -0.0541  0.2344 -0.3175
25927W        W42001   2.202   5.062   4.262 -0.3891  0.0030  0.0995
25928W        W42002   0.282   1.854  12.846 -0.3180 -0.0425 -0.1774
25929W        W42003   6.828  11.476  15.568  0.3613 -0.0464 -0.1192
25930W        W42004  11.446  10.449   1.450  0.1401 -0.1188 -0.1579
25931W        W42005  10.374  13.597   5.847 -0.0679 -0.0347 -0.1830
25932W        W42006  17.318   6.355  13.795 -0.1565 -0.0620 -0.2126
25933W        W42007   7.608   9.800  16.180  0.2209  0.1513 -0.0877
25934W        W42008   4.294   6.930  14.160 -0.0174 -0.1333 -0.0662
25935W        W42009  17.681   7.701   0.784 -0.1520 -0.1961  0.0989
25936W        W42010  12.626   8.444   1.878 -0.1317  0.0607 -0.0998
25937W        W42011  15.049  11.588  12.447 -0.0793 -0.0434  0.0620
25938W        W42012  18.019   8.497  15.982 -0.2605 -0.0778 -0.2212
25939W        W42013  10.459  11.647  12.271 -0.0901 -0.0325  0.3034
25940W        W42014  17.335   4.444   4.064  0.2562  0.1166 -0.1141
25941W        W42015   7.891   7.144  11.577 -0.1547  0.0547  0.0752
25942W        W42016   7.264  13.756  14.010  0.1226 -0.1403  0.0054
25943W        W42017  12.437  13.180  15.109  0.1525 -0.1076  0.1453
25944W        W42018   0.008  11.127  12.713  0.0601 -0.1748 -0.1803
25945W        W42019  15.122   3.987   2.159 -0.3413 -0.2125 -0.0805
25946W        W42020   7.580   4.596   2.287 -0.2191 -0.2242  0.2399
25947W        W42021   1.703   7.081   6.134 -0.0620  0.0164 -0.0715
25948W        W42022  13.691  16.130   2.509  0.0820 -0.0751 -0.2226
25949W        W42023  10.286  12.606   0.759  0.0206 -0.1074 -0.1943
25950W        W42024   0.377   7.011  11.710 -0.0696 -0.0390  0.3494
25951W        W42025  11.626   0.101   1.881  0.1502  0.2860 -0.2394
25952W        W42026  15.426  15.167  16.493 -0.0540  0.0156 -0.0849
25953W        W42027   8.947   1.315  13.773 -0.1605  0.4810 -0.1842
25954W        W42028  15.608  14.304  11.643 -0.1318  0.0445  0.2469
25955W        W42029  12.099   8.506  15.236 -0.1113 -0.2082 -0.2091
25956W        W42030   9.363   8.880   0.753  0.0428 -0.0876 -0.1073
25957W        W42031  14.361  12.535  16.458  0.1329  0.2400  0.1722
25958W        W42032  18.151  13.339  15.363 -0.2183  0.0426  0.1970
25959W        W42033  15.403  14.914  15.115  0.1751 -0.1876  0.0859
25960W        W42034   9.796  14.023   2.415 -0.1466  0.1793 -0.2996
25961W        W42035   4.599   1.493  12.955 -0.1383 -0.2234  0.3236
25962W        W42036   8.613  16.407  15.957 -0.1732  0.0732  0.0848
25963W        W42037   7.098  13.171  13.331 -0.2347  0.4495  0.0041
25964W        W42038   4.314  15.326   2.393  0.1402  0.2180  0.0169
25965W        W42039   1.197  16.655   5.322  0.0726  0.3401 -0.0898
25966W        W42040   4.036   1.978  13.762 -0.0653  0.1887 -0.1979
25967W        W42041   3.602   7.276  12.103 -0.2846 -0.0432  0.0666
25968W        W42042   9.250   7.000   1.211  0.2505 -0.1039  0.2934
25969W        W42043   4.365   2.093   5.745 -0.0848 -0.1081  0.5010
25970W        W42044  17.832   6.696   5.302  0.2262 -0.2115  0.2420
25971W        W42045  11.543   4.473  13.763 -0.2435 -0.2222 -0.2456
25972W        W42046   0.975  16.560  11.460  0.3428  0.3080  0.3081
25973W        W42047   7.879  14.950  12.661  0.0968  0.1432  0.1075
25974W        W42048   5.929  17.288   4.178  0.0882  0.2634  0.0836
25975W        W42049  13.807  10.603   5.190  0.1110  0.0602  0.1268
25976W        W42050   4.333   9.893  12.149  0.1257 -0.1722 -0.0986
25977W        W42051   4.245   2.171  13.319  0.0971  0.2035  0.1229
25978W        W42052   1.443   2.428   5.552  0.0442  0.0328 -0.0654
25979W        W42053   0.390  17.396   4.344  0.1468  0.0260  0.1747
25980W        W42054  16.436   8.422  13.416 -0.0787 -0.0844  0.0983
25981W        W42055   2.327  10.537  14.996  0.0992 -0.0770 -0.2202
25982W        W42056  15.634  17.103  12.016 -0.2397  0.1174 -0.0593
25983W        W42057   8.922  14.474  16.432 -0.1740 -0.0292 -0.1018
25984W        W42058  17.047  13.227  13.790  0.0769  0.3759  0.0415
25985W        W42059   3.803   8.754   2.747  0.1294  0.1176  0.3224
25986W        W42060  11.331  10.806  12.102 -0.0333 -0.1449 -0.0553
25987W        W42061   2.523  17.169   0.656  0.0692  0.1601  0.0763
25988W        W42062   0.059   5.919  13.328  0.5582  0.3267  0.0930
25989W        W42063   2.363  11.187   0.945  0.1582 -0.0907 -0.1212
25990W        W42064  14.713   7.004  11.868 -0.1031 -0.3165 -0.1486
25991W        W42065   7.124   0.309  13.844  0.1514 -0.1010  0.2358
25992W        W42066   8.430   9.818   2.583  0.1951 -0.3425 -0.0552
25993W        W42067  11.836   7.808   5.367  0.3122 -0.0353  0.1046
25994W        W42068   2.218   4.077  16.494 -0.0922 -0.1606  0.1548
25995W        W42069   0.508   2.026   2.928  0.1439  0.0331 -0.0407
25996W        W42070   9.434  18.074   3.140 -0.5144  0.0605  0.0083
25997W        W42071  14.609   3.369  12.341  0.2486 -0.1337  0.2062
25998W        W42072  17.425   4.284   5.391  0.0339 -0.5001  0.0449
25999W        W42073  15.076   9.096   5.258  0.1900 -0.2622 -0.0143
26000W        W42074  10.765   4.801  15.363 -0.1235  0.1633 -0.0820
26001W        W42075   1.244  15.919  12.650  0.1513  0.1265  0.1985
26002W        W42076   4.432  13.602   2.146 -0.0440  0.2773  0.2486
26003W        W42077  11.623  16.143  14.992 -0.1350 -0.0087 -0.1087
26004W        W42078  13.019   2.404   4.696 -0.0547  0.2422 -0.0789
26005W        W42079   8.301  14.574   4.073 -0.0422  0.3553 -0.3112
26006W        W42080  11.375   1.229  14.787 -0.0089  0.0261 -0.3498
26007W        W42081   9.811   2.734   5.059  0.2614  0.3510 -0.1809
26008W        W42082   3.484  16.013   4.475 -0.0095  0.1730 -0.0411
26009W        W42083   4.711   6.711  16.261 -0.1438  0.1920 -0.1511
26010W        W42084  12.037  16.534   3.772  0.1088 -0.1018 -0.0419
26011W        W42085  12.017  14.800  12.478  0.1367  0.1591 -0.0280
26012W        W42086   8.653  14.294   1.201  0.1505  0.0750 -0.2356
26013W        W42087   2.377   2.988  12.502 -0.3827  0.0761 -0.1442
26014W        W42088   1.491   7.132   3.643  0.0370  0.3064 -0.2412
26015W        W42089   0.637   4.856  10.343  0.1323  0.0043  0.0584
26016W        W42090   3.114   4.286   5.441  0.2651 -0.0100  0.3927
26017W        W42091   5.240   7.527   2.884 -0.1136 -0.0347  0.2965
26018W        W42092  17.062  15.160   3.334  0.0908  0.3221 -0.0703
26019W        W42093  11.861   8.194   6.366  0.0256  0.2187 -0.0423
26020W        W42094  12.722   8.492   3.932  0.2066  0.2891 -0.2366
26021W        W42095   6.808  16.726   3.224  0.2150 -0.1434 -0.1548
26022W        W42096   5.747   1.468   2.185  0.2489 -0.4341 -0.2780
26023W        W42097   1.755   8.413   4.746  0.2692 -0.0716 -0.1554
26024W        W42098  14.860   8.977  14.337  0.1191 -0.1111  0.0503
26025W        W42099   3.472   0.191  11.213  0.1978 -0.0851  0.0989
26026W        W42100  10.286  11.066   1.832  0.0040  0.0167 -0.3329
26027W        W42101  12.843   1.557   1.795 -0.1428 -0.2955 -0.1972
26028W        W42102  14.499   0.329  15.194  0.0734 -0.2976 -0.1726
26029W        W42103   7.410   5.171   4.425  0.1137 -0.0507  0.0260
26030W        W42104  18.090   7.020   4.245  0.1716 -0.2377 -0.1500
26031W        W42105   3.243   7.418   5.044 -0.4204  0.2301 -0.1757
26032W        W42106   6.576  16.656  11.872 -0.0164  0.0954 -0.1646
26033W        W42107   8.914   7.426  16.251 -0.0748 -0.0906 -0.0789
26034W        W42108  15.064  12.153   0.955 -0.0349 -0.2814 -0.0417
26035W        W42109  16.357  15.172   5.688 -0.1372  0.2876 -0.2418
26036W        W42110   4.162  11.122   1.648 -0.1752  0.0116 -0.0994
26037W        W42111   4.632  17.019  13.746  0.1256 -0.0943 -0.1453
26038W        W42112  11.488  12.265   1.125  0.0135  0.1324  0.0410
26039W        W42113   1.674   6.846  14.714 -0.1508 -0.4319  0.6235
26040W        W42114   7.475   6.361  14.839  0.0809  0.2871 -0.1003
26041W        W42115  15.313  17.315  14.355 -0.0626  0.1626 -0.3847
26042W        W42116  13.473  12.345   0.879 -0.0935 -0.1399  0.0236
26043W        W42117   4.604  16.435  14.142 -0.2002 -0.0504  0.3259
26044W        W42118  15.383  18.150  14.012  0.1629 -0.0839  0.0669
26045W        W42119  15.543   2.075  15.069  0.0503  0.0542  0.2951
26046W        W42120   8.788   7.004  14.316 -0.0971  0.3702 -0.0536
26047W        W42121   3.948   4.475  13.507 -0.2742  0.0104  0.0757
26048W        W42122   9.972  11.595  12.179 -0.0021  0.2538  0.1699
26049W        W42123  15.555  11.592   4.915 -0.0760  0.5641  0.0951
26050W        W42124   2.119  10.650  13.414  0.3476  0.2099 -0.2330
26051W        W42125   0.318   0.862   4.167  0.0655  0.0748  0.0833
26052W        W42126   9.083   7.038   5.720 -0.1437  0.1298  0.0011
26053W        W42127   5.242   5.595  16.538 -0.0183  0.1706 -0.2345
26054W        W42128   8.817  17.142   1.925 -0.1971  0.0694  0.2730
26055W        W42129  13.385  13.964   2.124  0.1069  0.0077 -0.1664
26056W        W42130   7.327  15.080  14.571  0.0132  0.1457  0.1884
26057W        W42131  17.665   4.123  15.115 -0.2325  0.5453  0.0594
26058W        W42132  13.557  14.550  12.242  0.2021 -0.0514 -0.0711
26059W        W42133  17.507  13.992  12.098 -0.2913 -0.1356  0.2573
26060W        W42134  17.685   4.605   1.980 -0.0474  0.4161  0.0452
26061W        W42135   6.255  15.162   0.129 -0.2434  0.2212  0.2062
26062W        W42136  12.025  13.162  15.366  0.1188  0.1490  0.1675
26063W        W42137  15.967   3.847   0.564 -0.3381 -0.1338 -0.1915
26064W        W42138  11.890   5.963   4.513 -0.1718  0.1411 -0.2019
26065W        W42139   9.786   0.353   4.802 -0.3194 -0.1049 -0.4899
26066W        W42140  11.658   6.691  11.868  0.1910  0.2241 -0.0244
26067W        W42141   7.949  10.554  16.107  0.0641 -0.0114  0.0567
26068W        W42142   1.451   8.532  15.737  0.2805 -0.1160 -0.2796
26069W        W42143   6.120   6.663   5.326 -0.3573  0.2050  0.2839
26070W        W42144   3.911   4.079   4.693  0.0929 -0.0675  0.1925
26071W        W42145   7.504  16.143   0.639  0.2517  0.0165 -0.1753
26072W        W42146   6.963   5.227   0.659  0.0279  0.0947 -0.1640
26073W        W42147  12.251   3.288  15.625 -0.0621 -0.2220  0.0087
26074W        W42148   0.329   0.131   2.554  0.0538 -0.0921 -0.1703
26075W        W42149   5.901  17.529  12.661 -0.0960  0.1391  0.2399
26076W        W42150   5.174  12.414   3.589 -0.3870 -0.0707  0.0408
26077W        W42151  12.245   5.885   4.157  0.1923  0.0933  0.0754
26078W        W42152  10.534  16.710  11.627 -0.0082 -0.0616  0.1664
26079W        W42153   3.535   4.411  12.556 -0.0131 -0.0876 -0.1062
26080W        W42154   6.105   5.979   2.261  0.0506  0.0361  0.1810
26081W        W42155   4.668  13.171   4.109  0.0769 -0.0700 -0.3796
26082W        W42156   8.702   2.591   0.388 -0.2005 -0.0839 -0.0675
26083W        W42157   8.250   8.764  12.234  0.0411  0.2019  0.5200
26084W        W42158  16.812   2.304   0.939 -0.3861 -0.0159  0.3445
26085W        W42159   4.148   4.115   1.114  0.0696  0.1453 -0.2876
26086W        W42160  14.638   5.872   1.445 -0.0847  0.0981 -0.0335
26087W        W42161   3.212   3.280   1.914  0.1348 -0.0080 -0.0661
26088W        W42162  16.690  16.390   0.773  0.1976 -0.3599 -0.0132
26089W        W42163   3.870  13.597   4.263 -0.0025  0.0365  0.3829
26090W        W42164  17.051   1.807  13.094 -0.1230 -0.1070 -0.1757
26091W        W42165  18.004  14.777   4.335  0.5093 -0.3386  0.1103
26092W        W42166   1.840  14.691   2.057  0.2601  0.0153 -0.0564
26093W        W42167   4.340  15.034  15.146 -0.1255 -0.0309  0.2970
26094W        W42168  14.578   1.978  16.059 -0.3984  0.0483 -0.0971
26095W        W42169   8.996   0.936   2.690 -0.1395  0.0712  0.1233
26096W        W42170  15.821  10.827   5.461  0.2413 -0.0261 -0.3871
26097W        W42171   5.573   3.742   3.024 -0.1265 -0.0484  0.2136
26098W        W42172  14.985  14.577   5.281 -0.0558 -0.0361  0.3103
26099W        W42173  17.397   5.972   5.849  0.0169 -0.1988 -0.1564
26100W        W42174  16.676   8.511  15.045 -0.2832 -0.0310  0.0850
26101W        W42175   7.067   3.022  14.938 -0.0680  0.1145  0.2008
26102W        W42176   7.406  12.425  16.052 -0.0726  0.0109 -0.1095
26103W        W42177   7.858   0.157   1.868  0.2066  0.1364 -0.2997
26104W        W42178   5.033   6.783   3.821  0.1181  0.1435  0.0822
26105W        W42179   8.503   7.123   1.560 -0.1250  0.1341  0.0896
26106W        W42180   8.399   6.956  13.343 -0.0406  0.1409  0.1395
26107W        W42181  13.243   5.633   0.428  0.4352  0.1978 -0.0128
26108W        W42182   2.222   8.766  16.350 -0.0587  0.3271 -0.3085
26109W        W42183   2.648   5.580   5.016  0.1284  0.0361 -0.0537
26110W        W42184  13.988  11.426  12.641  0.1568 -0.0113  0.0638
26111W        W42185  15.843   8.089  15.522  0.4024  0.0200  0.2431
26112W        W42186   1.536   6.826  15.599  0.0999  0.1601  0.2964
26113W        W42187   9.674   9.665   6.112 -0.0614  0.3646  0.0997
26114W        W42188  10.564   5.476   4.655 -0.0483  0.2050  0.1307
26115W        W42189   4.129   4.130  12.391 -0.0734  0.2253  0.0079
26116W        W42190   2.930  10.008  16.065 -0.1362 -0.1151 -0.1102
26117W        W42191  15.400  11.818   0.752 -0.2408  0.0431  0.0939
26118W        W42192  12.686   9.988   2.514 -0.1994 -0.1462  0.0868
26119W        W42193   4.320   7.829  12.339 -0.1713 -0.1567 -0.2614
26120W        W42194  18.150   4.768  14.063 -0.1718 -0.0020 -0.1087
26121W        W42195  17.940  17.136  11.502 -0.0444  0.3407  0.0353
26122W        W42196   5.710   7.166  13.120 -0.0141 -0.1676 -0.1208
26123W        W42197  11.978   4.467  11.772 -0.0348 -0.0896 -0.1040
26124W        W42198   6.903   2.456   0.660  0.1979  0.1224  0.1859
26125W        W42199   4.917  12.265   0.843  0.4338 -0.1209 -0.1639
26126W        W42200   7.116  14.595  12.013 -0.2640  0.1653  0.3984
26127W        W42201   8.627   4.788  12.889 -0.1215  0.1839 -0.0574
26128W        W42202  11.459  15.350  16.279 -0.2412 -0.0710  0.1611
26129W        W42203  16.330   3.597  13.730  0.0414 -0.2015  0.0457
26130W        W42204   2.398   1.092  11.043 -0.1100  0.0923 -0.0936
26131W        W42205  14.184   2.329  13.049 -0.0913  0.0709  0.2126
26132W        W42206  14.450  12.704   3.021  0.0302  0.1313  0.0150
26133W        W42207  17.615   5.357  14.584  0.0670 -0.1235  0.1579
26134W        W42208   7.150   6.922   3.246 -0.3624  0.0310  0.3537
26135W        W42209  12.692  10.151   3.315 -0.0174  0.1406 -0.0235
26136W        W42210  12.350  17.982   5.567 -0.0167  0.0105 -0.2288
26137W        W42211   2.869   7.203   3.743 -0.0617 -0.1428  0.0020
26138W        W42212   3.852  17.103   3.860 -0.2216 -0.1471  0.1489
26139W        W42213   1.960  16.359   0.266 -0.2362 -0.0080 -0.3051
26140W        W42214   0.463   0.881   1.116  0.1071  0.0032 -0.6197
26141W        W42215  16.922  11.067  16.034  0.1764  0.0226 -0.1173
26142W        W42216   8.211   1.553   1.656 -0.1057 -0.2541  0.2043
26143W        W42217  16.229  13.674  13.977 -0.0929 -0.0225  0.0454
26144W        W42218   4.337   9.265   2.225  0.1568  0.0154 -0.0482
26145W        W42219   5.002   4.066  15.382 -0.0264 -0.4483 -0.1568
26146W        W42220  11.705  11.226  16.139 -0.2288  0.2652  0.2743
26147W        W42221  12.970  13.285   2.884  0.3005  0.0350  0.1120
26148W        W42222  17.282  11.047   3.520  0.0291 -0.0423  0.0749
26149W        W42223  10.114  12.428  13.362  0.1802  0.0167  0.3510
26150W        W42224   8.702  17.500  12.478  0.2176  0.2904  0.0056
26151W        W42225   4.349   9.172  15.953 -0.0755 -0.0879 -0.1968
26152W        W42226   4.534   9.482  15.187 -0.3485 -0.1123  0.2396
26153W        W42227   3.382   9.756  16.248  0.3861  0.2124  0.2092
26154W        W42228   7.710  15.712   1.686  0.1931  0.1805  0.0478
26155W        W42229   7.213   4.374   1.180  0.2453 -0.0074 -0.1948
26156W        W42230   1.643   2.335  13.386  0.1361  0.0969 -0.0525
26157W        W42231  16.223  13.420   0.951  0.1251  0.4047  0.1485
26158W        W42232   3.613  14.132  15.398  0.4292  0.0735 -0.3918
26159W        W42233   8.944  14.065   2.892 -0.1065 -0.0218  0.0866
26160W        W42234   5.317  18.211  12.768  0.0196  0.1624 -0.2421
26161W        W42235   9.203   9.403   0.668  0.0173 -0.1806  0.0916
26162W        W42236  14.284  12.874   1.054  0.0345 -0.0797 -0.1495
26163W        W42237  17.904   4.290   1.648 -0.1561 -0.0463 -0.0106
26164W        W42238   9.192  16.170  13.765 -0.1229 -0.0874  0.3587
26165W        W42239  16.330   5.404  13.804  0.0222  0.1256  0.0022
26166W        W42240  17.581   9.662  14.023  0.0019 -0.0385 -0.2320
26167W        W42241  11.885  18.119  11.552 -0.1732  0.1845 -0.1211
26168W        W42242  12.008  14.846   3.094  0.1818 -0.1153 -0.2195
26169W        W42243  17.814  15.595   3.939  0.0079  0.1789 -0.2501
26170W        W42244  10.061   3.770   5.007 -0.2612 -0.1092 -0.1986
26171W        W42245  14.880  18.119  15.271 -0.4093  0.1125 -0.2342
26172W        W42246   4.198   4.033  13.746 -0.0654 -0.3252 -0.4395
26173W        W42247  17.313   8.268   0.029  0.0201  0.2579 -0.0262
26174W        W42248   9.831  17.195   1.790 -0.1435 -0.2804  0.0439
26175W        W42249   9.337  12.747  14.061  0.0459  0.2222 -0.2827
26176W        W42250   5.174  18.182  11.317  0.2853 -0.0413  0.1442
26177W        W42251  15.120   7.241  14.286  0.0815  0.2938  0.1976
26178W        W42252   8.364  15.135   4.798  0.2366  0.2458  0.1468
26179W        W42253   5.948  12.976   1.094 -0.1816 -0.1290 -0.1244
26180W        W42254  10.739   3.464   3.486 -0.0549 -0.1999  0.1318
26181W        W42255  15.855  11.668  11.410 -0.0353  0.2839  0.2950
26182W        W42256   0.128  17.224  11.269 -0.1154 -0.1383  0.1561
26183W        W42257   3.294   9.359  14.817 -0.1498  0.3407  0.0862
26184W        W42258   3.463  13.741   4.962  0.3085 -0.1623  0.1114
26185W        W42259  17.781   9.954   2.351  0.0923 -0.1092 -0.1188
26186W        W42260   2.692  14.412   5.883 -0.1617 -0.1189 -0.0824
26187W        W42261   4.999   3.556   1.384  0.2179  0.0476 -0.1626
26188W        W42262  16.374   8.587   0.161  0.1771 -0.1147 -0.2659
26189W        W42263   6.229  18.222  13.328 -0.0056 -0.3766  0.1856
26190W        W42264  10.050   6.738   2.513 -0.0231  0.0763  0.1177
26191W        W42265  16.724  17.172   3.670  0.2907  0.1572 -0.2989
26192W        W42266   0.183  13.063   2.474 -0.0430  0.1355 -0.2451
26193W        W42267  14.889   3.989  13.042 -0.0415  0.1144  0.4702
26194W        W42268   1.319  13.437   5.945  0.2557 -0.0096 -0.0578
26195W        W42269   9.630  17.759  15.462  0.2492  0.2326 -0.1801
26196W        W42270  12.808   9.047   4.700 -0.1015  0.2412 -0.1373
26197W        W42271  12.544   3.432  14.090 -0.0637  0.0758 -0.0062
26198W        W42272   3.797   6.376   0.067  0.1681  0.1107 -0.0399
26199W        W42273  16.901  15.489  16.442 -0.3253  0.2381 -0.0798
26200W        W42274   7.893   3.694   0.773  0.2186 -0.1370 -0.0170
26201W        W42275  14.903  17.521  16.070 -0.0275  0.0247 -0.2550
26202W        W42276   5.542   1.720   3.993 -0.1981 -0.0064 -0.0184
26203W        W42277  11.572   6.721  15.996 -0.3526 -0.2476  0.2563
26204W        W42278  15.382   2.612   0.252  0.1425 -0.3365 -0.2601
26205W        W42279  10.496  16.996  12.095  0.0483 -0.3332  0.2205
26206W        W42280   4.895   1.029   4.101  0.0696 -0.0870  0.1247
26207W        W42281   2.208  14.407  16.194 -0.0528 -0.0668 -0.1375
26208W        W42282   2.813   6.058  16.508 -0.1180  0.1682 -0.0042
26209W        W42283   5.410   3.706   4.760 -0.1579 -0.2139  0.0949
26210W        W42284   0.643   2.887  16.032  0.1076  0.2239 -0.1603
26211W        W42285  11.830  12.651   5.793 -0.1303  0.2319  0.2262
26212W        W42286  10.771  14.137  14.755 -0.2392 -0.2434 -0.0586
26213W        W42287  18.177   3.296   3.245 -0.1881 -0.1636 -0.0747
26214W        W42288   4.858   6.800   5.672  0.1719 -0.2794 -0.0773
26215W        W42289   3.613   5.963   4.926 -0.0615  0.0236  0.1084
26216W        W42290  12.104   8.568   4.526  0.1432 -0.2248 -0.1956
26217W        W42291   7.004  13.697   4.765 -0.1979  0.0664  0.0597
26218W        W42292  15.655   8.314   4.447  0.0484 -0.1032 -0.0578
26219W        W42293  12.377  17.311   0.552 -0.0951  0.1221  0.1712
26220W        W42294   7.984   2.509   5.679  0.2723 -0.1255 -0.0076
26221W        W42295  14.454  15.769   1.785 -0.0535 -0.1376 -0.2329
26222W        W42296   1.679   7.339   0.382 -0.0549 -0.0779  0.0469
26223W        W42297  11.650  10.357  13.980 -0.1826 -0.2656 -0.0507
26224W        W42298  13.904  11.849  14.445 -0.0950  0.2622 -0.1038
26225W        W42299   4.904   4.308   5.218 -0.2749 -0.1638 -0.0889
26226W        W42300  14.882  10.489  13.998 -0.0241 -0.0826 -0.0482
26227W        W42301  15.730   5.106   2.999  0.0422  0.2745  0.2944
26228W        W42302   5.627  10.553   3.599  0.0925 -0.2959 -0.4201
26229W        W42303   6.579   0.933   3.181 -0.1579 -0.1003  0.1892
26230W        W42304   0.617   6.043  11.640  0.0841  0.0439  0.4210
26231W        W42305   7.219  14.108  13.101  0.1871  0.3575 -0.2922
26232W        W42306   2.540  13.332  11.716 -0.0834  0.0239 -0.0830
26233W        W42307   1.258   0.069   2.613  0.1618  0.1911 -0.3165
26234W        W42308   6.393   0.732   1.058 -0.3428 -0.0171  0.0697
26235W        W42309  15.444   6.072   5.347  0.3532 -0.1689  0.1166
26236W        W42310   6.097   2.192  13.060  0.1810  0.2446  0.0672
26237W        W42311   8.621  12.350   2.336  0.1987 -0.1652  0.0157
26238W        W42312   2.359  13.050   2.546  0.1856  0.0437 -0.5511
26239W        W42313  11.129  15.607   1.937 -0.1775 -0.0494  0.1767
26240W        W42314   1.029   8.364  15.508 -0.0158 -0.2695  0.2367
26241W        W42315  18.014   0.174   3.763 -0.0296 -0.3213  0.1152
26242W        W42316  11.491   5.208  11.806  0.0406  0.0166  0.0615
26243W        W42317  13.411   9.574  11.842  0.0743 -0.0091  0.0396
26244W        W42318   7.284   9.583   3.375  0.1244  0.1951  0.0603
26245W        W42319   6.946   8.591  13.393  0.0446  0.0244 -0.2447
26246W        W42320   8.669  12.414  13.491 -0.1218 -0.0276 -0.0044
26247W        W42321  14.363  11.308  12.988 -0.0240 -0.1260  0.2931
26248W        W42322  12.358   8.446  15.992 -0.3868 -0.0116  0.1004
26249W        W42323   2.256  12.145  15.629  0.0130  0.2088 -0.2247
26250W        W42324   4.726  16.691   1.845 -0.0950  0.0626 -0.2071
26251W        W42325   9.519   7.523  15.017  0.0399 -0.0240 -0.4106
26252W        W42326   1.137   0.808   3.076 -0.2172 -0.2022  0.2169
26253W        W42327  10.201  13.637  14.460 -0.3281 -0.0118  0.1149
26254W        W42328  10.797  16.042   5.141  0.0233  0.1267  0.2080
26255W        W42329   1.905  13.719  15.761 -0.0969  0.0954  0.3002
26256W        W42330   5.712   9.077   3.691 -0.0510  0.2115 -0.3011
26257W        W42331  15.197   9.231   2.548 -0.0171 -0.1375 -0.1064
26258W        W42332   0.570  14.030   0.750 -0.0464  0.0108 -0.3034
26259W        W42333   0.412   3.385   0.234 -0.0052 -0.1775 -0.1404
26260W        W42334   7.311   8.182  13.206  0.2794  0.1666  0.1102
26261W        W42335   0.584  14.751   0.707  0.2165  0.1278 -0.0085
26262W        W42336  16.895  13.499   1.026  0.2796  0.4767 -0.1507
26263W        W42337  16.828   6.384  12.818 -0.0291 -0.0425 -0.0961
26264W        W42338  16.187  16.533   3.255 -0.0923 -0.2257  0.0086
26265W        W42339   3.606   8.342  16.546  0.0312  0.0045 -0.1049
26266W        W42340  15.251   6.206  11.614 -0.1698 -0.0049  0.0830
26267W        W42341   3.777  14.712   2.255 -0.1540  0.1707  0.0730
26268W        W42342  14.124   3.611   0.746  0.1738  0.1514 -0.1210
26269W        W42343  10.067  11.068  13.393  0.1116 -0.0737  0.3513
26270W        W42344   9.712  15.892   2.346  0.0453  0.0757  0.2565
26271W        W42345  13.029   6.730   5.211  0.0151 -0.2404  0.0166
26272W        W42346  14.838   2.509   2.000 -0.0051 -0.2317 -0.3052
26273W        W42347  16.924  11.412  13.828  0.0961 -0.3652 -0.1066
26274W        W42348   2.211  14.772   0.353  0.0362  0.1845  0.0143
26275W        W42349   9.578   4.225   1.676 -0.1084  0.0138  0.1001
26276W        W42350   1.011  17.210  10.673 -0.0442 -0.1681  0.1175
26277W        W42351   2.569   6.700   1.105  0.2388  0.2417  0.3124
26278W        W42352   1.386   2.680   4.633  0.0528 -0.0596  0.0859
26279W        W42353   8.806   2.067   2.327  0.5931 -0.0412  0.2987
26280W        W42354   2.753   3.454   1.765  0.0417  0.2250  0.0885
26281W        W42355   1.627   8.221   0.642 -0.2124  0.1628 -0.3247
26282W        W42356   4.573   7.635   4.908  0.1733  0.0944  0.1887
26283W        W42357   4.982  14.314  12.960  0.2370 -0.0233 -0.0683
26284W        W42358   5.971  16.479   2.697  0.1818 -0.3121  0.1038
26285W        W42359   1.410  14.515   5.181  0.3757  0.1071 -0.0145
26286W        W42360   0.304  12.804  16.140  0.0573  0.2074  0.0136
26287W        W42361   6.015   9.680  15.340  0.3354 -0.2256  0.0704
26288W        W42362  18.065   2.972  11.878 -0.1792  0.2705 -0.0242
26289W        W42363   6.143   9.311   5.037 -0.0874 -0.0588  0.0278
26290W        W42364  17.588  13.150  13.595  0.1801  0.2082  0.1459
26291W        W42365   9.425  11.499   0.086  0.1059  0.3516  0.0082
26292W        W42366   0.599   8.414   0.288 -0.0915 -0.1068  0.2261
26293W        W42367  10.322  13.148  15.234  0.0465 -0.0902  0.0953
26294W        W42368   0.738   6.283  15.785  0.1075  0.2253 -0.3328
26295W        W42369   1.727   2.955   3.072  0.0067  0.4541 -0.1467
26296W        W42370   7.404   0.029   2.090  0.2196  0.1976  0.0751
26297W        W42371   5.687  17.253  14.433  0.0919 -0.2638 -0.1426
26298W        W42372  10.684   4.692   5.213  0.2812 -0.1061  0.2140
26299W        W42373   6.086   9.851  16.319  0.1473  0.1499  0.1394
26300W        W42374   9.661  17.479  15.010 -0.3430  0.0166  0.0136
26301W        W42375  10.998   9.787  11.398 -0.3857 -0.1345  0.0642
26302W        W42376   2.695   3.697  11.375 -0.0242  0.0707  0.1011
26303W        W42377  12.489  16.975   4.490 -0.1850 -0.0520  0.2000
26304W        W42378  13.759   5.714   6.210  0.1043  0.0052  0.0019
26305W        W42379   9.211  10.977  14.462 -0.0316 -0.0153  0.2475
26306W        W42380   4.271  13.577  15.863 -0.1564 -0.0109  0.0360
26307W        W42381   1.517   5.089  14.580  0.3487 -0.1099 -0.2420
26308W        W42382   5.965   7.365   3.558  0.2735  0.0784 -0.0773
26309W        W42383  12.641  13.117  11.058 -0.4551 -0.1110  0.2531
26310W        W42384  13.419  11.153   0.769 -0.2073  0.2709  0.0403
26311W        W42385   4.203  16.307   2.637  0.3266 -0.1805 -0.2756
26312W        W42386   4.637   7.848   4.486  0.1583 -0.1787  0.2532
26313W        W42387   3.825   9.648  15.982  0.1102 -0.0098 -0.2869
26314W        W42388   1.903   5.588   1.565  0.2631  0.0419 -0.1017
26315W        W42389   1.782  13.326  15.426  0.1009  0.0067 -0.1198
26316W        W42390  11.405   2.908  15.481 -0.0227 -0.0218 -0.0306
26317W        W42391   7.315   7.821   3.044  0.0848  0.3608 -0.0627
26318W        W42392   0.958   7.123  15.794  0.0212 -0.3391 -0.2581
26319W        W42393   7.531  15.275  13.682 -0.0994  0.1695  0.2196
26320W        W42394  17.719   0.732   5.091 -0.0575 -0.0940 -0.0694
26321W        W42395  13.107   9.050  13.444 -0.1407 -0.1187 -0.1916
26322W        W42396   6.980   3.155  12.869 -0.0147 -0.0020  0.1546
26323W        W42397  17.822   2.494   2.914 -0.3844  0.1868  0.0968
26324W        W42398  10.627  13.388   5.506 -0.0229  0.0990  0.1350
26325W        W42399   8.099   1.113  15.039 -0.2784 -0.2325  0.2403
26326W        W42400   4.129   8.412  12.164 -0.1306 -0.0476  0.0290
26327W        W42401  15.414  16.891   0.741 -0.0189 -0.1457 -0.0434
26328W        W42402   7.838  14.462   2.462  0.1059 -0.0457  0.0336
26329W        W42403   5.786   2.899   3.479  0.0927 -0.1867 -0.3662
26330W        W42404  16.685   0.550  13.702 -0.0535 -0.0671 -0.0353
26331W        W42405  15.360   7.748  13.799  0.2719 -0.1007  0.0703
26332W        W42406  16.081  16.701  11.199  0.1116  0.2920 -0.1428
26333W        W42407  12.789  18.184   5.358 -0.3478 -0.3187 -0.1528
26334W        W42408  13.990   4.349  11.876 -0.1154  0.0259  0.1807
26335W        W42409   6.387   9.973  12.593 -0.3978  0.0539  0.2374
26336W        W42410   7.339   2.943   5.052  0.2063  0.0656 -0.1898
26337W        W42411  10.749   9.672   4.656  0.2811 -0.0461  0.3173
26338W        W42412   0.356  12.156   1.986 -0.3014 -0.1077  0.2561
26339W        W42413  13.287   4.508  13.729  0.0938  0.2228  0.0771
26340W        W42414  16.101   1.992   3.454  0.1323  0.2038  0.0550
26341W        W42415   0.266  11.918   1.510 -0.1342  0.1360 -0.2139
26342W        W42416   3.940   1.143   2.437  0.3586  0.1526 -0.1375
26343W        W42417   7.781   4.899  13.630  0.3086  0.0933  0.1257
26344W        W42418   6.517  16.929  14.859 -0.2107  0.3621  0.2033
26345W        W42419  13.931  17.989  15.591  0.2353  0.1372 -0.5196
26346W        W42420   9.342   2.077  16.516 -0.0385  0.0705  0.0507
26347W        W42421  18.089   0.760  15.119 -0.2150 -0.3240  0.0157
26348W        W42422  10.202  11.680   2.580  0.0352  0.2677  0.3421
26349W        W42423   6.383   0.688   1.537 -0.3772 -0.0954 -0.0352
26350W        W42424  16.493   2.712  10.890  0.0620 -0.0445 -0.0258
26351W        W42425  16.501   1.326   1.257  0.1499 -0.3102 -0.1654
26352W        W42426   7.767   1.745  13.181 -0.3305 -0.0892 -0.0108
26353W        W42427   6.983   0.567  14.650 -0.0553 -0.2444 -0.0282
26354W        W42428   4.700   8.706  15.871  0.2337 -0.0859 -0.1107
26355W        W42429  13.978  15.455   1.161 -0.0598 -0.1533 -0.0667
26356W        W42430   3.149   7.480  12.290  0.3246 -0.2386  0.1629
26357W        W42431  11.596   8.412   0.249 -0.1612  0.1654  0.0159
26358W        W42432  16.066   0.716   0.750 -0.0245  0.2569  0.0766
26359W        W42433  16.259  10.636   3.467  0.1737 -0.1672  0.1048
26360W        W42434  12.557  17.673  16.268 -0.0041 -0.1572  0.0429
26361W        W42435   7.325   4.257   5.124 -0.0097  0.2109 -0.0941
26362W        W42436   1.222  10.167  15.857  0.2622  0.2794  0.0501
26363W        W42437  11.089  11.643  13.573  0.6779 -0.1585 -0.1140
26364W        W42438  11.211   2.359  16.183  0.0354 -0.2201 -0.2489
26365W        W42439   0.734   5.615  16.184 -0.1014  0.1766  0.1306
26366W        W42440  15.422   0.542   0.907  0.1704 -0.0414 -0.2273
26367W        W42441  16.180   0.223   3.358 -0.3322 -0.1165  0.1126
26368W        W42442   0.463   3.430   3.213  0.0695  0.1290 -0.1197
26369W        W42443   8.829  16.844  16.219 -0.1458  0.0947 -0.1979
26370W        W42444   3.161   6.225  15.252  0.0007  0.2594 -0.2199
26371W        W42445   7.724  18.101  14.512 -0.1309  0.0910  0.0005
26372W        W42446  10.874   7.761   5.881  0.1201  0.1911 -0.3324
26373W        W42447  12.637   5.395   1.953  0.0125  0.2220  0.3765
26374W        W42448   1.534   6.814  10.973  0.0249  0.1041 -0.2688
26375W        W42449  13.630  15.957  13.319 -0.1572 -0.1992 -0.0450
26376W        W42450  13.537   6.317   1.607 -0.1556  0.0628 -0.4242
26377W        W42451   5.597  10.370  14.349  0.0041 -0.2797  0.0897
26378W        W42452   7.313  11.866   0.762 -0.0012  0.2274 -0.1837
26379W        W42453  10.325  16.392  12.711 -0.0155  0.1676 -0.0986
26380W        W42454   0.769  13.112  13.276  0.1738  0.0467 -0.0756
26381W        W42455   0.937  12.263   2.448  0.1153  0.3439 -0.0001
26382W        W42456  13.386   4.450  12.775 -0.4784  0.0257  0.0924
26383W        W42457  18.156   3.986  11.371  0.2910 -0.0024  0.0274
26384W        W42458  12.085   2.991   5.203 -0.0550  0.1073 -0.2912
26385W        W42459  11.438   3.986  13.552  0.0838 -0.0464 -0.5491
26386W        W42460   4.007   4.194   3.869  0.1916  0.0277 -0.0775
26387W        W42461   9.462   0.729  12.816  0.0236 -0.0369 -0.0517
26388W        W42462  14.959  14.191  12.946 -0.1655 -0.1712 -0.1464
26389W        W42463   6.180  14.793  13.090  0.1528 -0.1914 -0.0476
26390W        W42464   1.467  11.474   2.332  0.0888  0.0742 -0.3303
26391W        W42465   8.528  13.495   1.802 -0.3085 -0.3458 -0.1884
26392W        W42466   8.328   1.650  11.978 -0.0952 -0.0633 -0.2629
26393W        W42467  10.815   7.229   3.448  0.0789  0.1275  0.0352
26394W        W42468   6.391   6.413   2.633  0.0084 -0.1533 -0.2440
26395W        W42469  17.485  12.343  12.333  0.0006 -0.2507  0.1161
26396W        W42470   8.951   4.969   3.717 -0.1018  0.2819 -0.0123
26397W        W42471   6.315   6.803   0.595  0.2735 -0.0304 -0.1009
26398W        W42472  10.468  13.099  16.438 -0.1450  0.0212 -0.3388
26399W        W42473   9.011  16.135   1.644  0.1750  0.3402 -0.1583
26400W        W42474  10.283   1.428   3.306 -0.0608 -0.3749 -0.0408
26401W        W42475   9.238  14.183  16.205  0.0204 -0.1452  0.4187
26402W        W42476  11.105  15.276   6.334 -0.4144  0.0440  0.2103
26403W        W42477  16.854   3.250  13.219 -0.0132  0.2884  0.0064
26404W        W42478   1.746   2.605   2.676  0.0918 -0.3099 -0.2389
26405W        W42479   7.823  18.145   3.889 -0.1695  0.0765 -0.0543
26406W        W42480   6.791  10.169   3.846  0.0541  0.1637 -0.0979
26407W        W42481   3.947  12.528   2.948 -0.0115 -0.0825  0.1234
26408W        W42482   9.947   3.165   6.328 -0.1750  0.5062  0.2529
26409W        W42483   2.723   1.359   1.554 -0.1201 -0.0239  0.1006
26410W        W42484   5.928   0.584   1.251 -0.0579  0.0427  0.1352
26411W        W42485   5.559   1.842  16.482 -0.2517 -0.2007 -0.1760
26412W        W42486   8.705   9.796   1.026 -0.1931  0.0769 -0.0337
26413W        W42487  10.148   8.181   0.236  0.0564  0.2319 -0.0936
26414W        W42488   3.611   3.890   1.987  0.1306  0.3204  0.0301
26415W        W42489  16.482  15.441   3.848  0.2918  0.1189  0.0051
26416W        W42490  17.081   6.775   4.668  0.0809 -0.1058 -0.0701
26417W        W42491  13.717  10.467  12.762 -0.0290 -0.2113 -0.1999
26418W        W42492   6.234  10.273  13.066 -0.2121  0.0088  0.1697
26419W        W42493   8.908   0.251  16.214 -0.0509  0.1400 -0.0905
26420W        W42494   8.710   8.904   5.325 -0.6441 -0.3712 -0.0703
26421W        W42495   8.068   9.085   3.340 -0.0111 -0.3562  0.0365
26422W        W42496  11.550   2.011  16.085  0.1301 -0.0009  0.2304
26423W        W42497   2.238  15.477  15.923 -0.0656  0.1684 -0.1153
26424W        W42498   1.471  14.667   1.719 -0.1699 -0.1921 -0.1430
26425W        W42499  15.982  12.903  10.445 -0.2115 -0.0843 -0.3071
26426W        W42500   6.220   8.920  12.691  0.1134  0.2226 -0.1721
26427W        W42501  16.240   9.241  12.944 -0.1059 -0.1523  0.1282
26428W        W42502   1.907   3.257  15.563  0.1063 -0.1218 -0.1141
26429W        W42503  18.025  11.057   5.539  0.2735  0.1148  0.3468
26430W        W42504  12.334  17.720  14.704  0.0248  0.0866 -0.0260
26431W        W42505  17.542   8.562   5.150 -0.1908 -0.2928 -0.1214
26432W        W42506   8.747  11.649   1.214 -0.0922 -0.0484 -0.1216
26433W        W42507   6.507  15.865   1.581 -0.0648  0.2776 -0.0686
26434W        W42508   5.333  17.839   4.374  0.0665 -0.1322  0.0002
26435W        W42509   5.316   9.976   4.116 -0.2452  0.0153 -0.2554
26436W        W42510  14.126   5.930   2.749 -0.2350  0.0812 -0.1276
26437W        W42511   8.614   9.065  11.417 -0.2133 -0.4029  0.0525
26438W        W42512   8.532  14.591  13.824 -0.2434 -0.0952  0.0135
26439W        W42513   7.294  11.616  15.530 -0.3568 -0.1509 -0.0990
26440W        W42514   3.635   4.463   4.934 -0.2539  0.0234 -0.2471
26441W        W42515  13.625   5.332   4.234 -0.1309 -0.1621  0.2806
26442W        W42516  11.245  14.369  13.037 -0.0720  0.0784 -0.0405
26443W        W42517   6.749  11.553  15.068 -0.0999 -0.2187  0.0693
26444W        W42518   3.988  12.031  12.360  0.1352  0.0188 -0.0525
26445W        W42519   1.921   5.741   2.934 -0.2418 -0.1618  0.1594
26446W        W42520   9.653  17.566  12.228 -0.2926  0.2612  0.1541
26447W        W42521  12.733   4.240  12.360  0.1486  0.1672  0.0757
26448W        W42522  16.015   2.426   3.121 -0.1072 -0.2330 -0.2132
26449W        W42523   9.623  12.815   0.443 -0.0666 -0.0735 -0.1419
26450W        W42524  17.168  16.442   5.367  0.0647 -0.0349  0.1248
26451W        W42525  11.646  18.071   3.436  0.0221 -0.1881 -0.1143
26452W        W42526   3.672   7.010   5.175  0.0995  0.0358 -0.1416
26453W        W42527   7.520  17.346  11.789  0.0021  0.1173  0.0605
26454W        W42528   3.867  16.603  16.141 -0.0543 -0.1488  0.0545
26455W        W42529  17.104  10.122   3.755  0.3078 -0.0171  0.1362
26456W        W42530   5.210   5.907  13.741 -0.3031 -0.0798  0.1746
26457W        W42531  15.027   4.990   5.176 -0.3307  0.1336  0.2062
26458W        W42532  14.946   4.464  11.797 -0.1935 -0.3414  0.1363
26459W        W42533  12.612   5.531  14.228 -0.1505  0.2235  0.3204
26460W        W42534  11.262  18.165   1.532  0.0317 -0.0070  0.2589
26461W        W42535  18.101  11.756   0.179 -0.1120  0.0342 -0.0809
26462W        W42536  13.528  10.503   5.602  0.0841 -0.0378  0.3525
26463W        W42537  17.866  15.273   4.459  0.3376  0.0599 -0.0213
26464W        W42538   1.107   6.792   1.434 -0.2075 -0.0411 -0.2057
26465W        W42539  17.767  11.165  12.471 -0.0176  0.0287 -0.1629
26466W        W42540  11.132   1.459   5.226 -0.1312 -0.3007 -0.1456
26467W        W42541  16.122  16.121  13.528 -0.0556 -0.1934  0.1030
26468W        W42542  15.456   0.387   3.281  0.0016  0.0223  0.1392
26469W        W42543   3.017   9.703   4.380 -0.0597 -0.0006  0.0090
26470W        W42544   2.998  12.567   1.067 -0.0322  0.3137 -0.2466
26471W        W42545  15.991  14.171  12.009  0.0142  0.0339 -0.2759
26472W        W42546  14.327   9.466   3.750 -0.2241 -0.3723  0.3287
26473W        W42547  11.719  13.561  13.542 -0.1852  0.1603 -0.1519
26474W        W42548   0.000  12.619   2.823 -0.0630  0.2448 -0.0060
26475W        W42549  13.284  14.604  13.455  0.1619 -0.1915 -0.0839
26476W        W42550  11.616  12.644   0.108  0.1582  0.1132  0.0249
26477W        W42551   1.968   4.116  11.025  0.0538  0.2779 -0.1227
26478W        W42552  12.714  11.086   6.135 -0.0563 -0.1792 -0.2290
26479W        W42553  11.583   7.170  13.305 -0.0197 -0.1734  0.2752
26480W        W42554  16.114  11.885  13.630 -0.1606 -0.0465  0.3257
26481W        W42555  17.508  18.037   4.544  0.3233 -0.1264 -0.0188
26482W        W42556  17.007  12.231   2.832 -0.0235 -0.0035 -0.3183
26483W        W42557  14.418   1.513   2.771 -0.0119 -0.2381  0.0791
26484W        W42558   1.185   0.398   1.634  0.1075  0.1036  0.2060
26485W        W42559   5.030  12.305  12.592  0.3259 -0.1453  0.0249
26486W        W42560   4.411   7.147  15.620  0.0148 -0.0624 -0.1340
26487W        W42561   2.189  12.632  15.302 -0.2657  0.0188  0.0555
26488W        W42562   7.393  12.141  13.769  0.0571 -0.1370 -0.0158
26489W        W42563  14.667   0.593   3.770  0.2441  0.1127  0.0859
26490W        W42564   3.847   1.263   0.947  0.0242  0.0151 -0.0644
26491W        W42565  15.681  15.067  11.147  0.1599 -0.0499  0.2944
26492W        W42566  10.125  14.875   3.681  0.1800  0.0486  0.0419
26493W        W42567  12.544  10.216   1.738 -0.0427  0.3822 -0.1429
26494W        W42568  18.118  13.854   1.446  0.0547  0.0209 -0.0547
26495W        W42569  16.082  12.541   3.243 -0.1497 -0.1506  0.1053
26496W        W42570   1.060   7.717  13.180  0.1640  0.2284  0.2980
26497W        W42571   1.948  13.295   4.785  0.3644  0.0907  0.1807
26498W        W42572  10.563   2.300   0.655  0.0408  0.1554  0.0804
26499W        W42573   9.929   6.352   3.216 -0.2172 -0.0540  0.6464
26500W        W42574   0.413  10.071  12.890  0.1600  0.1348 -0.2514
26501W        W42575  11.346  13.784  15.620 -0.0860  0.0645 -0.3759
26502W        W42576   3.575  17.089   1.118  0.1337  0.0618 -0.0424
26503W        W42577   7.684  11.224   3.819 -0.0058  0.0303  0.3092
26504W        W42578   8.354   8.971   0.561 -0.2390  0.1730 -0.1105
26505W        W42579  14.892   3.345   1.284 -0.2176  0.0913  0.0163
26506W        W42580   4.206  18.089   6.060 -0.0214  0.0099  0.1239
26507W        W42581   5.410   8.804  12.984  0.3054 -0.0794  0.3019
26508W        W42582  15.030  11.457  16.374  0.1612 -0.0569 -0.1764
26509W        W42583  10.952  11.723  14.522 -0.3200 -0.0082 -0.1455
26510W        W42584  11.844   2.837   2.562  0.0917 -0.0615 -0.0975
26511W        W42585   0.493  15.485   4.947  0.1224  0.0303 -0.1120
26512W        W42586   0.122   4.448   3.611  0.1045 -0.3900 -0.1481
26513W        W42587  17.103   6.178   1.846 -0.3004  0.0176  0.3118
26514W        W42588  14.764  15.463  12.331  0.1546 -0.1004  0.0169
26515W        W42589   3.305   4.853  12.960  0.0103 -0.0479 -0.1624
26516W        W42590  11.269  12.799  15.448 -0.0518 -0.1936  0.3857
26517W        W42591  13.769  18.208   2.506  0.0579  0.2693  0.0651
26518W        W42592   8.763  13.334  12.762  0.0228  0.0310  0.0414
26519W        W42593  17.205   5.892  14.021 -0.0253 -0.0065  0.2742
26520W        W42594   6.528   1.989   2.406 -0.1398  0.0425 -0.0286
26521W        W42595  12.272   4.294  14.727  0.0975  0.0044  0.0894
26522W        W42596  12.690   9.532   1.382  0.1801  0.1649 -0.1959
26523W        W42597   5.365   8.979   2.837  0.1179  0.0694  0.0444
26524W        W42598   9.167   0.340   4.997  0.2686  0.4168  0.2071
26525W        W42599   5.794   9.655  16.001 -0.2520 -0.0973 -0.2283
26526W        W42600   3.588  16.578   1.193  0.0648 -0.0356 -0.2760
26527W        W42601   9.070   6.049   5.279 -0.0382  0.2607 -0.0170
26528W        W42602   0.263   3.919  12.986  0.1749 -0.0285 -0.4038
26529W        W42603  12.898  17.978  13.146 -0.4379  0.2332 -0.0797
26530W        W42604   0.735  13.925  11.537 -0.2519  0.1756 -0.3018
26531W        W42605  10.423  14.118  14.354  0.0721  0.1363  0.0769
26532W        W42606   8.202  16.544   0.839 -0.0151  0.1657 -0.0230
26533W        W42607  11.387  15.333   5.733 -0.0988 -0.1706  0.0894
26534W        W42608  14.315  17.616  14.832 -0.0784  0.2135 -0.3080
26535W        W42609  17.276   1.788  14.355  0.3986 -0.2871 -0.1999
26536W        W42610  17.943  14.516   6.011 -0.2953 -0.2381  0.0813
26537W        W42611   9.242   2.725  14.883 -0.0263 -0.4072  0.2073
26538W        W42612   0.363  13.231  13.560 -0.0851  0.0750  0.1159
26539W        W42613   9.657  15.000  15.051  0.1297 -0.0304  0.2671
26540W        W42614   8.087   6.133   2.578 -0.0261  0.1404 -0.2747
26541W        W42615  17.176   9.284  15.735  0.0871  0.0577 -0.0292
26542W        W42616   0.123  17.121  12.396 -0.0110  0.0464  0.1214
26543W        W42617   1.442   4.305  14.955 -0.0228 -0.3209  0.0333
26544W        W42618  13.115  16.277   0.017 -0.1934  0.0655 -0.0853
26545W        W42619   4.344   2.453  16.078 -0.1414  0.1059  0.4673
26546W        W42620  13.400  16.810   1.438  0.2231 -0.1152 -0.1355
26547W        W42621   8.616  16.775   2.711  0.0014 -0.0085  0.1309
26548W        W42622  15.436   7.106   3.158 -0.1251 -0.0587  0.1393
26549W        W42623  16.256  16.733  16.027  0.1610  0.0034  0.3109
26550W        W42624   3.789   0.573   3.374  0.0264  0.0988 -0.1685
26551W        W42625  13.725   8.470  14.547  0.2039 -0.1693  0.0967
26552W        W42626   1.525  12.553  13.446  0.1555 -0.1349  0.2584
26553W        W42627   3.459  16.074   5.440  0.0717 -0.0778 -0.1082
26554W        W42628   6.927   6.553   4.182  0.2630 -0.1492  0.3119
26555W        W42629  12.391   7.670  15.333  0.1640  0.1227  0.0356
26556W        W42630  11.865  17.669   3.652  0.1984  0.1292  0.0252
26557W        W42631  12.986   6.310   0.995 -0.0131  0.0582 -0.3482
26558W        W42632  13.254   2.435   5.171  0.4144  0.1477  0.4787
26559W        W42633   3.155   6.685  15.488 -0.3474  0.0148  0.1762
26560W        W42634  14.078   6.335  15.785  0.1769  0.2518 -0.0349
26561W        W42635   7.342   1.694   0.191  0.0155 -0.0680  0.0213
26562W        W42636   3.301   6.162  12.552 -0.0034  0.0612 -0.0952
26563W        W42637  18.216  15.317   1.288  0.0217  0.0234  0.2501
26564W        W42638   2.629  15.890   6.025  0.0182 -0.1452 -0.1602
26565W        W42639   9.732   3.265   0.005  0.1909  0.1082 -0.0117
26566W        W42640  14.943  16.507   0.459 -0.2196 -0.1098 -0.4001
26567W        W42641  15.379   8.228  16.417 -0.0947 -0.1752  0.0233
26568W        W42642  13.895   0.349   4.087  0.0746  0.2575 -0.0911
26569W        W42643  17.127  15.421  13.922 -0.1604 -0.0091  0.0092
26570W        W42644   9.263   2.014  13.219  0.0609 -0.0710  0.2470
26571W        W42645  12.924  12.858  14.797 -0.0053 -0.2864  0.1372
26572W        W42646   6.201  11.915  16.099 -0.0492 -0.4060 -0.0912
26573W        W42647   4.375   4.139   3.112  0.0897  0.1277 -0.1027
26574W        W42648   2.086   9.774  16.041 -0.1314  0.2006  0.0417
26575W        W42649   9.685   4.193   4.744 -0.1172  0.1260 -0.3511
26576W        W42650   2.712   9.501   3.383  0.1002 -0.1419  0.1144
26577W        W42651   5.115  14.181  15.803  0.0803 -0.0099 -0.0617
26578W        W42652  13.699   3.440   5.005  0.2931  0.1591 -0.0477
26579W        W42653   0.715  12.455  11.862  0.0554 -0.1727 -0.1623
26580W        W42654  14.489   2.746  13.078  0.1342 -0.2988 -0.3813
26581W        W42655   3.109   0.244   3.054  0.2267  0.1067 -0.0155
26582W        W42656   9.236   2.537   0.198  0.1315  0.1912 -0.1332
26583W        W42657  16.239   0.454  12.021 -0.0159 -0.2323  0.2926
26584W        W42658   0.680   6.972   1.574 -0.1000 -0.0939  0.0623
26585W        W42659   2.438   6.271   1.316 -0.2272  0.1463  0.2055
26586W        W42660   0.842   2.456  15.756 -0.0965  0.0695  0.2748
26587W        W42661   8.209   2.725   3.456  0.3709  0.3494 -0.0798
26588W        W42662  15.706   4.990   4.312  0.2147  0.1573  0.0963
26589W        W42663  12.161  15.291   3.009 -0.2048 -0.2966 -0.0031
26590W        W42664   4.943   2.404  15.456 -0.2636 -0.2761  0.3049
26591W        W42665  12.627  11.260   4.668  0.1378 -0.0972  0.0908
26592W        W42666   9.618   5.036   6.081  0.1371  0.2405 -0.0106
26593W        W42667  16.852   8.756  11.745 -0.1215 -0.2554  0.1256
26594W        W42668   4.495   2.517   3.395  0.0908  0.2543  0.2901
26595W        W42669   0.001   5.203   1.230 -0.0948  0.2377 -0.0093
26596W        W42670  10.668  10.336   5.239 -0.0235  0.2188 -0.2486
26597W        W42671   4.565   9.534  12.781 -0.0766  0.3898  0.0417
26598W        W42672   4.333   2.281   0.572  0.2912 -0.0749 -0.0371
26599W        W42673  10.884  12.949  14.510  0.2413 -0.2214  0.1110
26600W        W42674  11.866   5.572   5.444 -0.0151  0.1078  0.3330
26601W        W42675  17.097   3.690  14.848 -0.1694 -0.1309 -0.3706
26602W        W42676  14.537   9.001   3.226  0.2639  0.0966 -0.1220
26603W        W42677  16.444  16.968  12.555 -0.0476 -0.0068 -0.0711
26604W        W42678  10.980   4.696   1.128  0.0819  0.2250  0.2898
26605W        W42679   7.667   9.465   1.640  0.1971  0.0098  0.1448
26606W        W42680  15.965   4.581   5.713 -0.0226 -0.2071  0.0059
26607W        W42681  15.345  11.652  13.763 -0.2995 -0.0239  0.0338
26608W        W42682  13.091  13.861   0.587 -0.0085 -0.3212  0.1054
26609W        W42683   8.984  15.495   3.047  0.0541  0.0601  0.1978
26610W        W42684  15.981  14.719  11.493  0.0458  0.1513  0.0986
26611W        W42685   2.264  14.175  14.826 -0.0510 -0.0424  0.1836
26612W        W42686  15.231   5.327   2.860 -0.2882  0.3589  0.0121
26613W        W42687  11.523  16.024   0.410  0.2453  0.1903 -0.0978
26614W        W42688  13.464  16.138   3.396  0.2963 -0.0160 -0.0816
26615W        W42689   7.039   9.575  10.476  0.1069  0.2155  0.0708
26616W        W42690   8.694  11.426  13.226  0.0095 -0.1412 -0.1361
26617W        W42691   9.297   2.843   2.155 -0.0043 -0.0832  0.0220
26618W        W42692  16.648   0.627   3.872 -0.3348 -0.0991  0.0166
26619W        W42693   1.491  15.070   4.261 -0.0494  0.0617  0.1555
26620W        W42694  10.640   7.586  12.324 -0.2865  0.0123 -0.2443
26621W        W42695  14.882  11.779   1.708  0.1746  0.1138 -0.2232
26622W        W42696   2.104  15.229   0.660 -0.2665  0.0767 -0.2322
26623W        W42697  15.839  11.932   0.009  0.0715 -0.0788 -0.2082
26624W        W42698  17.303   8.734  16.495  0.1310  0.2347 -0.1030
26625W        W42699   4.528   6.599  11.535 -0.3742 -0.0303  0.1714
26626W        W42700   3.449  11.970  11.011 -0.2484  0.2878  0.2853
26627W        W42701  13.170   3.797  13.861  0.1892  0.1828  0.1183
26628W        W42702   8.219   2.837   2.054  0.1713  0.0441  0.0666
26629W        W42703  14.422  10.003  11.670  0.0304 -0.0312  0.1580
26630W        W42704   9.242  11.382  14.886  0.0331  0.0428 -0.0252
26631W        W42705  10.089   8.249   2.393  0.3046  0.0881  0.2115
26632W        W42706   0.351   0.356   4.390  0.0329 -0.0514 -0.1894
26633W        W42707   3.742  12.876  14.554 -0.2461  0.0020  0.1433
26634W        W42708   7.719  13.471  15.751 -0.1460  0.2209 -0.1309
26635W        W42709  14.277   1.570  12.495 -0.0332 -0.2872 -0.2971
26636W        W42710  12.306  15.972  14.557 -0.1611 -0.0675 -0.0342
26637W        W42711  13.151  16.714  12.566  0.1001  0.1054 -0.0898
26638W        W42712   7.117  14.085  11.877 -0.1207 -0.2413 -0.0689
26639W        W42713  15.013   6.939   0.958  0.0075 -0.3944  0.1722
26640W        W42714  17.683   0.985   2.871  0.1645  0.1950 -0.0798
26641W        W42715   8.444   7.639  12.405 -0.0507 -0.1166 -0.1341
26642W        W42716  17.849   1.141  15.967 -0.4460 -0.0151 -0.2648
26643W        W42717   1.905  11.546   4.897  0.2787  0.3006  0.0270
26644W        W42718  14.729  17.631  11.766 -0.3291  0.0166  0.0810
26645W        W42719   3.590   3.603   3.366  0.0880  0.0085  0.3535
26646W        W42720   2.627  15.339   3.760 -0.0923 -0.0736 -0.3816
26647W        W42721   0.629   4.453   3.174 -0.1660  0.2151  0.4266
26648W        W42722   8.484   4.485  16.289  0.1292  0.0546  0.2084
26649W        W42723   6.442   4.030  12.369  0.0989 -0.1180  0.0642
26650W        W42724  14.089  11.232  14.924 -0.0633 -0.0861  0.1811
26651W        W42725  12.963   7.774   3.216  0.2774  0.1334 -0.3975
26652W        W42726   2.465   1.605  11.176  0.1029 -0.1649  0.2042
26653W        W42727  10.547   8.098  14.596  0.1037  0.1728  0.1041
26654W        W42728  13.360  11.832  14.825 -0.1320 -0.1173 -0.2951
26655W        W42729   4.656   6.497  13.027 -0.0651 -0.3942  0.2323
26656W        W42730   9.488   8.611   3.072  0.1348 -0.2516  0.1482
26657W        W42731   4.036   3.928   0.628 -0.1924 -0.0900  0.0011
26658W        W42732   7.550   6.312  14.364  0.2847  0.0188  0.0663
26659W        W42733   3.742   4.452   0.793 -0.2753 -0.1076 -0.1076
26660W        W42734   5.817   8.786   1.794  0.1040 -0.3361 -0.1069
26661W        W42735  16.269   4.092  11.280  0.1267  0.0524 -0.0779
26662W        W42736   2.406  17.326   5.012 -0.4298  0.0791 -0.0465
26663W        W42737   3.118   3.099  12.447  0.2398 -0.0423  0.1278
26664W        W42738   9.010   2.995  15.297  0.3355  0.1889  0.0070
26665W        W42739   6.929   3.350   5.189 -0.0359 -0.1086  0.1890
26666W        W42740  15.246   1.677   5.422 -0.0456 -0.2988  0.0279
26667W        W42741   4.632  15.539  13.178 -0.2241 -0.0406  0.0750
26668W        W42742   1.226  17.895  11.848  0.1012  0.0266 -0.0832
26669W        W42743  10.538   2.707   1.518 -0.2260 -0.0672  0.3368
26670W        W42744   9.520  13.898  13.151  0.0693 -0.1940  0.3020
26671W        W42745  16.192   2.054   4.718  0.0793 -0.3581  0.3463
26672W        W42746  16.229  14.904   3.611  0.3167 -0.0277 -0.3812
26673W        W42747   6.873   8.341   3.726 -0.2509  0.1081 -0.0143
26674W        W42748   3.930   4.869  11.065  0.1156  0.0605 -0.4088
26675W        W42749  11.661  14.509  14.525  0.0792  0.0124  0.0771
26676W        W42750  14.305   6.574   5.497 -0.2196 -0.3151  0.2678
26677W        W42751  13.644  11.838   2.437 -0.1779 -0.0909  0.0161
26678W        W42752   7.979   5.984  15.319 -0.0322 -0.0482  0.0001
26679W        W42753   8.030   8.639   0.182  0.1345  0.1261  0.2408
26680W        W42754   0.196  16.059   3.028  0.0991 -0.3419  0.0584
26681W        W42755  17.148   3.603   5.284 -0.1599 -0.0553  0.0736
26682W        W42756   4.491  17.782   2.494 -0.1624  0.1446  0.1322
26683W        W42757  15.268  14.896   1.306  0.0770 -0.1632  0.0613
26684W        W42758   1.841   4.881  14.220  0.0603  0.3541  0.0401
26685W        W42759  16.826  14.536  11.241  0.0335 -0.0937  0.4855
26686W        W42760  13.347  12.223   4.151  0.0679 -0.0951 -0.0286
26687W        W42761   6.522   0.602   0.558  0.1050 -0.0956 -0.4064
26688W        W42762  15.541   1.787   0.004  0.5302 -0.0941 -0.0347
26689W        W42763   1.419  12.533  12.213  0.4164  0.1414 -0.0758
26690W        W42764  13.959  16.466   2.270  0.1183  0.0872  0.4857
26691W        W42765   6.214  16.432  14.106  0.0708  0.5677 -0.1742
26692W        W42766  12.500   3.162  12.217 -0.3231  0.0545 -0.1435
26693W        W42767  18.215   6.557  13.198 -0.0406  0.0367  0.0750
26694W        W42768  15.876  17.919   2.684 -0.2285  0.2598  0.1368
26695W        W42769   7.078  12.538  12.212 -0.2496 -0.1039 -0.0052
26696W        W42770   7.560   1.453   1.886  0.0676  0.0265  0.0273
26697W        W42771   9.379  13.528   4.219  0.2432 -0.1628  0.1825
26698W        W42772   3.436   4.023  14.139  0.1194  0.0422 -0.0634
26699W        W42773  10.236  17.423  13.071 -0.0214 -0.0680 -0.0500
26700W        W42774   2.604   4.832   3.953  0.0133 -0.0244 -0.1146
26701W        W42775  10.140   6.342   0.810  0.3198  0.0891 -0.1446
26702W        W42776   5.066   1.809   3.489 -0.0070  0.1195  0.1246
26703W        W42777   7.115   6.469   5.419 -0.0252 -0.0415  0.0990
26704W        W42778   8.747  15.071   6.278 -0.2053 -0.0339  0.5809
26705W        W42779  18.228  13.855  13.751 -0.0208  0.0697  0.3645
26706W        W42780   3.348  17.958   1.933 -0.0327  0.0010 -0.0234
26707W        W42781  16.748  15.322   1.943 -0.1230 -0.1617  0.0339
26708W        W42782   9.623  13.877   5.493 -0.0403 -0.1867 -0.0458
26709W        W42783  12.539  10.687   0.958 -0.1431  0.2826  0.1098
26710W        W42784  17.464   7.493   3.105  0.4075  0.1678 -0.0382
26711W        W42785   5.979  15.221   1.908  0.0687 -0.4198 -0.0689
26712W        W42786  14.782  16.021  11.271 -0.0416  0.2626  0.2638
26713W        W42787  10.492   4.533   0.326 -0.2419  0.1218  0.0313
26714W        W42788  12.904  11.267  12.130 -0.1266  0.3110  0.0477
26715W        W42789   7.037  18.187  11.998  0.0672  0.2414 -0.1397
26716W        W42790   7.166  17.756  15.598  0.2836  0.1766  0.0707
26717W        W42791   7.953  16.040   4.763  0.0353  0.4317 -0.0437
26718W        W42792   2.725   9.294  12.162 -0.0583 -0.1736  0.2690
26719W        W42793  12.721   4.317   2.889  0.0210 -0.1297 -0.0302
26720W        W42794   9.724   6.867   1.277  0.0695  0.1248 -0.1932
26721W        W42795   1.532   1.710   3.479 -0.1365 -0.1793 -0.0412
26722W        W42796  16.635   3.625   2.601 -0.3850 -0.3175 -0.0863
26723W        W42797   1.972  16.759  15.352 -0.1545 -0.2556  0.0140
26724W        W42798   6.588   5.767  14.944  0.0230  0.3325 -0.0593
26725W        W42799   7.369   0.533  12.494  0.0629 -0.0669 -0.0587
26726W        W42800  14.403   4.485  14.335 -0.0013  0.2448  0.1484
26727W        W42801   0.567   4.263  13.709  0.0857 -0.1763  0.2948
26728W        W42802   8.331   8.080   5.037  0.2427  0.0959  0.3128
26729W        W42803  12.186  12.708   1.602 -0.2624 -0.0176  0.0150
26730W        W42804  11.257   2.472  11.434 -0.0846  0.3738  0.0972
26731W        W42805   8.153   8.314   1.056  0.1142 -0.0144 -0.2105
26732W        W42806   1.384  17.138  14.474 -0.4183  0.4890 -0.0009
26733W        W42807   4.935   4.688  13.925 -0.2233  0.2136 -0.1860
26734W        W42808   1.830   7.307   0.887  0.0862  0.0103 -0.4416
26735W        W42809   2.092  14.884  13.190 -0.0922 -0.2278  0.1883
26736W        W42810   9.501   9.424  11.279  0.1173 -0.0409 -0.0696
26737W        W42811  15.230   1.671  12.292 -0.1671  0.5457  0.3827
26738W        W42812   1.146   6.550  14.605 -0.2648 -0.0978 -0.3026
26739W        W42813  15.126   6.375   2.845 -0.1489 -0.1397 -0.1910
26740W        W42814   4.428   6.684   4.748  0.0085  0.1752 -0.1747
26741W        W42815   5.222  17.821  13.578 -0.0219 -0.1844 -0.0035
26742W        W42816   5.800  17.079  15.276 -0.1852 -0.0195 -0.1500
26743W        W42817  12.406   2.984  15.217 -0.2396 -0.2944  0.2209
26744W        W42818  14.308   0.740   5.287 -0.0135 -0.0644  0.2408
26745W        W42819   4.323   1.507  15.126 -0.0187 -0.1339  0.2459
26746W        W42820   5.587   0.428  14.599 -0.1392 -0.0445 -0.1436
26747W        W42821  10.564   7.996   5.619  0.3988 -0.1869 -0.3084
26748W        W42822   8.432   6.506  13.500  0.1204 -0.2253 -0.0427
26749W        W42823   5.850   4.230   5.188  0.3108  0.0683 -0.1081
26750W        W42824   7.106   7.021  13.129 -0.3535  0.0211 -0.0162
26751W        W42825  17.481  15.638  16.439 -0.0533  0.1477  0.0811
26752W        W42826   7.505   8.625   2.671  0.1945 -0.0057  0.0586
26753W        W42827  16.253   1.010   3.159  0.2464 -0.0658 -0.0467
26754W        W42828   0.873  11.354   1.462 -0.0670 -0.0348  0.3958
26755W        W42829  16.392  13.221  11.165 -0.2126  0.0662  0.3372
26756W        W42830   2.124   8.890  14.151  0.0191 -0.0025 -0.0864
26757W        W42831   9.707   3.126   1.995 -0.1479  0.0893  0.1394
26758W        W42832   6.841   6.323   1.361 -0.2864 -0.0472 -0.0439
26759W        W42833  15.087  12.685  10.535  0.2465 -0.0313 -0.1931
26760W        W42834   7.450  12.200  15.062  0.2059  0.2023 -0.2496
26761W        W42835  14.887  14.120  11.830 -0.2551  0.0362 -0.1038
26762W        W42836   6.726  15.843  12.493  0.0022 -0.1121 -0.2404
26763W        W42837  16.501   8.493  14.306 -0.1352  0.0833 -0.1175
26764W        W42838  14.427   7.029   5.595 -0.0087 -0.0850  0.0274
26765W        W42839   5.353  15.063  15.617  0.0403  0.0043 -0.0482
26766W        W42840   0.592   3.601  15.519  0.0232 -0.1828  0.0796
26767W        W42841  12.808   1.193   3.245  0.1390  0.1880 -0.0081
26768W        W42842  10.583  15.495   3.904  0.0267  0.0719 -0.0044
26769W        W42843   0.854  16.793   0.482  0.0201  0.0667 -0.1756
26770W        W42844   7.394  18.157   0.320 -0.0515  0.0889 -0.2210
26771W        W42845  11.976  17.360   3.291 -0.1641  0.1537  0.0672
26772W        W42846   4.838  17.576  14.946  0.0166  0.2180  0.0765
26773W        W42847   2.295   8.232   2.487  0.0558  0.4565  0.2672
26774W        W42848  18.209  10.399   3.761 -0.1535 -0.0973 -0.0698
26775W        W42849  13.676  14.334   3.354 -0.0944  0.0540  0.1188
26776W        W42850  11.400  17.025   0.825 -0.1665 -0.1116  0.1860
26777W        W42851  15.740   4.746  12.711 -0.2994 -0.1515  0.3432
26778W        W42852  17.755   2.323   5.000 -0.0925 -0.0150  0.0002
26779W        W42853  17.166  12.314   1.352  0.1245  0.1091  0.0515
26780W        W42854   5.788   4.557   4.630  0.0294  0.4971  0.0497
26781W        W42855  11.676  10.350   3.119  0.2908 -0.0327  0.4955
26782W        W42856   9.249   7.237  15.866  0.2769  0.2627 -0.2988
26783W        W42857   7.808   7.819   0.778 -0.0600 -0.0598 -0.1890
26784W        W42858  11.725   3.429  15.407 -0.0922  0.0535  0.1834
26785W        W42859   1.744   9.052  11.690  0.0425  0.0179 -0.1634
26786W        W42860   6.787   7.658  15.687 -0.1571  0.2310 -0.2034
26787W        W42861  17.149  15.245   1.433  0.1304  0.2863 -0.3853
26788W        W42862  11.538  12.589   4.735 -0.0458 -0.1565 -0.1852
26789W        W42863   6.590   5.323   0.051  0.1884 -0.0798 -0.0577
26790W        W42864   6.351  11.654   0.384  0.1864  0.0908  0.1712
26791W        W42865  12.654  16.202   1.020 -0.1238 -0.0011  0.3879
26792W        W42866   2.938   3.266   3.351 -0.0531 -0.2800 -0.2703
26793W        W42867  13.104  12.590   1.763  0.0888  0.0975 -0.0053
26794W        W42868  17.726  14.420  13.323 -0.0548  0.1861 -0.1145
26795W        W42869   5.772   3.387   1.846  0.0049 -0.2907  0.2389
26796W        W42870   0.659  11.827  16.179  0.2828 -0.2291 -0.0974
26797W        W42871   3.703   0.782  14.439 -0.1992  0.0710 -0.1659
26798W        W42872   6.155   5.078   0.530 -0.0124  0.1533 -0.3707
26799W        W42873   9.592   6.879  13.174 -0.0585 -0.2067 -0.0771
26800W        W42874  11.848   1.221  14.973  0.1515  0.1991  0.3269
26801W        W42875  14.984  17.423   5.023 -0.3818  0.0260  0.2819
26802W        W42876  15.314   0.900  14.885 -0.3105 -0.0026  0.1930
26803W        W42877  17.535   0.561  10.932 -0.2611 -0.1742  0.0956
26804W        W42878  10.194   8.457   3.679 -0.0983 -0.2694  0.0133
26805W        W42879  13.007   3.588  12.594 -0.2221 -0.1461  0.0156
26806W        W42880  13.571  12.333  12.515 -0.0819 -0.0582 -0.1151
26807W        W42881  16.713   4.116   2.417 -0.3289  0.1888 -0.0768
26808W        W42882  14.743  16.249   1.632 -0.0332 -0.1551  0.5760
26809W        W42883   6.956   8.271  15.765 -0.4295 -0.1921  0.2409
26810W        W42884  16.905   9.123  14.527 -0.2352 -0.1226  0.2636
26811W        W42885   4.733  10.324  11.631 -0.0708  0.3602  0.2459
26812W        W42886   6.457  17.523   4.408 -0.0786  0.2622 -0.1553
26813W        W42887   1.499   3.404   2.917  0.1798  0.1919 -0.1789
26814W        W42888   5.567  16.744   4.272 -0.4848 -0.2858 -0.2300
26815W        W42889   4.985  12.712   2.211  0.3210 -0.0539  0.2816
26816W        W42890   7.404  12.347   0.597 -0.0098  0.0113 -0.1523
26817W        W42891  10.056   9.883   5.914 -0.1915  0.0553  0.2885
26818W        W42892  13.037   9.630   6.153 -0.0814 -0.0969  0.4165
26819W        W42893   5.128  13.728  13.240  0.0972 -0.0805 -0.2169
26820W        W42894  13.469   2.734   2.290  0.3563  0.1250  0.0998
26821W        W42895   3.442  12.769  13.320  0.2434  0.3597  0.0473
26822W        W42896  13.026   0.935   1.890  0.0163 -0.0464  0.0539
26823W        W42897   7.298  16.940   3.044  0.2700 -0.1857 -0.2316
26824W        W42898   2.182  11.227  13.652 -0.0050 -0.1970  0.0064
26825W        W42899   9.954   0.620   5.536  0.1802  0.2169 -0.0493
26826W        W42900  12.046  14.152  12.180 -0.0708 -0.1741 -0.0558
26827W        W42901  12.396  17.516   3.590 -0.2367  0.0502 -0.0375
26828W        W42902  11.137   3.732   4.247 -0.6107  0.1014  0.4451
26829W        W42903  12.037   7.752  12.709  0.1518  0.2234 -0.1909
26830W        W42904  11.672   9.558   4.347 -0.2550  0.1165 -0.0529
26831W        W42905  10.404   9.355   4.280 -0.1104 -0.1459 -0.0478
26832W        W42906   6.880  11.432  11.819  0.3755  0.1524 -0.0904
26833W        W42907  17.216  10.468   0.680 -0.0147  0.0772 -0.1105
26834W        W42908   7.283  16.101  13.564  0.0316 -0.0723 -0.3031
26835W        W42909   8.392   6.089   2.995 -0.0023  0.0435  0.0285
26836W        W42910   2.574   0.460   1.599 -0.0199 -0.3152 -0.0775
26837W        W42911  16.704   5.576   5.055 -0.1531 -0.1897  0.1289
26838W        W42912  11.743  12.820  15.662  0.1098 -0.0780 -0.2714
26839W        W42913  11.411   9.551   1.805  0.0961 -0.1748  0.0267
26840W        W42914   0.871   8.464  12.733 -0.2269  0.2495  0.1717
26841W        W42915   7.549   0.290   4.681  0.1518 -0.5548 -0.3667
26842W        W42916  17.821   6.501  13.943  0.1632 -0.0189  0.0323
26843W        W42917  17.086  13.910   3.888 -0.2287 -0.2427 -0.3746
26844W        W42918   4.509  12.808  13.656  0.1166  0.1950  0.1908
26845W        W42919   0.338   4.650   0.553 -0.0449  0.0235  0.2934
26846W        W42920   2.453  11.774   1.600 -0.2678  0.2342  0.2829
26847W        W42921  10.221   8.815  12.948  0.1898 -0.3200 -0.1306
26848W        W42922  15.788  10.610  12.941 -0.0469  0.0317 -0.2072
26849W        W42923   6.245  10.735   2.209 -0.0929 -0.0420 -0.2356
26850W        W42924  11.723   8.065  15.256  0.1644 -0.1938  0.1919
26851W        W42925  10.714  17.742  13.127  0.1194  0.1203 -0.0179
26852W        W42926   3.629  13.777  13.360  0.1655 -0.3747  0.2961
26853W        W42927   2.180  16.940   0.133  0.0257 -0.2095  0.1855
26854W        W42928   5.911  10.285   2.284  0.2844  0.1267 -0.0739
26855W        W42929  17.577   8.020   3.311 -0.0683 -0.2482  0.0368
26856W        W42930   9.021  10.290  13.909 -0.1897  0.1810 -0.4129
26857W        W42931   4.695   8.691   3.033 -0.1000  0.0170  0.0633
26858W        W42932  13.696   4.427   0.039  0.2366  0.2248 -0.0056
26859W        W42933   3.448   7.785   0.013  0.2094  0.0736  0.0839
26860W        W42934   9.432  17.079   3.126  0.2056 -0.1096 -0.1938
26861W        W42935  12.076   2.362   1.288 -0.1698 -0.0234  0.1358
26862W        W42936   2.810   1.276  11.483  0.4463 -0.0184  0.2665
26863W        W42937   0.095   7.075  13.215  0.0090 -0.3909 -0.2558
26864W        W42938  16.149   1.620  15.934 -0.0057  0.4145  0.2198
26865W        W42939   6.968   4.576  13.696  0.1779 -0.0131  0.3863
26866W        W42940  11.751  17.363  11.854 -0.0813  0.0687 -0.0934
26867W        W42941   3.696  10.265  11.757 -0.0417 -0.2701  0.0353
26868W        W42942   9.384  10.638   4.294 -0.1345 -0.0331 -0.0101
26869W        W42943  17.032   3.306   0.143  0.0336  0.0612  0.1577
26870W        W42944   5.379  14.755  14.212 -0.1648 -0.1369 -0.3190
26871W        W42945   9.634  18.073  15.097  0.0501 -0.0964 -0.1965
26872W        W42946   9.063   2.471   1.883  0.0183  0.1188  0.2108
26873W        W42947  13.928   5.490   2.334  0.1217 -0.1740 -0.1683
26874W        W42948  14.030  12.942   2.074 -0.3555 -0.1422 -0.0910
26875W        W42949   4.213   2.875  13.354  0.1251  0.0800  0.2178
26876W        W42950  10.853   8.971   3.394  0.1962  0.0282 -0.3321
26877W        W42951  14.187  17.349   0.813  0.0372 -0.3633 -0.3439
26878W        W42952  11.981   2.440   2.119  0.1671 -0.0557 -0.2547
26879W        W42953  14.367  11.943  12.616  0.0300  0.0153  0.1210
26880W        W42954   3.665  15.507  13.317  0.0146 -0.1504 -0.0921
26881W        W42955   7.741   9.696   0.285  0.4621 -0.3832 -0.1933
26882W        W42956   3.163  18.058   2.613  0.2506 -0.0073 -0.1567
26883W        W42957  11.766   8.389   3.733 -0.1492  0.0997 -0.0912
26884W        W42958   0.683   0.477  13.865  0.0504  0.2564  0.1256
26885W        W42959  12.237  14.042  15.476  0.2224 -0.2319 -0.0070
26886W        W42960   2.625  14.334   2.088  0.2086 -0.1421 -0.0926
26887W        W42961  16.785   3.232   5.053  0.0967  0.0308  0.0341
26888W        W42962  16.963   4.774  15.326  0.4319 -0.1577 -0.0582
26889W        W42963  15.883  17.598  13.205  0.3765  0.0728  0.0811
26890W        W42964   6.720   6.274   4.594 -0.3076  0.1746  0.0251
26891W        W42965  17.315   5.431  14.221 -0.2295 -0.0639  0.1104
26892W        W42966   8.771  11.829  14.620 -0.1214  0.4764  0.2338
26893W        W42967  10.015   3.743  12.296  0.1141  0.0415 -0.1160
26894W        W42968   9.808   6.764  16.423 -0.1590  0.3218  0.0866
26895W        W42969   1.061  15.350   1.235 -0.0893 -0.1020 -0.1454
26896W        W42970   6.524  13.839  12.254 -0.3087 -0.1636  0.1017
26897W        W42971  10.782   7.639  14.287  0.3905  0.0388 -0.1784
26898W        W42972   2.208   3.064  16.500 -0.1017 -0.1415  0.3130
26899W        W42973  13.076   7.842   2.364 -0.0671 -0.0800  0.1022
26900W        W42974   3.155   4.442  15.470  0.0378 -0.1878  0.2611
26901W        W42975   8.260   0.087  12.599  0.0257 -0.1542  0.0054
26902W        W42976   1.019   0.928   1.106 -0.1412 -0.0173  0.1188
26903W        W42977  15.959  11.294   5.628  0.0703  0.0682  0.0333
26904W        W42978  17.965   6.579  15.886 -0.0280 -0.0705 -0.0532
26905W        W42979   6.934   9.525  12.065 -0.0816 -0.0761 -0.1281
26906W        W42980   9.222  11.480   4.263  0.0434 -0.2105 -0.4462
26907W        W42981  17.786   1.547   4.253 -0.0311  0.3362 -0.1079
26908W        W42982  10.601   8.146   2.463  0.4678 -0.0090  0.1440
26909W        W42983  17.844   6.050   2.542 -0.0007  0.0032 -0.0902
26910W        W42984   4.312   7.582  11.601 -0.2192  0.3644 -0.0408
26911W        W42985  12.626   2.007   4.825 -0.0994  0.1317 -0.0686
26912W        W42986  14.283  11.054   0.046 -0.0766 -0.1526  0.1303
26913W        W42987   4.198   2.836  14.836  0.2163 -0.0027 -0.1267
26914W        W42988  10.504   6.437   1.522  0.3478 -0.0574  0.1989
26915W        W42989  17.532   8.563  16.137 -0.3287  0.1875  0.1052
26916W        W42990   8.426   2.286  15.327  0.1107  0.0166  0.1191
26917W        W42991  16.264   2.251   1.166  0.0805  0.3641  0.0834
26918W        W42992   9.273  13.856   4.678 -0.1365 -0.0648 -0.2180
26919W        W42993   0.959  12.871  12.085 -0.0876 -0.1996 -0.2017
26920W        W42994  12.593   7.732  14.600  0.4442 -0.1067 -0.0085
26921W        W42995  10.376  10.797   1.379 -0.0776 -0.3467 -0.1399
26922W        W42996  14.030   3.549  13.542  0.0765 -0.1230 -0.0482
26923W        W42997   2.368   7.670   0.296  0.1988  0.0678 -0.0863
26924W        W42998  16.218  13.677   5.148 -0.0034 -0.1104 -0.0220
26925W        W42999   6.581   3.567  12.300  0.0199 -0.0712  0.0042
26926W        W43000   9.481  16.976  15.909 -0.1478  0.0889  0.3100
26927W        W43001   6.684   8.133  13.146 -0.0360  0.3445 -0.1030
26928W        W43002   6.962   4.244   5.517  0.3395  0.0692 -0.1364
26929W        W43003   8.150   0.186   4.898  0.1345 -0.0820 -0.0464
26930W        W43004   1.349  11.839  13.470  0.0155 -0.0512 -0.0341
26931W        W43005  11.532   4.457  15.879 -0.0764 -0.1077 -0.2982
26932W        W43006   0.680   0.456   3.980  0.1043 -0.2573 -0.0189
26933W        W43007   3.364   0.633  11.028  0.0953 -0.2938  0.0421
26934W        W43008   6.671   4.988  11.790  0.2057 -0.1941  0.2474
26935W        W43009   3.662   6.422  11.534  0.2165  0.2409 -0.0005
26936W        W43010   8.123  10.024  16.209  0.0877 -0.2629  0.0740
26937W        W43011  12.814  17.533  12.871  0.0677  0.0766  0.4969
26938W        W43012  15.772   6.852  13.642  0.0939  0.0251 -0.1383
26939W        W43013  15.407  14.058  13.686 -0.0887 -0.2570 -0.1684
26940W        W43014  16.225  14.048   0.988  0.0522  0.1858 -0.0962
26941W        W43015   2.672   1.134  13.914  0.0178 -0.1692 -0.3744
26942W        W43016  13.889   1.396  14.782  0.0181 -0.0563  0.1982
26943W        W43017  15.120   6.771   5.071 -0.1438 -0.0804 -0.1980
26944W        W43018   7.189   2.444  15.725 -0.0643 -0.2729 -0.2280
26945W        W43019   9.211  11.287  14.053  0.1689 -0.1062 -0.1291
26946W        W43020  14.143   4.290   5.709  0.1989  0.3736 -0.3018
26947W        W43021  14.007   1.291   2.820 -0.1672 -0.0497  0.0535
26948W        W43022  12.710   4.790  12.449 -0.4028 -0.1086  0.1709
26949W        W43023   8.141   4.566  12.128 -0.5345  0.1428 -0.0402
26950W        W43024  14.580  15.558  15.061  0.2302  0.1067  0.0877
26951W        W43025  14.016   2.322   4.629  0.1361 -0.0210 -0.2024
26952W        W43026   7.561  14.812   4.537  0.0116  0.2332 -0.1871
26953W        W43027   0.164   8.650   2.983  0.0202 -0.0953 -0.1765
26954W        W43028   6.689   4.304   2.747  0.2142  0.3007 -0.0812
26955W        W43029  10.280   0.437  11.596  0.1726 -0.2276  0.0028
26956W        W43030  15.192  17.383  14.858  0.0683 -0.2016  0.0540
26957W        W43031   6.478  16.825  13.104  0.1081  0.2434 -0.1141
26958W        W43032   0.558  16.831   5.193  0.2943 -0.3492  0.0077
26959W        W43033   9.954  10.555   6.199  0.1746 -0.0230  0.1220
26960W        W43034  14.910   3.790   3.202 -0.2064  0.0901 -0.0671
26961W        W43035   7.803  17.430   5.667 -0.1459 -0.1611 -0.0242
26962W        W43036   3.254  12.481   2.202  0.0192 -0.1936  0.2670
26963W        W43037   9.340   2.521   5.198  0.1734 -0.2493 -0.1505
26964W        W43038   8.229  15.740   2.587 -0.1314 -0.1228  0.0809
26965W        W43039  17.091  10.109   5.364 -0.0034  0.0797  0.0901
26966W        W43040   4.775  15.384   3.327 -0.0074 -0.2191  0.0379
26967W        W43041  14.419  17.772  15.846  0.2417 -0.1082 -0.0792
26968W        W43042   7.677  13.398  14.753  0.3813 -0.0342 -0.3933
26969W        W43043   3.294  14.144  13.234  0.0381 -0.1062  0.0360
26970W        W43044   1.677   1.364  13.941 -0.0976 -0.1403 -0.2046
26971W        W43045   9.508   8.763  15.840 -0.0889 -0.2012 -0.0466
26972W        W43046   3.587  14.868   1.874  0.1103 -0.2570 -0.0618
26973W        W43047   2.186  16.903   1.774 -0.1009 -0.4778 -0.1136
26974W        W43048  11.287  13.104   2.059  0.0547 -0.1878  0.0473
26975W        W43049  15.564   7.052  12.372 -0.2051 -0.2647 -0.0043
26976W        W43050  14.426   1.795  15.609 -0.2361  0.0364 -0.0162
26977W        W43051  17.044  11.760   3.025  0.2699  0.0849  0.0043
26978W        W43052  16.819  12.487  10.239  0.0767  0.3250  0.0897
26979W        W43053   5.746   9.418   2.515  0.3568  0.0359  0.0646
26980W        W43054  16.529   3.709   3.873  0.1450  0.0861 -0.0966
26981W        W43055  10.293   1.441  14.545  0.0164 -0.2200  0.1457
26982W        W43056  11.222   2.840   2.010 -0.2549 -0.1861 -0.2485
26983W        W43057   7.337   1.471  13.130 -0.1373  0.2337 -0.0462
26984W        W43058   3.025   3.368   5.749 -0.1752  0.2240 -0.1791
26985W        W43059  18.185   8.025  13.862  0.1159 -0.2002 -0.0046
26986W        W43060  12.960  10.740   0.664  0.0312 -0.1099  0.0054
26987W        W43061   3.879   2.258   5.493  0.1277 -0.0669 -0.1822
26988W        W43062   3.049   8.174  13.415 -0.0305  0.0442  0.1044
26989W        W43063  17.268   7.837   1.224  0.2108 -0.0736  0.4002
26990W        W43064   9.748   3.195  11.535  0.1601  0.1097 -0.0898
26991W        W43065  13.153   7.075   4.326  0.2994  0.1481  0.2820
26992W        W43066  16.616   2.226  12.352 -0.0835  0.0529  0.3817
26993W        W43067  10.702   2.225   4.839  0.1192 -0.2309  0.0780
26994W        W43068  16.109  14.867  10.987  0.2509  0.3267  0.0022
26995W        W43069   7.820  15.927  13.623 -0.0141  0.0575 -0.0444
26996W        W43070   8.847   1.941   0.098  0.0389  0.0189  0.3677
26997W        W43071   3.076   6.750   4.690 -0.0906  0.0590 -0.1835
26998W        W43072  17.726  10.035  11.648  0.1370  0.0692 -0.3553
26999W        W43073  13.655  13.199  15.456  0.0381  0.6375  0.1601
27000W        W43074   0.248   1.701  14.946  0.2349 -0.1543  0.1864
27001W        W43075   6.882   2.326  12.885  0.0394 -0.3372  0.1341
27002W        W43076  15.855   0.306  13.346  0.1055 -0.1928 -0.2685
27003W        W43077   4.790  12.429  16.490  0.4717  0.1205  0.0054
27004W        W43078  17.121  13.372  13.236 -0.0674 -0.0892  0.3458
27005W        W43079   4.969  17.823   5.622  0.0444  0.6481 -0.6000
27006W        W43080  12.663   9.707  13.027 -0.1227 -0.1491  0.0034
27007W        W43081  16.588  13.946   3.822  0.1309  0.1980  0.1449
27008W        W43082  11.066   3.872  13.178 -0.1675  0.0744  0.2745
27009W        W43083   2.482   7.817   2.652 -0.0149 -0.0611  0.2037
27010W        W43084   7.128  10.832   5.761 -0.0479  0.0695 -0.3404
27011W        W43085  10.067   6.931   5.566  0.1244 -0.0440 -0.2347
27012W        W43086   9.434  18.022   4.515  0.0054  0.0021  0.0069
27013W        W43087  11.203   0.004  12.292  0.0813 -0.1200 -0.1587
27014W        W43088  17.094  10.121   2.980 -0.2851 -0.1378 -0.1539
27015W        W43089   9.772  13.781   4.562  0.2421  0.1117 -0.0672
27016W        W43090   8.728   0.580   1.908 -0.0325 -0.3036 -0.1187
27017W        W43091  11.919  10.142  15.662 -0.4051  0.0930 -0.2534
27018W        W43092   5.774  16.769   2.345  0.1584 -0.1010  0.0285
27019W        W43093  10.914  13.600  15.811 -0.1495  0.2046  0.0585
27020W        W43094  17.166  12.194   0.608 -0.1048 -0.2536 -0.2760
27021W        W43095  12.704  12.203  16.119 -0.1850 -0.2018  0.1904
27022W        W43096   8.177   3.799   5.518 -0.2083 -0.2679 -0.0933
27023W        W43097   1.000  14.845   2.884 -0.0983  0.0869  0.2608
27024W        W43098  17.648  14.706   3.961 -0.2028 -0.3643 -0.0008
27025W        W43099   8.736  17.206   0.957  0.3249  0.2316 -0.1256
27026W        W43100  17.463  14.485   0.871  0.1688  0.1522  0.0584
27027W        W43101  11.128   5.960  13.546 -0.0364 -0.0847  0.4328
27028W        W43102  11.563  11.294   5.040 -0.1583  0.1441  0.0963
27029W        W43103  15.437  11.576  12.141 -0.3467 -0.0270  0.2142
27030W        W43104   7.152   6.030   2.182 -0.1662 -0.0945  0.0054
27031W        W43105   9.654   8.892  12.582  0.1185 -0.2778  0.0201
27032W        W43106  12.527  10.470  14.178 -0.0198 -0.1684  0.0861
27033W        W43107  12.676  12.061  13.359 -0.1451  0.2023 -0.3348
27034W        W43108   2.685   2.305  11.774 -0.0641 -0.3973  0.0497
27035W        W43109  13.551   1.324  14.085  0.1856 -0.0434  0.2550
27036W        W43110  11.034   0.973  14.014  0.3193  0.0830  0.0160
27037W        W43111  14.933   3.434   6.253 -0.0749  0.0569 -0.1879
27038W        W43112  13.143   0.609  16.274  0.2517 -0.1008  0.3049
27039W        W43113   5.999   2.481  16.005  0.0490 -0.0407  0.3353
27040W        W43114  12.406  14.396  15.121  0.3053  0.2978  0.2352
27041W        W43115   8.652   1.297   2.972  0.0031 -0.0684  0.0478
27042W        W43116   5.559  10.188   5.121 -0.0009  0.2551  0.0518
27043W        W43117  13.001   1.940   0.923 -0.1404 -0.0818  0.0096
27044W        W43118  15.448  10.850   4.306 -0.0657 -0.0398 -0.2066
27045W        W43119   8.242   2.347   5.171  0.2778  0.0373  0.2443
27046W        W43120  16.992  17.717  14.382  0.1138 -0.0127  0.2586
27047W        W43121  16.819   8.613   3.850  0.1541  0.1796  0.1571
27048W        W43122  17.530   5.960  13.656  0.1930  0.2601  0.0932
27049W        W43123  10.640  11.571   5.798  0.0464 -0.0024 -0.0904
27050W        W43124  16.227  11.909  12.641 -0.0579  0.1291  0.0298
27051W        W43125  16.007   9.726   1.798  0.1069  0.2265  0.1842
27052W        W43126   2.542   5.638   0.007  0.0269  0.2945 -0.3817
27053W        W43127   3.272   8.907  14.647  0.0411 -0.0199  0.1769
27054W        W43128  15.789   3.190   5.741 -0.0123  0.0691  0.0707
27055W        W43129  14.246  11.493   3.818  0.1802 -0.0785  0.1491
27056W        W43130   0.828   2.220   4.898  0.2934 -0.0474  0.0324
27057W        W43131  12.639   8.902   3.577 -0.4124  0.0251  0.2185
27058W        W43132  11.415  12.965   4.420  0.2279 -0.0203  0.0686
27059W        W43133  16.911  12.897  12.023 -0.0391 -0.1505 -0.2036
27060W        W43134  11.115  17.396   5.264  0.0418 -0.1144 -0.0664
27061W        W43135   2.531  15.984  13.704 -0.1144 -0.2202  0.2225
27062W        W43136  13.327  11.435  11.882  0.0478 -0.0033 -0.0467
27063W        W43137   2.278  14.322   0.579 -0.1766 -0.1843 -0.1399
27064W        W43138  17.454  12.553   3.160 -0.0907  0.5821  0.2870
27065W        W43139   8.764  10.969   5.960 -0.1959 -0.0138  0.0811
27066W        W43140   9.150   9.219  15.910  0.2248 -0.0003  0.3976
27067W        W43141   7.642   7.414  10.823  0.0130 -0.4368 -0.2874
27068W        W43142  17.032  13.944   0.781  0.1888 -0.0534 -0.0553
27069W        W43143  13.814   8.551  11.876 -0.3807  0.4498 -0.0225
27070W        W43144   9.345   9.036  15.440 -0.0140  0.0704 -0.3598
27071W        W43145   3.186   2.247   3.940 -0.0709 -0.1258  0.3019
27072W        W43146  13.236  17.819   5.421 -0.0593  0.0250 -0.2711
27073W        W43147   3.833  10.555   5.608 -0.2732 -0.1197  0.3806
27074W        W43148  10.206  14.784   1.243  0.0256 -0.2705 -0.1917
27075W        W43149   8.664   6.349  13.904 -0.1478  0.0342  0.5293
27076W        W43150   6.354   2.595  12.586  0.2533 -0.1270  0.0261
27077W        W43151   7.657   3.799   5.633 -0.0940  0.0821  0.1384
27078W        W43152   8.976   2.226   3.882  0.1687 -0.1608 -0.1563
27079W        W43153  10.699  12.582   0.136  0.0592  0.1366  0.0717
27080W        W43154  13.241   3.890   5.682  0.2122  0.2019  0.1048
27081W        W43155   8.271  15.078   2.311  0.0590 -0.0775 -0.1562
27082W        W43156  16.080   8.090   3.080 -0.0960 -0.0221 -0.1416
27083W        W43157  17.552   4.532   1.425  0.3504 -0.1706  0.2506
27084W        W43158   2.795   6.170  11.667 -0.1208 -0.1133  0.1651
27085W        W43159  12.955   8.221  11.573  0.1235 -0.0065  0.2027
27086W        W43160  15.036  11.208  14.821  0.1446 -0.1758 -0.1129
27087W        W43161  15.471   7.560   3.860 -0.0376 -0.0822  0.0491
27088W        W43162   7.555   4.974  14.106  0.0264  0.0850  0.3570
27089W        W43163   2.214   4.489  11.305 -0.2312  0.0152  0.1791
27090W        W43164  11.093  16.661   6.425 -0.1547 -0.0911  0.0983
27091W        W43165  11.475   7.349   0.199 -0.1187 -0.1523  0.0219
27092W        W43166   2.074   5.437  14.263  0.1528 -0.0693  0.2686
27093W        W43167   5.191  16.139   1.072  0.0315 -0.0111  0.0981
27094W        W43168   0.819  11.942  14.255  0.0061 -0.0673 -0.1757
27095W        W43169  12.014  10.400   3.488 -0.0450 -0.1740  0.3837
27096W        W43170  17.403   5.266   0.858  0.0810 -0.0804 -0.2035
27097W        W43171  18.032  13.197  14.139  0.1974 -0.6147  0.0452
27098W        W43172  10.779   1.331   5.592  0.0004  0.0244 -0.1042
27099W        W43173   5.811   7.807   5.581  0.0017 -0.3530 -0.0562
27100W        W43174  11.475  14.724   4.131 -0.1342  0.1331 -0.2216
27101W        W43175   1.266  11.957   4.638 -0.1866 -0.1764 -0.0896
27102W        W43176   0.698  13.481   0.425 -0.1144  0.1078  0.2096
27103W        W43177  10.250  15.681   2.136 -0.2179 -0.0158 -0.1116
27104W        W43178   4.177   1.659  14.113  0.0448 -0.0261 -0.0565
27105W        W43179  14.598   3.479   1.887 -0.2467  0.0567  0.1701
27106W        W43180  16.599   4.604  11.747 -0.0221  0.0068  0.1972
27107W        W43181   4.573  11.104   2.887 -0.0620  0.3359 -0.2665
27108W        W43182   7.513  14.083  12.180  0.0461  0.2039  0.0338
27109W        W43183   9.739   4.624   2.067 -0.0580 -0.2404 -0.2573
27110W        W43184   9.711   9.553  13.094 -0.0550 -0.1423  0.0532
27111W        W43185  15.140  13.772   0.451  0.2544 -0.0940  0.1264
27112W        W43186  16.097  14.404   0.611  0.1055  0.1509 -0.2898
27113W        W43187   4.613   3.585  14.413  0.2270  0.2302  0.0068
27114W        W43188  17.856  14.048  16.513  0.1509 -0.2423 -0.0578
27115W        W43189   5.673   7.473  12.661  0.1348  0.2042  0.1850
27116W        W43190   9.441  10.691  13.155 -0.2879  0.3458  0.1437
27117W        W43191   6.087  17.116   3.365  0.1663 -0.1783 -0.0645
27118W        W43192   1.709  16.785   0.334  0.0858 -0.2710  0.1080
27119W        W43193  17.512   8.042   5.384 -0.0299  0.1312 -0.1622
27120W        W43194   1.852  14.093  12.958 -0.4159 -0.1240 -0.1116
27121W        W43195  15.951   5.132  12.373 -0.0302  0.0513 -0.0980
27122W        W43196   3.135   9.437   3.588 -0.0467  0.1615  0.1554
27123W        W43197  14.242   8.689   0.781 -0.1842 -0.0647  0.0297
27124W        W43198   5.101  11.613  16.077  0.2722  0.1099 -0.3347
27125W        W43199  11.246   3.041   0.430  0.1081 -0.1240 -0.0109
27126W        W43200   7.020   3.277  12.387 -0.0860  0.1467  0.2937
27127W        W43201  11.480   4.218  14.230 -0.0113 -0.6495 -0.1423
27128W        W43202  15.701   0.611   5.813 -0.0570  0.0450 -0.1851
27129W        W43203   2.378  12.613  13.315  0.1313 -0.2730 -0.1021
27130W        W43204   6.787   6.789   3.643  0.0434 -0.0449  0.1610
27131W        W43205   1.181  12.105   0.302  0.1347 -0.0230  0.2860
27132W        W43206   1.835  10.896   5.095 -0.1424 -0.2103 -0.2497
27133W        W43207   1.239  14.285   0.435  0.1403  0.0682  0.2200
27134W        W43208   4.947  14.875   4.159  0.3453 -0.0062 -0.0465
27135W        W43209  11.443   1.143   3.283  0.0973  0.0540  0.0240
27136W        W43210   0.599   5.697   5.481 -0.0342  0.1165 -0.4642
27137W        W43211   3.502  12.308   2.952 -0.1064 -0.1440 -0.2827
27138W        W43212  12.683   6.345   2.985  0.0003 -0.0148 -0.0198
27139W        W43213   0.083   2.056   3.388  0.0808  0.1228 -0.0664
27140W        W43214   1.817   5.852  15.902 -0.0778 -0.1061  0.0854
27141W        W43215  11.245  15.310   3.133  0.2029  0.2454 -0.1404
27142W        W43216   4.784  13.409  13.425 -0.0028 -0.1496  0.1326
27143W        W43217   9.101   4.891   1.290 -0.1540 -0.0503  0.0002
27144W        W43218   3.545   0.270   5.472 -0.0820  0.0057 -0.3313
27145W        W43219  11.479  11.017   0.618 -0.0105 -0.0459  0.0394
27146W        W43220   3.847   0.035   1.656 -0.2110  0.0314 -0.3392
27147W        W43221   3.764  12.376   2.057 -0.0663  0.2387  0.0557
27148W        W43222   9.993   6.569   3.925  0.2460  0.1059 -0.1092
27149W        W43223   1.678   7.035  16.110  0.2805  0.2271  0.2211
27150W        W43224  13.156   0.501   2.356  0.2374  0.4973 -0.0933
27151W        W43225  11.354   2.641  14.043  0.3773 -0.2556  0.1068
27152W        W43226   7.360   3.292  13.902  0.0589 -0.1781  0.0669
27153W        W43227   9.849   7.593   5.640  0.1349  0.0362 -0.1120
27154W        W43228  11.556   0.578  16.269 -0.2193  0.1053 -0.4034
27155W        W43229  13.126  12.471  13.314  0.1067  0.0102  0.3043
27156W        W43230   6.303   7.553  15.520  0.0187  0.0147  0.1302
27157W        W43231   1.603  16.261  12.967  0.2906  0.0888  0.1126
27158W        W43232  10.409  12.747  14.356 -0.0666  0.2051 -0.1266
27159W        W43233  12.293  12.464   5.586 -0.2428  0.2002 -0.2311
27160W        W43234   1.741  11.887   2.611  0.1326 -0.1770 -0.0201
27161W        W43235   1.047  15.811   3.922  0.0544 -0.1802  0.1170
27162W        W43236   8.214   3.000   4.436  0.2245  0.0494  0.2728
27163W        W43237  16.661   1.090   3.537 -0.0621  0.0590 -0.4139
27164W        W43238  16.705   5.464   3.551 -0.2458  0.1863 -0.1150
27165W        W43239   9.594  14.277  11.269  0.0796  0.4650 -0.0628
27166W        W43240   4.005   5.670   4.385 -0.1438  0.2450  0.2295
27167W        W43241  13.873   8.791   2.711 -0.4748 -0.0121  0.1539
27168W        W43242   2.273   7.097   3.155 -0.2141 -0.3047 -0.0726
27169W        W43243   1.578  13.251  15.866  0.0661  0.0948  0.2441
27170W        W43244   1.869   3.087  14.461  0.2038  0.2114 -0.1711
27171W        W43245   1.960   9.351   4.073  0.1747 -0.1193 -0.0708
27172W        W43246   2.764   1.067  14.459 -0.0939  0.4002  0.1041
27173W        W43247   2.243   9.040   3.646  0.0442  0.1324  0.3389
27174W        W43248   1.122   7.685  16.358 -0.0907 -0.1667  0.1510
27175W        W43249   7.123   4.338   0.173  0.1471  0.0338 -0.1630
27176W        W43250  14.898   0.518   2.109 -0.0084 -0.1812  0.2716
27177W        W43251  13.427   8.309  14.149 -0.2515  0.1197  0.0356
27178W        W43252   6.794   1.277  13.015 -0.1315 -0.0358 -0.0832
27179W        W43253  16.879  11.334   3.317  0.1960 -0.0804  0.1285
27180W        W43254   0.138   6.247  12.878 -0.0636 -0.1333  0.2474
27181W        W43255  14.819  11.230  12.114 -0.1765 -0.0663  0.0230
27182W        W43256   1.795   4.582  12.065 -0.0184  0.0837  0.0569
27183W        W43257  16.611   3.216   2.133  0.3516 -0.0635 -0.3127
27184W        W43258  12.781   1.491  14.485  0.1508 -0.0456  0.1940
27185W        W43259   3.814  11.081  16.244 -0.1400 -0.0747  0.0420
27186W        W43260  11.808  16.608  12.924 -0.1994  0.0279  0.2180
27187W        W43261   0.837   5.113  12.138 -0.1925 -0.1601  0.0317
27188W        W43262  16.253   2.544   0.154 -0.2184  0.3770  0.3821
27189W        W43263  15.096   2.508  12.143 -0.0927  0.1617  0.3019
27190W        W43264  16.186   9.187   0.611  0.0524  0.1554  0.3730
27191W        W43265   3.016   4.258   3.600  0.3437 -0.0785 -0.1087
27192W        W43266  15.656  15.062   1.783  0.3500 -0.1902 -0.1664
27193W        W43267  18.127   3.451   1.309  0.1833  0.0149  0.0983
27194W        W43268  14.671  14.842  11.106  0.0820  0.1445 -0.1938
27195W        W43269  12.169  12.254  13.283  0.0033 -0.1588 -0.1912
27196W        W43270   4.969  12.268  11.908 -0.2983  0.1643  0.2001
27197W        W43271  11.261  10.762   2.925  0.1464 -0.0739  0.0737
27198W        W43272   6.405   4.582  15.033  0.0911 -0.1450 -0.1428
27199W        W43273   0.211   8.296   4.044 -0.0544  0.0634 -0.1211
27200W        W43274  15.365   3.382  15.408 -0.1518 -0.4728  0.2730
27201W        W43275   1.307  16.645   3.628 -0.1525 -0.4347  0.2725
27202W        W43276  10.151  10.966   5.949  0.0499  0.0495 -0.0615
27203W        W43277  15.431   2.098  12.472 -0.1660 -0.4004  0.1854
27204W        W43278  15.010  16.931  14.606  0.0274 -0.0238 -0.0707
27205W        W43279  15.037   8.496  14.341  0.2962  0.0085  0.0944
27206W        W43280  13.432  13.977  16.018  0.1007 -0.1500 -0.0125
27207W        W43281   3.614  11.426   1.454  0.1219  0.3320  0.0408
27208W        W43282  10.690   8.882   4.298 -0.1586 -0.0195  0.1750
27209W        W43283  11.366   7.464   2.682  0.2116  0.0317  0.0725
27210W        W43284  10.811   3.648   2.484 -0.1169  0.0476  0.1843
27211W        W43285  15.741   7.311  13.866  0.0748  0.2750  0.0444
27212W        W43286   5.293   1.095   4.435 -0.0940 -0.0219  0.1325
27213W        W43287   4.647   6.694  13.821  0.0049 -0.1763 -0.3477
27214W        W43288   3.238   8.334  13.913  0.1760  0.2052 -0.3566
27215W        W43289  14.274   7.787   4.830  0.0988 -0.2638  0.2192
27216W        W43290   3.164  13.595  12.516 -0.3312  0.2317 -0.0589
27217W        W43291   2.618  11.461  12.359  0.3190 -0.1528 -0.2663
27218W        W43292   7.082   4.314  15.004 -0.2088  0.0175 -0.1256
27219W        W43293   2.403   7.562  16.321  0.2110  0.0359  0.4025
27220W        W43294   7.076  14.112   1.459  0.0104 -0.1247 -0.1342
27221W        W43295   0.538   6.249  12.200  0.0566  0.3298 -0.0958
27222W        W43296   8.751  10.674   2.150 -0.2591 -0.0268  0.1824
27223W        W43297  13.035   0.101  13.434 -0.0197  0.2533 -0.2600
27224W        W43298   1.945   5.746  16.386 -0.1370  0.1940  0.1388
27225W        W43299   6.455   2.860   4.503  0.1186 -0.2125  0.1847
27226W        W43300  12.386   2.544   3.301  0.2694  0.0909  0.1341
27227W        W43301  13.706   5.852   1.871 -0.0964 -0.3746 -0.2344
27228W        W43302   2.004   7.494  12.853 -0.2946 -0.0070  0.0817
27229W        W43303  16.436  14.815  11.356  0.0706 -0.2265 -0.3875
27230W        W43304   1.854   4.061   0.292  0.1551  0.0708  0.2349
27231W        W43305  12.183   2.066   3.198  0.2835  0.0304 -0.0081
27232W        W43306   1.879   7.609  13.608 -0.1629 -0.0246  0.1519
27233W        W43307  10.207  17.437  13.922 -0.3222 -0.0499 -0.0039
27234W        W43308   5.582  16.774   2.845 -0.0543  0.3789  0.0970
27235W        W43309   8.822   8.643   3.776 -0.0305  0.0678 -0.2391
27236W        W43310   7.168   1.919  15.785  0.0147  0.1368  0.2638
27237W        W43311  16.788   9.836  16.517 -0.0850 -0.1739 -0.2340
27238W        W43312  18.132   3.582   5.758 -0.2213  0.4597 -0.2675
27239W        W43313   6.897  15.169  15.910 -0.0210  0.1333  0.1760
27240W        W43314  17.644  17.600  11.941 -0.2012  0.1350  0.2435
27241W        W43315  14.949  18.196   6.174  0.0667  0.1949 -0.1141
27242W        W43316  17.676  16.514   4.293 -0.1283  0.2413  0.1737
27243W        W43317  14.738   2.795  15.958  0.1279 -0.3853 -0.0935
27244W        W43318  16.498   4.969   2.762  0.0820 -0.1458  0.2380
27245W        W43319  12.608   9.623  15.680  0.2009  0.0081  0.0661
27246W        W43320   8.151  15.668   5.566 -0.0861 -0.2723  0.2764
27247W        W43321  16.052   9.944  16.385 -0.1794 -0.1493 -0.2000
27248W        W43322  17.942  13.779  12.865 -0.0984  0.2237  0.0176
27249W        W43323   4.927   2.532  13.566 -0.2141  0.4456  0.1517
27250W        W43324   8.492   1.754   3.298 -0.1148  0.2856  0.0243
27251W        W43325   3.762   7.782  12.346  0.1634 -0.3891  0.2304
27252W        W43326   7.029   9.961  15.991 -0.0597  0.0087 -0.3827
27253W        W43327   3.013   1.540  15.360  0.2403 -0.1077  0.2290
27254W        W43328  10.377   6.378  15.711 -0.0172  0.0442 -0.0871
27255W        W43329   6.587  13.159  16.316 -0.1606  0.0748 -0.0646
27256W        W43330  16.347  15.459  12.703 -0.1515 -0.0679  0.1884
27257W        W43331  12.274  12.997   4.918 -0.1082  0.1771 -0.0757
27258W        W43332  12.078   8.211   4.952  0.1313  0.0033  0.2463
27259W        W43333  11.075   2.634  14.924  0.0111 -0.3926 -0.0736
27260W        W43334   4.220  11.370   5.099 -0.1276  0.1967  0.1183
27261W        W43335   5.694   6.119  14.698  0.1033  0.0167 -0.0117
27262W        W43336  11.702   0.350  13.791  0.0322 -0.1652  0.0212
27263W        W43337  17.969  11.299  16.520  0.0819  0.3650 -0.0351
27264W        W43338   6.256  13.069  11.757  0.0354  0.2570 -0.0425
27265W        W43339   5.971   4.306  15.065  0.1478 -0.2650  0.3263
27266W        W43340  17.349  10.964   0.567  0.2577  0.0113  0.1924
27267W        W43341   7.298  16.142   5.678  0.3388  0.0558 -0.2023
27268W        W43342   6.850  16.838  13.731  0.0587 -0.1734 -0.1129
27269W        W43343  15.052   1.731   5.887 -0.0907 -0.2956 -0.1256
27270W        W43344  12.868   8.710   5.666  0.1790 -0.2346  0.0403
27271W        W43345   6.073   0.005   1.198  0.2585 -0.3823 -0.3551
27272W        W43346  15.370   7.237   2.657  0.2618  0.0465  0.0094
27273W        W43347  11.116   0.832  16.477  0.2959  0.1480  0.5380
27274W        W43348  14.500  10.845  12.085  0.0591 -0.1153  0.0269
27275W        W43349   1.037  12.714   4.233 -0.1840  0.0471  0.1894
27276W        W43350  10.829  16.553   5.382  0.4363  0.0234  0.0449
27277W        W43351   4.811   8.457  13.934  0.1329 -0.0109 -0.0476
27278W        W43352   9.713   9.452  15.136 -0.4541 -0.0907  0.3174
27279W        W43353   9.156  14.270   1.436 -0.1193 -0.0154 -0.1825
27280W        W43354  17.596   5.078   1.761  0.3310 -0.0447  0.0287
27281W        W43355  13.392   9.034  16.063 -0.2299  0.0398 -0.1371
27282W        W43356   0.223  13.638   0.610 -0.1121  0.0276  0.1307
27283W        W43357   4.710   6.463   4.214 -0.5459 -0.0869 -0.2535
27284W        W43358   8.728  16.292  14.190 -0.2267 -0.1266 -0.1243
27285W        W43359   1.121   5.188  11.688  0.0689 -0.0984  0.0390
27286W        W43360  14.502   8.651  15.153  0.0945 -0.1893 -0.0540
27287W        W43361   1.192  11.430   5.611 -0.1992 -0.1779  0.2085
27288W        W43362   3.375  15.283  12.442  0.0671  0.2426  0.0921
27289W        W43363   5.131   0.760  15.642 -0.0541 -0.0817  0.3628
27290W        W43364   5.859  11.614   1.927  0.0691 -0.0885  0.0405
27291W        W43365  13.486   0.739   5.580  0.0090 -0.0963  0.1416
27292W        W43366   1.291  14.831  16.217  0.2350 -0.1532 -0.2235
27293W        W43367  15.695  10.127   3.044 -0.0578  0.4204 -0.0218
27294W        W43368   3.815   8.257   2.446 -0.1102  0.0789 -0.3106
27295W        W43369   5.252  13.004  13.632 -0.1259 -0.0232  0.2258
27296W        W43370   0.529  12.174   2.673 -0.3051 -0.0349  0.1092
27297W        W43371   6.892  14.114  14.439 -0.1952  0.0674 -0.0653
27298W        W43372   6.952  16.727  15.142  0.0595 -0.0123  0.0852
27299W        W43373   8.640   1.765   0.642 -0.0168 -0.1296 -0.1646
27300W        W43374   9.055  10.450   2.476  0.1025  0.7086 -0.1580
27301W        W43375   0.271   9.847  14.272  0.1177  0.2038  0.0410
27302W        W43376   8.063   7.315   1.597 -0.1619 -0.3485 -0.2735
27303W        W43377  14.130  13.550  11.431  0.0784  0.0109 -0.3077
27304W        W43378   3.651   5.384  12.377  0.1834  0.2594 -0.0443
27305W        W43379   7.145  16.741   1.147 -0.1992 -0.2272 -0.1153
27306W        W43380   8.510   2.891  14.424  0.1464  0.0964  0.1454
27307W        W43381  18.185  14.089   0.728  0.4356  0.1844 -0.2134
27308W        W43382  15.779   2.329   0.090 -0.1046  0.3524  0.2720
27309W        W43383   0.622   2.175   1.849  0.1541 -0.1425 -0.0467
27310W        W43384   0.487  13.247  12.655 -0.0130  0.1422  0.0310
27311W        W43385  12.768   4.937  16.246 -0.0527 -0.1650  0.1978
27312W        W43386  17.169  14.278  11.437 -0.1479 -0.0068  0.0108
27313W        W43387  12.145   8.013  16.166 -0.1247 -0.1485 -0.0492
27314W        W43388   2.528   9.728  12.307  0.2385 -0.0868 -0.3477
27315W        W43389   6.412   7.821   0.381  0.0108  0.2761 -0.0144
27316W        W43390   9.747  11.452   1.341 -0.0332 -0.2333  0.0103
27317W        W43391  15.303   7.513  13.387 -0.1130 -0.3431 -0.3146
27318W        W43392  16.549  12.111   4.765  0.1052 -0.1852  0.0615
27319W        W43393   2.291   9.681   1.905  0.2307 -0.1399  0.2127
27320W        W43394   4.455   4.614   3.310 -0.0679  0.3062 -0.0639
27321W        W43395  15.223   3.035   3.594 -0.3121 -0.0254  0.1510
27322W        W43396  14.662   1.727   3.667 -0.2087  0.1946 -0.2468
27323W        W43397  14.568  15.763  16.353 -0.1941 -0.3745  0.0298
27324W        W43398   1.592   0.384  14.385 -0.0746 -0.1187 -0.1896
27325W        W43399  16.198  15.212  14.311 -0.1128  0.2828  0.0975
27326W        W43400  12.046   8.292  12.571 -0.1015 -0.1337  0.1678
27327W        W43401   2.392  17.952   5.690  0.3267  0.1751  0.2598
27328W        W43402   3.947  12.996  12.367  0.1153  0.2903 -0.0548
27329W        W43403   9.067  15.553   5.320 -0.0395 -0.3448  0.0624
27330W        W43404   9.108   7.707  14.766 -0.0199 -0.2340 -0.1679
27331W        W43405   0.955   6.506  13.092  0.0341  0.0979 -0.0335
27332W        W43406  14.064  10.576   5.644 -0.0853 -0.2069  0.0347
27333W        W43407  10.345  15.465  14.300  0.0741 -0.2442  0.0604
27334W        W43408  11.431  12.571  13.952 -0.0394 -0.1401  0.2465
27335W        W43409  17.314   8.479   3.306  0.0349  0.1842  0.0609
27336W        W43410   4.157   1.686  13.076  0.3140 -0.1027 -0.4085
27337W        W43411   4.046  15.059   2.033  0.0782  0.1513 -0.2029
27338W        W43412   1.839  12.845   1.253  0.2002  0.1201 -0.2091
27339W        W43413   8.312   0.942   4.616  0.1435 -0.1378  0.2680
27340W        W43414   7.550   2.994  12.026 -0.0671  0.1667  0.1863
27341W        W43415   6.166   6.433   0.830  0.3892  0.4540  0.2695
27342W        W43416   6.974  16.313   2.985  0.1557  0.2360 -0.1456
27343W        W43417   7.136   7.666  16.510  0.0017 -0.0869 -0.0304
27344W        W43418   2.378  17.882  13.335 -0.2919 -0.0427 -0.2611
27345W        W43419  15.383  13.736   5.152  0.0535  0.0380 -0.0697
27346W        W43420  16.382   2.479   0.714 -0.0121 -0.2614  0.0068
27347W        W43421  17.254   1.878  13.676  0.2209  0.1325  0.2987
27348W        W43422   4.067  16.325  16.482 -0.1152  0.0817  0.1237
27349W        W43423  10.076  10.621  15.439 -0.0290 -0.1655 -0.1604
27350W        W43424  15.249   8.038   5.503 -0.1263 -0.2782 -0.0562
27351W        W43425   6.177  10.401  12.541  0.4489  0.1506  0.0567
27352W        W43426   5.506  10.601  15.235  0.3168  0.0640  0.6671
27353W        W43427  13.543   3.800   2.782  0.0390  0.1664  0.0433
27354W        W43428   7.388   7.231   6.552 -0.0850 -0.0251  0.2024
27355W        W43429  12.073   6.074   0.037  0.0965  0.0921 -0.2035
27356W        W43430   6.321   1.384   3.670  0.1213  0.2661 -0.0663
27357W        W43431  15.609   8.119  15.967 -0.1869  0.2075  0.0859
27358W        W43432   0.016   6.894   3.205 -0.3413  0.4606  0.0422
27359W        W43433  13.783  14.691  16.112 -0.0732  0.0973  0.1211
27360W        W43434  15.963  16.074  14.577 -0.0550  0.1341  0.2257
27361W        W43435  11.896   1.264  11.475 -0.0009 -0.2029 -0.1029
27362W        W43436   0.826   4.917  15.375 -0.2920 -0.0372  0.0158
27363W        W43437   4.677  11.420   0.454 -0.1450  0.0724 -0.0069
27364W        W43438   6.393  16.863   6.126 -0.0650 -0.1598 -0.1762
27365W        W43439   9.926   0.483  13.169 -0.1684 -0.1716 -0.2478
27366W        W43440   9.484   1.623   5.127 -0.1147 -0.2560 -0.0925
27367W        W43441  12.490   0.092   3.036 -0.2633  0.0392 -0.3588
27368W        W43442  13.817  17.113   1.677 -0.5215  0.0823 -0.0205
27369W        W43443  17.177  14.460   1.557  0.1640  0.0141  0.1014
27370W        W43444  16.775   0.028  14.340  0.1395 -0.3386 -0.1871
27371W        W43445   6.244   8.519  14.905  0.0103 -0.0085 -0.2719
27372W        W43446  17.846  12.821  10.996 -0.1939  0.1800  0.5419
27373W        W43447   0.466   1.135  16.354  0.2814  0.2957 -0.1249
27374W        W43448  17.889   6.622  12.709  0.0947  0.0062 -0.0892
27375W        W43449   1.414   6.929   0.577 -0.0498 -0.1725 -0.0477
27376W        W43450   1.322  11.004  15.044  0.0004  0.0343  0.1640
27377W        W43451  14.452   6.043   4.379 -0.0892 -0.3610 -0.1360
27378W        W43452  16.944  12.012  15.764  0.2635 -0.0155  0.1369
27379W        W43453  16.686   2.366  11.328 -0.0915 -0.0900 -0.0019
27380W        W43454   1.116  17.259   3.719  0.0838 -0.0633 -0.0994
27381W        W43455  16.996   8.261  11.992  0.2539 -0.1227  0.0959
27382W        W43456   2.533  16.272  14.199 -0.2767 -0.1672  0.0231
27383W        W43457   1.799   5.826   5.192 -0.2788  0.0891  0.0816
27384W        W43458   1.750  13.029  13.477 -0.1982  0.0893  0.1307
27385W        W43459  13.652   9.761   0.128 -0.2321 -0.1683  0.0137
27386W        W43460  16.121   4.253   3.127  0.2173 -0.0713  0.0305
27387W        W43461   3.330   9.534  15.820 -0.2431  0.0807 -0.3033
27388W        W43462   1.323   4.317  11.160 -0.3092  0.0157 -0.0308
27389W        W43463  10.584  11.843   0.354  0.0157  0.1093  0.2471
27390W        W43464   7.766  11.548  12.705  0.0459 -0.0361 -0.0669
27391W        W43465   6.698   5.973  13.972 -0.0728 -0.3514  0.0273
27392W        W43466   7.624   6.228  13.529  0.1836 -0.0277 -0.2013
27393W        W43467  11.663   0.046   0.555  0.1117  0.1951  0.2126
27394W        W43468   4.563   1.473  12.095 -0.0580 -0.0752  0.0103
27395W        W43469   7.865   7.962  15.504 -0.2462  0.0427  0.0151
27396W        W43470   7.888   0.598  15.228  0.1802 -0.0680  0.0440
27397W        W43471  13.891  14.511   6.339 -0.4445  0.0795 -0.2209
27398W        W43472  14.340   9.715  15.194  0.1240  0.4569 -0.2906
27399W        W43473   6.002   0.216   5.676 -0.2446 -0.2158 -0.0344
27400W        W43474   7.323   1.040  12.855  0.0306  0.1182  0.0153
27401W        W43475   3.439  15.902   4.932  0.0283  0.1612  0.0346
27402W        W43476  13.458   5.256  13.261  0.0175  0.0066  0.0485
27403W        W43477   1.969   1.708  14.110 -0.3558  0.1682 -0.1022
27404W        W43478  14.335  12.835   2.573  0.0866 -0.1790 -0.3435
27405W        W43479  17.614  15.042   3.060 -0.1706  0.2522 -0.0716
27406W        W43480   3.081   8.698  10.200  0.1515 -0.1820  0.0564
27407W        W43481  11.276   5.746   1.959  0.0754  0.0758  0.2167
27408W        W43482  10.445  12.723  13.889  0.0260 -0.2350  0.0910
27409W        W43483   7.025  11.870   5.114  0.1797 -0.2757  0.1869
27410W        W43484   0.992  13.466   1.508 -0.0514 -0.0098  0.1959
27411W        W43485  16.487  10.490   2.464 -0.2368 -0.0897  0.0660
27412W        W43486   6.455   2.382   0.368 -0.1931  0.1810  0.0851
27413W        W43487   5.074  14.366   4.093  0.0992  0.0735 -0.0296
27414W        W43488  14.733  13.229   1.574  0.0725  0.1334 -0.1935
27415W        W43489  11.118  17.693  12.442 -0.0361 -0.0516 -0.0668
27416W        W43490   8.817   4.521   6.360  0.3492 -0.1241  0.0463
27417W        W43491   2.394   8.173   1.070  0.1676  0.1061 -0.2738
27418W        W43492  10.276  13.393  13.638 -0.1498  0.2073  0.1157
27419W        W43493   9.561   1.979   1.351 -0.2094  0.0986 -0.2183
27420W        W43494  17.594   6.542   4.632 -0.0332  0.2235 -0.1577
27421W        W43495   9.974   3.291   0.503  0.0395 -0.0646 -0.1052
27422W        W43496   9.290  17.561   3.891  0.2133 -0.2416  0.1111
27423W        W43497   9.845   7.481   0.013  0.1778 -0.4271 -0.3891
27424W        W43498  13.762  13.367  12.897  0.3474  0.0646 -0.0121
27425W        W43499   3.827   7.331   2.042  0.1821  0.0713 -0.1112
27426W        W43500  12.538   5.075   1.588 -0.6614  0.2046 -0.0272
27427W        W43501   0.075   4.340   4.708  0.0617  0.0496 -0.1213
27428W        W43502  15.855  16.931   2.687 -0.1916  0.0620 -0.2377
27429W        W43503  11.540   8.873  15.958  0.1672 -0.1823  0.0891
27430W        W43504  10.812  14.387   5.366 -0.3608  0.1231  0.3410
27431W        W43505  15.884   0.248  15.734  0.0429 -0.1841 -0.0762
27432W        W43506   0.281  12.426   1.459 -0.2069 -0.0669 -0.1296
27433W        W43507  16.233   4.734  12.535  0.2115  0.0759 -0.3201
27434W        W43508   1.333  12.688   6.161  0.0523  0.0679  0.0404
27435W        W43509   9.938   2.144  11.981 -0.0532 -0.4424 -0.0919
27436W        W43510   0.971  12.631   2.746  0.2385 -0.1718 -0.4937
27437W        W43511  10.738  11.059  14.306  0.0337 -0.0315 -0.2135
27438W        W43512  13.855   0.521   5.172  0.1557 -0.1798  0.1545
27439W        W43513  15.648   7.427   4.413  0.0666  0.4909  0.0325
27440W        W43514  17.903   9.534   2.673  0.2052  0.0767 -0.1074
27441W        W43515  16.675   5.858   0.382  0.2640  0.1188  0.1288
27442W        W43516  17.501  10.737   2.791  0.0061  0.1824 -0.0658
27443W        W43517   5.353  16.229  16.123  0.0829  0.0890 -0.0235
27444W        W43518  16.898   1.666  13.995  0.0050  0.0382  0.1502
27445W        W43519   0.948  13.001   3.086  0.1351  0.0915  0.2153
27446W        W43520  14.451   0.015   6.234 -0.2747  0.1415 -0.0137
27447W        W43521  17.421   7.212   3.501 -0.0232  0.0517  0.1638
27448W        W43522   4.589   8.754   1.426 -0.1787  0.0179 -0.1575
27449W        W43523  16.302   2.736  11.333 -0.1333  0.3192 -0.2017
27450W        W43524  13.843  12.993  12.560  0.0501 -0.3846 -0.0842
27451W        W43525  17.175   8.233   5.073 -0.1964  0.0254  0.1460
27452W        W43526   9.591   7.067   2.532  0.2901 -0.1414 -0.2429
27453W        W43527  17.152  10.560  15.966  0.3521  0.1533  0.1932
27454W        W43528  17.187  13.565   1.890  0.0415 -0.1021 -0.0034
27455W        W43529   7.008   8.944   1.942 -0.1133  0.4006 -0.0353
27456W        W43530  18.035  12.228   4.318 -0.0706 -0.0796  0.1807
27457W        W43531   9.743  18.042   0.310  0.0975 -0.0334  0.0788
27458W        W43532   2.277  15.752   5.036 -0.2870  0.0335  0.0335
27459W        W43533   8.954  10.230  11.313 -0.1430  0.0862 -0.0915
27460W        W43534   8.449   9.567  13.919  0.2431 -0.1695 -0.0117
27461W        W43535   0.875  13.542   0.985 -0.0361  0.1362  0.1043
27462W        W43536   5.097   5.431   1.585 -0.1384  0.1957 -0.0870
27463W        W43537  17.153   5.893   4.877  0.0021 -0.3635  0.0794
27464W        W43538  16.966  13.430  15.716 -0.1838  0.1412  0.2760
27465W        W43539  15.110  12.995  15.955  0.1397  0.0847  0.0127
27466W        W43540   5.123  13.302  13.010 -0.5606  0.0367  0.2445
27467W        W43541  18.026   3.962   6.087  0.1780 -0.3177  0.3160
27468W        W43542   3.346  17.970   3.910  0.1421  0.0953 -0.1882
27469W        W43543   3.385   1.319  16.241 -0.0597 -0.2202  0.1016
27470W        W43544   3.145   7.129  15.167 -0.2008 -0.0488  0.1599
27471W        W43545  13.304  15.482  12.232  0.0903  0.5246 -0.4574
27472W        W43546  15.486   7.857   5.105 -0.0424 -0.1296  0.1311
27473W        W43547  12.873   7.095  14.846  0.1448  0.1874  0.0892
27474W        W43548   8.552  12.294  12.075  0.0577  0.2387  0.2324
27475W        W43549  12.153   8.267   1.811  0.1090  0.0998  0.3049
27476W        W43550  15.023  12.762  13.570 -0.3776  0.0660 -0.2085
27477W        W43551   0.242   7.451   2.875  0.1419 -0.1970  0.1368
27478W        W43552   4.304  13.413   0.307 -0.0506 -0.1583 -0.2501
27479W        W43553   0.508  11.356  13.448  0.2138 -0.1845  0.0264
27480W        W43554  14.678   5.563   0.625 -0.1917 -0.0991  0.1159
27481W        W43555   4.276   5.930   0.045 -0.2267  0.2268 -0.1089
27482W        W43556  12.871  14.140   0.193 -0.1536 -0.0542  0.1750
27483W        W43557  17.984  16.390   5.470 -0.0175 -0.0217  0.2685
27484W        W43558  10.343   9.235  14.250  0.1064 -0.2676  0.1730
27485W        W43559   7.920   2.592   4.342 -0.1449  0.1489 -0.0384
27486W        W43560   3.802   6.965   0.217  0.0049  0.2773  0.0452
27487W        W43561   3.549  11.402  13.062  0.1049 -0.1406 -0.0587
27488W        W43562   6.155   2.754  11.532 -0.1994  0.0816  0.3210
27489W        W43563   5.575   2.805   2.598  0.2756 -0.1123  0.1869
27490W        W43564  11.762   7.513   3.782  0.2509 -0.0819  0.4987
27491W        W43565   1.367  15.527  12.137 -0.0857  0.0840  0.1254
27492W        W43566  10.121  11.813   2.079 -0.0027  0.4073  0.0300
27493W        W43567   1.814  16.723  13.637 -0.3129  0.0767  0.2292
27494W        W43568   1.076  11.624   4.365  0.1757  0.0664  0.0156
27495W        W43569   2.796   7.235  16.215  0.0095 -0.0366  0.1737
27496W        W43570   9.170  11.719  15.533 -0.0969 -0.0493 -0.0439
27497W        W43571  15.565  17.841  12.037  0.0894 -0.2516 -0.2878
27498W        W43572   5.665  14.465   2.026 -0.1727 -0.0548 -0.0296
27499W        W43573   8.688   5.218   5.922  0.0113 -0.0161 -0.0652
27500W        W43574  16.943   6.872   3.783 -0.0086 -0.2537  0.1144
27501W        W43575   0.957  12.579  16.052 -0.1353 -0.2068 -0.4976
27502W        W43576   4.310   0.820  14.403 -0.1772  0.0445 -0.3640
27503W        W43577   5.485  11.763  14.425  0.2057  0.2075 -0.3740
27504W        W43578  11.832   6.740   3.304 -0.0893  0.0164 -0.0243
27505W        W43579  17.395   6.907   5.503  0.1165 -0.0659  0.3692
27506W        W43580  10.313   6.500   5.252  0.0184  0.0909  0.0971
27507W        W43581   9.349   8.419  14.645 -0.0089  0.3247  0.3210
27508W        W43582   4.371   1.270   0.734 -0.0845 -0.2678 -0.0320
27509W        W43583   1.523  14.302  15.196 -0.1046 -0.4377  0.0934
27510W        W43584   9.127  12.371   3.904  0.1769 -0.1996  0.0661
27511W        W43585   0.716   1.952  14.860  0.0769  0.1140  0.0287
27512W        W43586   1.381  17.466   1.048 -0.0592 -0.1270  0.1801
27513W        W43587  14.415  15.437   3.970  0.0291 -0.2415  0.0914
27514W        W43588   8.813  17.722   0.610  0.1318 -0.0647  0.1058
27515W        W43589   1.156   4.043  14.457  0.0932 -0.0961  0.0062
27516W        W43590   1.763  15.005  14.260  0.1329 -0.2354 -0.2000
27517W        W43591   7.685   8.010   6.067  0.0531 -0.0517 -0.1257
27518W        W43592   4.021  16.600  11.673  0.3005  0.0238 -0.4601
27519W        W43593  13.269   4.109   4.659  0.0084 -0.2074 -0.1739
27520W        W43594  10.291   8.652  13.445 -0.1065 -0.0558 -0.4821
27521W        W43595   0.260  10.886  13.319  0.0660  0.2298 -0.3302
27522W        W43596   6.961  11.035  12.633  0.1685  0.2158 -0.2187
27523W        W43597   4.830  10.564  15.914 -0.3901 -0.1166 -0.0981
27524W        W43598  16.091   9.051  15.879  0.1828  0.3984 -0.1827
27525W        W43599  13.681  15.691   2.208  0.1240 -0.0694  0.1575
27526W        W43600  17.393  17.075   0.202  0.2064 -0.0484 -0.0642
27527W        W43601   5.061  11.806  12.143 -0.2618  0.4717  0.2955
27528W        W43602   1.072  17.088  12.781 -0.0486  0.1600  0.0708
27529W        W43603  11.622  18.186   1.216 -0.0772  0.1879  0.0712
27530W        W43604  10.289  10.585   0.326  0.0313  0.0471  0.1952
27531W        W43605  12.635   4.082   4.195 -0.0257 -0.2583  0.0048
27532W        W43606   8.553   4.604  12.468  0.3665  0.0557  0.0718
27533W        W43607   3.305   1.053   2.280  0.1145 -0.1786 -0.1276
27534W        W43608  10.477   3.558  12.633 -0.1263  0.3239  0.2698
27535W        W43609  15.365   3.704  12.957 -0.0037  0.1091 -0.2263
27536W        W43610   8.825   9.531  11.639 -0.0260 -0.0380  0.1762
27537W        W43611   2.398  11.925  10.496  0.0225  0.0448 -0.3057
27538W        W43612   4.155  10.592  12.472  0.0397 -0.2378 -0.3128
27539W        W43613   6.745   4.593  16.137  0.1592 -0.0413  0.1288
27540W        W43614   9.956  10.763  14.264 -0.0825 -0.1753  0.3226
27541W        W43615   6.081  11.831  13.568 -0.2275 -0.1317  0.2515
27542W        W43616  13.942  16.259  15.084  0.0708  0.1662  0.3950
27543W        W43617   5.622   1.199   4.793 -0.3354 -0.1842 -0.2486
27544W        W43618   5.333   5.614   3.885  0.1356 -0.0663  0.3126
27545W        W43619   0.301   3.143  16.325  0.1699  0.5328  0.2073
27546W        W43620   5.991  13.421   1.853 -0.0649 -0.0181 -0.0147
27547W        W43621  10.857  12.072  13.935 -0.3404  0.0171 -0.2434
27548W        W43622   9.631  15.223  12.584  0.0158  0.0611 -0.2866
27549W        W43623  16.946   4.532   5.491 -0.0464 -0.3438 -0.0450
27550W        W43624  12.831   4.764  15.548 -0.2821 -0.3413 -0.1685
27551W        W43625  14.728   1.672   1.564 -0.0992 -0.1991  0.2130
27552W        W43626   0.670   8.525  11.774  0.1001  0.2826  0.2314
27553W        W43627   2.808  15.083  16.148 -0.0262  0.1143  0.0531
27554W        W43628  16.052   5.238  12.825 -0.0121  0.3882  0.2518
27555W        W43629  13.653  12.046   0.492  0.0475  0.1817  0.1490
27556W        W43630   7.907  14.942  12.172  0.1588  0.1537 -0.2818
27557W        W43631   5.994   3.195  12.729 -0.0417  0.0051 -0.0242
27558W        W43632  13.975   1.890   0.517  0.1441  0.1457  0.0494
27559W        W43633  14.512   3.905  12.479  0.1593 -0.0301  0.2967
27560W        W43634   0.578   5.042  11.749 -0.0292  0.2122 -0.0646
27561W        W43635   9.531   3.548   3.250 -0.0212  0.1500  0.0040
27562W        W43636   1.645  13.884  11.788 -0.0850  0.1694  0.0762
27563W        W43637   6.128  10.825   3.779  0.1504  0.1044 -0.3738
27564W        W43638  12.949   9.608   2.685 -0.1045  0.0367 -0.0869
27565W        W43639  11.109   6.761  16.191  0.3772 -0.3653  0.0171
27566W        W43640   7.170  14.287   2.134 -0.1712  0.4464  0.0842
27567W        W43641  17.207   1.114   5.073 -0.0473 -0.2885 -0.3521
27568W        W43642   3.091   5.082   1.052  0.0838  0.1860  0.1570
27569W        W43643  12.486   5.793  14.672 -0.1356 -0.0767 -0.2780
27570W        W43644  15.957   1.628   1.245 -0.0226  0.3151  0.0783
27571W        W43645  10.741  14.090  15.706 -0.0415  0.0727  0.0905
27572W        W43646   1.631  10.035   0.137 -0.1723  0.1730 -0.0406
27573W        W43647  12.987  12.008  15.302 -0.2339  0.1302 -0.1392
27574W        W43648   5.593   5.616  13.550  0.1209  0.0290  0.0108
27575W        W43649   5.344   0.128   4.990  0.1324  0.0591  0.3673
27576W        W43650  15.861   2.370   0.827  0.0550  0.2305 -0.1601
27577W        W43651  11.037  16.854   1.239 -0.0281 -0.1824 -0.0711
27578W        W43652   3.202  12.864   1.423 -0.3727  0.3593 -0.0585
27579W        W43653   6.333  16.163   2.605 -0.2549 -0.0511  0.1860
27580W        W43654  12.067  11.274   4.348  0.1203 -0.1254 -0.2765
27581W        W43655  10.216   2.762   6.452  0.2354 -0.1554  0.3625
27582W        W43656   7.811   7.139   5.840 -0.1961 -0.1411 -0.2556
27583W        W43657   5.913   4.217   2.300 -0.0651 -0.2260 -0.0111
27584W        W43658   8.168  10.981  14.573  0.1141  0.0085 -0.4850
27585W        W43659   5.999   1.127  15.723 -0.0001 -0.0763 -0.1201
27586W        W43660  11.156  13.119  15.858 -0.1840 -0.0239 -0.1041
27587W        W43661  14.512  11.965   0.657  0.4024 -0.0495 -0.2565
27588W        W43662   4.802   9.127   3.759 -0.2589 -0.0337 -0.4731
27589W        W43663  13.388   8.920   0.991  0.0566 -0.3067  0.0705
27590W        W43664  12.269   8.830   3.953  0.0794 -0.0911  0.0772
27591W        W43665   4.072   2.130  12.785  0.0940 -0.2141  0.1422
27592W        W43666  12.698  17.867  11.883 -0.0319 -0.2360  0.0305
27593W        W43667   6.121   1.880   1.647  0.0613  0.3800  0.1060
27594W        W43668   0.799   7.158   0.595 -0.0997 -0.1235  0.1136
27595W        W43669  15.385  16.089  13.375 -0.1589  0.1635  0.1384
27596W        W43670   7.577  11.747   3.560 -0.2168  0.0173  0.0981
27597W        W43671   9.081   2.607   0.953  0.1387  0.2583  0.1075
27598W        W43672  16.476   1.498   0.600  0.0526 -0.1350  0.0346
27599W        W43673  12.812  15.810   3.184 -0.0541 -0.0695 -0.0859
27600W        W43674   0.861   8.857   1.619 -0.1596  0.1137  0.0467
27601W        W43675  14.173  11.497  15.405  0.0479  0.2244 -0.1884
27602W        W43676   8.917   7.445   1.968  0.1226  0.0252  0.2011
27603W        W43677   6.896  12.480   4.701  0.4120 -0.2229  0.0379
27604W        W43678  16.055  12.089   3.031 -0.0887 -0.0678  0.1044
27605W        W43679   0.060   9.199  12.924 -0.1122  0.0963  0.1491
27606W        W43680   1.698   8.792  14.468  0.0716 -0.0368 -0.0540
27607W        W43681   6.533   7.711   2.382 -0.0870 -0.0718  0.0003
27608W        W43682  14.731  14.724  16.332 -0.4045 -0.0702 -0.0075
27609W        W43683  14.223  16.825   5.149  0.1072 -0.1222 -0.1204
27610W        W43684  11.630   2.559  13.514  0.0549  0.1825 -0.1237
27611W        W43685   0.738  15.115  12.353  0.2660 -0.2783 -0.1360
27612W        W43686  12.002   3.460   5.281 -0.0342  0.1002  0.0267
27613W        W43687   7.712  17.764  13.760 -0.2024 -0.0709 -0.1497
27614W        W43688   4.229   8.601   4.716 -0.0923 -0.0187  0.1532
27615W        W43689  15.578   2.928   4.869  0.2453 -0.2130 -0.2881
27616W        W43690   7.950  11.289   4.738  0.1649 -0.2821 -0.0826
27617W        W43691  15.841  12.582   4.119 -0.0977  0.2075 -0.5948
27618W        W43692  18.192  17.427  14.765 -0.0112  0.1208  0.2125
27619W        W43693  11.692   1.772  13.655  0.2113 -0.2507  0.0225
27620W        W43694   3.806   1.745  12.612 -0.3479 -0.1076  0.2215
27621W        W43695  15.536  16.943   1.707 -0.2142 -0.0829 -0.1275
27622W        W43696  10.253  12.837   1.832 -0.0194 -0.3481 -0.0275
27623W        W43697   1.020   4.188   0.118  0.1717 -0.0566 -0.1182
27624W        W43698   8.150   3.614  14.662  0.0040 -0.2845  0.4391
27625W        W43699  18.100  10.146   3.327 -0.0948  0.1916 -0.0618
27626W        W43700   6.343  17.652   3.382  0.0195  0.2908  0.2281
27627W        W43701  16.684  13.777   1.992 -0.1939 -0.5434  0.3558
27628W        W43702   3.462  10.834  15.927  0.2582  0.1257  0.0678
27629W        W43703   8.602   0.715  12.635 -0.2202 -0.0364 -0.1256
27630W        W43704   2.342  10.821   5.022  0.0911 -0.0979 -0.2721
27631W        W43705   7.835   4.926  11.766  0.1317  0.1542 -0.4216
27632W        W43706   1.088   0.115   0.899 -0.2162 -0.1119 -0.0860
27633W        W43707   5.309   8.276  13.474  0.0805  0.3120  0.0052
27634W        W43708   2.860   1.186   5.110  0.1337  0.1771  0.1475
27635W        W43709  14.213   7.015  12.862 -0.1068 -0.0548 -0.2249
27636W        W43710  10.408  10.130   3.027  0.0772  0.2957  0.3688
27637W        W43711   9.467   9.192  14.317  0.1963 -0.0006 -0.0416
27638W        W43712   1.563   0.854   0.149  0.0027  0.0578  0.0767
27639W        W43713   5.652  17.828   0.522 -0.1365  0.2346 -0.0030
27640W        W43714   2.004  16.594  14.904 -0.0853 -0.5111  0.2750
27641W        W43715  10.021   7.571   4.270 -0.3047  0.0365  0.3118
27642W        W43716   1.355   8.721   2.935  0.3376 -0.0773 -0.4315
27643W        W43717   5.038  17.290   1.942 -0.2203  0.2226  0.1535
27644W        W43718  13.743  15.059   0.888  0.1641 -0.2160 -0.2424
27645W        W43719   8.943  12.306   1.314  0.0923  0.0825 -0.1232
27646W        W43720   3.802  12.389   3.860 -0.2163  0.0088 -0.1868
27647W        W43721   2.097  17.896   0.194 -0.0716  0.1971 -0.0331
27648W        W43722   3.241   3.503   2.972  0.0273  0.2789  0.1117
27649W        W43723   5.301   3.128  11.685 -0.0876  0.1517 -0.4403
27650W        W43724  11.278   6.017  14.480  0.1540 -0.0557 -0.0054
27651W        W43725  15.831  18.139   3.200  0.0650  0.0534  0.0195
27652W        W43726  12.299  10.183  15.035  0.0734 -0.4638  0.2348
27653W        W43727   8.700   0.775   4.268  0.1630  0.0536  0.0988
27654W        W43728   7.379  15.986   2.592 -0.0348  0.3144 -0.0017
27655W        W43729   7.092   0.962  13.331 -0.1141  0.1301 -0.0220
27656W        W43730  15.087  15.086  16.195 -0.2269 -0.0739 -0.1543
27657W        W43731   4.554  14.307   5.416 -0.1420  0.3254 -0.2797
27658W        W43732   5.373   8.164  16.130 -0.3287 -0.1718 -0.1172
27659W        W43733  12.387   3.141   2.443  0.0148 -0.0013  0.3802
27660W        W43734  16.022   6.302  11.869  0.2263 -0.2254  0.1192
27661W        W43735  16.147  11.319   3.695 -0.1172 -0.0005 -0.4290
27662W        W43736   7.395   8.679  16.269 -0.3546 -0.1286 -0.0577
27663W        W43737  17.474  11.903  13.595 -0.1829  0.0027  0.2219
27664W        W43738  15.428  16.534  14.284  0.0211 -0.0873  0.0045
27665W        W43739  15.578  14.519   4.109 -0.0785 -0.0579  0.0156
27666W        W43740  14.836  17.654  15.034  0.1984  0.1866  0.0603
27667W        W43741  12.165   2.888   0.457 -0.2776 -0.1756  0.3471
27668W        W43742   2.752   2.700   3.689 -0.3020  0.1360 -0.0010
27669W        W43743   5.261   4.756  16.012 -0.0226  0.1668  0.1584
27670W        W43744   5.836  11.713  11.683 -0.2907 -0.2326 -0.1391
27671W        W43745   7.180   2.634   3.752  0.1606  0.1251 -0.0396
27672W        W43746  16.139  15.964   3.185  0.1861  0.1247 -0.1006
27673W        W43747   8.514  15.451   2.058 -0.0552  0.0744 -0.2396
27674W        W43748   7.781   3.099  11.121 -0.2248  0.0536  0.1190
27675W        W43749  13.675   1.026  12.843 -0.1137  0.0818 -0.1095
27676W        W43750  13.437   2.364   0.746  0.1499 -0.0506  0.0708
27677W        W43751  14.729   9.183  13.100  0.2680  0.1649  0.1231
27678W        W43752   9.100   8.778  14.349  0.0318  0.2409  0.1457
27679W        W43753   2.417   9.362   5.116 -0.0515 -0.2399 -0.1066
27680W        W43754  15.487  11.877   3.932  0.1818 -0.0432 -0.1385
27681W        W43755  14.915   2.172   2.796 -0.1925 -0.0698 -0.0689
27682W        W43756  17.022  13.530   0.437  0.2108 -0.0470  0.1820
27683W        W43757   1.335  14.027  13.704 -0.0959  0.1392 -0.3734
27684W        W43758   1.737  17.591  12.707  0.2127  0.2171  0.2091
27685W        W43759   0.544  15.238   4.369 -0.0802 -0.3035 -0.2729
27686W        W43760   0.189   9.625   1.008 -0.1790  0.0473  0.2298
27687W        W43761   5.895  11.854   0.524  0.0703 -0.1572  0.2345
27688W        W43762   6.493  14.939   1.863 -0.2281 -0.2300  0.1470
27689W        W43763   9.576  12.088  13.655 -0.2870  0.1474  0.4045
27690W        W43764  14.939   5.958   3.160  0.0705 -0.2565 -0.0766
27691W        W43765  15.295   3.362  11.334 -0.0316  0.0067  0.1195
27692W        W43766   3.132  14.063  15.326 -0.1727 -0.0041 -0.1526
27693W        W43767  11.230   6.555   4.556 -0.1497  0.0049  0.0086
27694W        W43768   7.326  12.935   4.078 -0.1471 -0.2944 -0.0532
27695W        W43769  10.257   3.305  14.754  0.0139  0.0658  0.2095
27696W        W43770  11.473  17.950  13.902  0.1638  0.3397  0.1123
27697W        W43771  10.125   4.154  11.924 -0.1164 -0.2014  0.2052
27698W        W43772  16.057  17.634   3.987  0.3547  0.1491 -0.0810
27699W        W43773   3.027   4.123  13.448  0.1200 -0.4719  0.4458
27700W        W43774   8.210  12.833  16.409  0.1933 -0.0473 -0.1582
27701W        W43775   2.288   6.761   0.720  0.0389  0.0155 -0.0768
27702W        W43776  10.144  10.194  15.127 -0.2030 -0.1756  0.0776
27703W        W43777   6.531   1.494   5.367 -0.0922 -0.3452 -0.0059
27704W        W43778  14.148   0.406  12.776  0.2192 -0.1624 -0.1413
27705W        W43779   8.831   8.826   4.373 -0.1107  0.3900 -0.2677
27706W        W43780   3.759   9.837   1.123  0.3349 -0.1377 -0.0313
27707W        W43781   4.696  11.632   5.492  0.0631 -0.1018  0.0789
27708W        W43782   3.169  14.288   5.711 -0.1778  0.0675 -0.0412
27709W        W43783   9.238   9.500   3.162  0.1744 -0.2224 -0.1627
27710W        W43784  10.741   3.268   3.036  0.2064 -0.1934 -0.1361
27711W        W43785  15.986   4.415   4.994 -0.1268  0.0911 -0.1129
27712W        W43786  16.168   3.486   0.824 -0.0830 -0.0966  0.1745
27713W        W43787  11.615  13.669  14.002 -0.0614  0.0631  0.0580
27714W        W43788   2.880   9.748  12.677  0.1264 -0.1211  0.0931
27715W        W43789   0.237   3.418   5.459  0.1067  0.0243  0.1696
27716W        W43790  17.140   6.547   2.634  0.3048 -0.1748 -0.0401
27717W        W43791   8.459   3.250  14.756  0.2435 -0.1043 -0.0257
27718W        W43792   6.495  11.838   1.422 -0.3352  0.0595  0.2294
27719W        W43793  15.174   7.051   1.404  0.0971 -0.0664 -0.0546
27720W        W43794   9.123  16.619   0.223 -0.0505 -0.3316 -0.0720
27721W        W43795  14.435   6.823  15.904 -0.2165 -0.2465 -0.2151
27722W        W43796   4.239   2.208  14.782 -0.1688  0.0094  0.0513
27723W        W43797  15.742   2.480  12.673  0.2096  0.2449 -0.0962
27724W        W43798  18.000   0.113   0.369  0.2557  0.1009 -0.1370
27725W        W43799   1.939   9.215   0.487  0.3845  0.4108  0.0379
27726W        W43800  14.313  17.596  16.340  0.1165 -0.0183  0.3057
27727W        W43801  10.427  13.540   1.338  0.1799 -0.2975  0.1015
27728W        W43802  12.585   8.978   2.141 -0.1225 -0.0309 -0.2375
27729W        W43803   5.643  17.737  14.440  0.0288 -0.1623 -0.0856
27730W        W43804   0.712   0.270   3.478 -0.3043  0.0361  0.0444
27731W        W43805   6.080   7.711   2.734 -0.1387 -0.1108  0.4945
27732W        W43806   6.185   6.730  11.847 -0.1095 -0.0297  0.2018
27733W        W43807   7.351  16.023   3.278  0.2425 -0.4633  0.2370
27734W        W43808  14.662   3.862   4.228  0.0777  0.0092 -0.1929
27735W        W43809  16.727  11.847  12.466  0.3309  0.2191  0.1039
27736W        W43810  11.967   4.148   6.491 -0.0665  0.2556  0.1026
27737W        W43811  12.842   5.791   0.695  0.0368 -0.2418  0.0023
27738W        W43812  16.600  11.651  13.502 -0.0473  0.0398  0.3925
27739W        W43813   2.264  14.225   3.379 -0.1783  0.0659 -0.3416
27740W        W43814   9.253  12.701  12.858 -0.1136 -0.1182 -0.0169
27741W        W43815   3.666  18.207  12.764 -0.1374 -0.3707  0.2281
27742W        W43816   4.896  15.245  12.069 -0.2541  0.3249 -0.2742
27743W        W43817  11.798  17.283  13.048  0.2329 -0.0950  0.0302
27744W        W43818  16.370   3.768  16.399  0.0324 -0.1248 -0.0563
27745W        W43819   0.488   3.268   3.916 -0.2549 -0.0677 -0.1021
27746W        W43820  15.925   0.226   0.598  0.1702  0.0125  0.1528
27747W        W43821   1.133  12.604   0.672  0.2042 -0.1144 -0.0580
27748W        W43822  17.999   3.620   2.228 -0.0271  0.3315 -0.1425
27749W        W43823  11.522  12.188   3.088  0.0595  0.2595 -0.0407
27750W        W43824  12.725  15.774   4.248 -0.4812  0.2742 -0.0168
27751W        W43825   6.578   4.990   0.389 -0.1337  0.0935  0.0615
27752W        W43826  15.945  13.018  11.826 -0.1542  0.1016  0.1489
27753W        W43827  11.052   7.215  12.445  0.1291 -0.2234  0.2328
27754W        W43828   5.557  17.997   2.333 -0.0149 -0.0448 -0.1274
27755W        W43829   2.620  10.710   2.615  0.0971  0.1110  0.1146
27756W        W43830  10.063   8.017   3.383 -0.4453 -0.2209 -0.1912
27757W        W43831   1.025  12.100  15.993  0.1264  0.2486 -0.0709
27758W        W43832  16.019  10.034   6.198 -0.1588  0.2133 -0.0886
27759W        W43833   3.553  13.381   4.614 -0.2569 -0.1585 -0.1049
27760W        W43834   1.904  12.826  12.279 -0.2079 -0.1268  0.0897
27761W        W43835   7.017  15.391   2.110 -0.4171 -0.0974 -0.1530
27762W        W43836  14.931   7.510  14.666 -0.1822 -0.2039  0.2693
27763W        W43837  14.591  14.873   4.106  0.1926  0.0680 -0.1496
27764W        W43838   5.005  14.657  16.037  0.0151  0.3569 -0.2666
27765W        W43839  10.041   2.309  15.603  0.1489  0.1954  0.4500
27766W        W43840  12.843   5.035  14.161  0.0616 -0.1047  0.1533
27767W        W43841  16.680  16.702  11.217 -0.0603  0.0546 -0.1372
27768W        W43842   8.908  18.095   4.552  0.2631 -0.0788  0.0136
27769W        W43843  17.259   4.330  15.333  0.0704 -0.4454  0.0280
27770W        W43844   3.831   5.458   4.859  0.1777 -0.1076  0.2306
27771W        W43845  17.559  15.514   2.538  0.0046 -0.4302 -0.1444
27772W        W43846   1.237   5.723   2.503  0.1021  0.0232 -0.0451
27773W        W43847  17.434  14.852  16.145 -0.1666  0.1590 -0.1659
27774W        W43848   7.822   2.242  13.110 -0.1643 -0.3961  0.1107
27775W        W43849  14.853   3.644  16.530  0.1847 -0.4245 -0.1920
27776W        W43850  12.080   1.925  12.677 -0.1918  0.2596 -0.2365
27777W        W43851  14.416  15.946  11.702 -0.1842 -0.2019  0.3020
27778W        W43852  15.565  15.908   5.247  0.4233 -0.1522 -0.1999
27779W        W43853  10.426   4.280   5.363 -0.1684 -0.0393  0.0939
27780W        W43854   9.134  13.584  13.436  0.4191  0.1438  0.0934
27781W        W43855   0.768  11.757  13.556 -0.0301 -0.1316  0.0971
27782W        W43856  16.050   5.187  11.562  0.2299 -0.0805  0.0229
27783W        W43857   7.552  10.747   2.654 -0.0971 -0.2039 -0.0918
27784W        W43858  14.794   3.065   4.768  0.3337  0.1427  0.0454
27785W        W43859   5.254  13.623   2.332 -0.0417 -0.2697  0.2877
27786W        W43860  16.255  13.743   4.201 -0.0149  0.0089 -0.1320
27787W        W43861  14.261  15.360   2.118  0.1646  0.2736 -0.3423
27788W        W43862   2.171   4.834   0.557 -0.4801 -0.0455 -0.0433
27789W        W43863   6.714  14.141  13.260 -0.1412  0.0549  0.1032
27790W        W43864   4.289   5.662   0.918 -0.1638 -0.0901  0.1006
27791W        W43865  14.795  12.495  15.520  0.1239  0.0300  0.1733
27792W        W43866  14.055  16.007  13.543  0.0757  0.0463 -0.0510
27793W        W43867  14.565  17.403  10.585 -0.0467 -0.2052  0.1726
27794W        W43868  10.205   3.994   4.050  0.0141  0.1604 -0.2204
27795W        W43869   3.937   5.888  13.600  0.3516 -0.1246 -0.0821
27796W        W43870   9.711   5.447  15.647 -0.1044  0.1121 -0.1205
27797W        W43871   9.065   9.492   4.026  0.0389  0.1847 -0.0495
27798W        W43872  13.632  14.104   1.270 -0.1180  0.0200  0.2522
27799W        W43873  17.713  13.052   1.109 -0.0292  0.4004  0.0837
27800W        W43874  15.887   4.891   3.434  0.2494 -0.0827  0.3003
27801W        W43875  10.868  10.006   3.379  0.2371  0.0229  0.1263
27802W        W43876  12.933   5.549   5.148 -0.2277 -0.0871  0.0348
27803W        W43877  18.179  11.490   0.657 -0.0822  0.0793  0.0009
27804W        W43878  10.021   3.405   2.304 -0.1478 -0.0370  0.1068
27805W        W43879  11.169   4.522   3.322  0.2896 -0.0676 -0.1690
27806W        W43880  11.236  10.018   1.810  0.0234 -0.0016 -0.1268
27807W        W43881   5.264   3.607   3.346  0.2907 -0.2531  0.0594
27808W        W43882   0.658  16.469   3.362 -0.0572 -0.0628 -0.0425
27809W        W43883  15.362   0.700  12.155  0.3027  0.0136 -0.0334
27810W        W43884   0.832  14.359  12.861  0.1956 -0.1945 -0.3348
27811W        W43885  16.131  16.042  13.995  0.0080 -0.1657 -0.1334
27812W        W43886  11.535  13.221   2.445  0.0963 -0.0292  0.0593
27813W        W43887  14.768   0.343  14.721  0.2357 -0.2831  0.1707
27814W        W43888  13.127   3.587   6.225  0.2826 -0.0778  0.1139
27815W        W43889   8.666   8.536  14.318  0.3219 -0.1084 -0.0024
27816W        W43890   0.992   4.919   3.764  0.1239 -0.0131  0.2329
27817W        W43891  17.005  10.575  11.758  0.1338 -0.0907  0.0669
27818W        W43892  12.371  16.893  14.356 -0.3143  0.0132  0.1639
27819W        W43893  14.751   4.491   1.831  0.1286  0.0286 -0.0702
27820W        W43894   2.536   5.923  13.534 -0.2712 -0.0567  0.0185
27821W        W43895   2.318   3.117  15.362 -0.3551 -0.2194  0.3405
27822W        W43896  12.742   8.493  12.097 -0.3184 -0.2887  0.1131
27823W        W43897   1.877   7.592   4.307 -0.1504  0.0377  0.1549
27824W        W43898   8.470   7.373   4.233 -0.1886 -0.2292 -0.1700
27825W        W43899  13.614   9.418  12.782 -0.0735  0.0250  0.2032
27826W        W43900  15.316   9.561   5.363 -0.3293  0.2619 -0.1568
27827W        W43901  14.785   4.956   2.032  0.0826 -0.1140 -0.2020
27828W        W43902   5.228  17.148   2.680  0.0817  0.1350  0.1978
27829W        W43903   9.586  14.368  13.783 -0.2458 -0.0250 -0.2808
27830W        W43904   9.068  16.297   6.256  0.0822 -0.0528  0.0854
27831W        W43905  10.255  12.602   6.085  0.4551  0.0816 -0.1977
27832W        W43906   7.907   0.389   0.969  0.0141  0.0901  0.1196
27833W        W43907  10.912  12.195   4.269 -0.0638  0.2096  0.2239
27834W        W43908   3.684  12.037  13.638 -0.1882  0.3424 -0.2871
27835W        W43909  13.515  17.261   5.421  0.0525  0.0010 -0.0265
27836W        W43910   9.948   8.485   3.259  0.1452  0.4276  0.2259
27837W        W43911  10.723   2.930   1.079 -0.1573 -0.1848  0.4013
27838W        W43912  10.056   3.173   4.970 -0.0705  0.1218 -0.1703
27839W        W43913   5.262  12.470   0.425 -0.0242 -0.0150  0.0305
27840W        W43914  13.033   2.330   1.665 -0.1733  0.1803  0.1114
27841W        W43915   5.822  11.391  15.699  0.0361  0.0437 -0.0026
27842W        W43916  16.540   7.652   0.604 -0.2844  0.0934  0.2401
27843W        W43917   2.392   7.828   5.459 -0.3556 -0.1706 -0.1362
27844W        W43918  15.637  17.850   3.570  0.0685 -0.1139 -0.1027
27845W        W43919   4.867   8.373   1.671  0.2820 -0.2794 -0.5262
27846W        W43920   3.833  10.056   5.327  0.2681  0.2634  0.0193
27847W        W43921   1.494   7.970   2.376  0.3815  0.0499 -0.3691
27848W        W43922   2.672  12.561  13.737 -0.0256 -0.0235 -0.0303
27849W        W43923   9.438   9.738  14.085 -0.2912  0.0552  0.0809
27850W        W43924   9.482  10.107   0.353  0.1894  0.0202  0.2160
27851W        W43925   3.476  10.947   0.359 -0.1399  0.0405  0.2080
27852W        W43926  14.696   1.178   1.352  0.4222  0.4373  0.2328
27853W        W43927   4.888  13.186   1.151 -0.0262 -0.1114 -0.0610
27854W        W43928   7.032   4.563   4.557  0.3189 -0.2164 -0.0470
27855W        W43929   0.721  10.157  16.448 -0.3702  0.1849 -0.2631
27856W        W43930  15.499  13.829  11.533 -0.2476  0.2538  0.1094
27857W        W43931   4.565   4.053  14.546  0.3729  0.1063  0.2423
27858W        W43932  12.713   5.598  12.091  0.0281 -0.1237 -0.0967
27859W        W43933   1.031  15.720  11.660  0.4149  0.1366  0.0030
27860W        W43934   0.140  16.889  10.887  0.1125  0.1103 -0.3237
27861W        W43935   4.776  13.444   4.498 -0.0060  0.1330 -0.1523
27862W        W43936   0.636   6.419   2.158 -0.4198 -0.1485  0.1161
27863W        W43937   6.959   3.388   0.708  0.1726 -0.2522  0.1526
27864W        W43938   5.657  13.002  14.696 -0.2448 -0.0679  0.0919
27865W        W43939  16.674   9.788  12.394  0.1229  0.0697  0.0091
27866W        W43940   9.330  13.812   3.231  0.2565  0.0761  0.0003
27867W        W43941   4.880   8.642  13.039  0.2248  0.0392  0.0228
27868W        W43942   7.471   1.167  12.438 -0.1818  0.0257  0.2896
27869W        W43943  13.161   0.062   1.161 -0.1375  0.2821 -0.1625
27870W        W43944  13.103   1.608   3.487 -0.2171 -0.0430 -0.0317
27871W        W43945   5.264  11.038   0.075  0.0041  0.0240 -0.2539
27872W        W43946   8.021  13.100  12.323  0.0289 -0.0449 -0.1044
27873W        W43947  11.567  15.218   3.943 -0.0986  0.2116  0.1478
27874W        W43948   5.742   4.479  12.981  0.2218 -0.1287 -0.2395
27875W        W43949  16.909   6.323   3.033 -0.1207 -0.0194  0.1179
27876W        W43950   4.823  17.997   4.306 -0.0884  0.4957  0.1662
27877W        W43951  18.126   0.857  13.630  0.2653 -0.1356  0.1152
27878W        W43952   2.208  15.084  13.933  0.1872 -0.1029  0.1026
27879W        W43953   6.058  15.547  14.635 -0.1412 -0.1661 -0.1204
27880W        W43954  11.105   9.907  13.249 -0.1792 -0.1599  0.1964
27881W        W43955  12.653   8.120  16.350 -0.2655  0.0573 -0.2411
27882W        W43956   6.397   8.324   3.861 -0.0290 -0.1398  0.0947
27883W        W43957   1.989  16.950  14.493  0.1073  0.0563 -0.1336
27884W        W43958  12.410   5.084   4.448 -0.2217  0.0769  0.0693
27885W        W43959   4.047  17.042   1.882  0.3728 -0.3889 -0.1435
27886W        W43960  14.529   4.451  14.802 -0.1904 -0.1333  0.2438
27887W        W43961   3.935   7.974  16.550 -0.3081 -0.5634 -0.3959
27888W        W43962   2.924   7.246  13.432 -0.3021  0.1060  0.1097
27889W        W43963  18.122  13.570  14.835  0.2068 -0.0453 -0.1436
27890W        W43964  12.534   2.283   1.426 -0.0295 -0.0265  0.0203
27891W        W43965  11.562  11.595  13.678  0.0603 -0.3364  0.0509
27892W        W43966  15.288   5.588   0.648  0.0962  0.0116 -0.1109
27893W        W43967  10.259   8.611   1.951 -0.1037 -0.4850 -0.1618
27894W        W43968   0.805  13.437  14.129 -0.2203  0.0872  0.0717
27895W        W43969   3.739   7.851  15.647 -0.3208 -0.1130 -0.2624
27896W        W43970   5.591  13.184  12.808 -0.2230 -0.1538 -0.2443
27897W        W43971   1.486  16.780  15.192 -0.0739 -0.0975  0.1961
27898W        W43972   1.349  13.372  11.764  0.1951  0.0675 -0.1519
27899W        W43973  11.373   1.707  14.568  0.0579  0.2293  0.1198
27900W        W43974   1.196   3.132   4.500 -0.3866  0.3751 -0.0784
27901W        W43975   2.157   1.285  12.060 -0.3111  0.0478  0.3481
27902W        W43976  12.979  10.137   3.892  0.0069  0.0543  0.1416
27903W        W43977   1.535   6.659  14.216 -0.1736 -0.1477  0.0476
27904W        W43978   2.743   2.691   2.696 -0.1681  0.0831 -0.0244
27905W        W43979  16.214   5.377   2.948 -0.2381 -0.0970 -0.1377
27906W        W43980  14.046   0.549  15.184 -0.0117  0.0282 -0.1864
27907W        W43981  15.187  10.258  15.890 -0.1649 -0.0673  0.1775
27908W        W43982   1.899   3.614  14.419  0.1154  0.2063  0.1440
27909W        W43983  10.659   3.390  15.172 -0.0894  0.0342 -0.3548
27910W        W43984   8.241   5.491  13.988  0.0594  0.0664  0.5778
27911W        W43985   8.524   8.304  15.102  0.0277  0.0368 -0.0371
27912W        W43986   7.470  17.232   4.042 -0.0919 -0.1306  0.0011
27913W        W43987  15.485  14.661   2.082 -0.0598  0.1031 -0.5232
27914W        W43988   1.335   9.697  14.777 -0.0299  0.2437 -0.3733
27915W        W43989   1.762   8.617  14.956 -0.0435  0.1706 -0.0290
27916W        W43990   5.134   0.507   2.728 -0.1385 -0.1140  0.0560
27917W        W43991   4.073   3.044   2.910  0.0903  0.3848  0.0907
27918W        W43992  12.839   2.426   2.522 -0.0164  0.1630 -0.2514
27919W        W43993  12.398  12.398  13.715  0.2715  0.0200 -0.3747
27920W        W43994  17.756   9.076  12.910  0.1078  0.0969 -0.3286
27921W        W43995  17.285  13.056   1.947  0.2020  0.0563 -0.0076
27922W        W43996  10.745   5.847   5.659 -0.1367 -0.1033  0.0372
27923W        W43997   5.671  15.255  14.890  0.0437  0.2607 -0.0295
27924W        W43998   1.899   1.376  14.974 -0.1995  0.1366 -0.1253
27925W        W43999   6.766  12.296   0.167  0.0464 -0.1507  0.3363
27926W        W44000   6.506  12.810  15.044  0.1605 -0.0467  0.2260
27927W        W44001   2.335   9.512   0.174 -0.1745 -0.1650  0.2339
27928W        W44002   7.200  15.784  10.599 -0.0170 -0.1535 -0.2609
27929W        W44003   5.613   9.220   5.120  0.1859 -0.2288  0.3063
27930W        W44004  16.629  12.680   4.470  0.1229 -0.0331 -0.0375
27931W        W44005  16.514   0.389   5.319 -0.4101 -0.2444 -0.0750
27932W        W44006  15.790   1.462   2.624  0.2066 -0.2771  0.0823
27933W        W44007   2.264   5.366  16.250  0.0901  0.1372 -0.0706
27934W        W44008  17.676   2.143   3.803  0.1037  0.5532  0.1884
27935W        W44009  11.692  12.383   0.557 -0.1474 -0.5441  0.0972
27936W        W44010  17.211   4.631   1.840  0.3286  0.2622 -0.0769
27937W        W44011  13.438   0.514  15.469 -0.0328 -0.0661  0.2191
27938W        W44012   4.945   0.325  16.385 -0.0275  0.1330  0.0934
27939W        W44013  12.700  14.139   3.169 -0.3094 -0.2375  0.1791
27940W        W44014   9.754   8.186  13.417  0.3687  0.0880  0.7083
27941W        W44015   2.551  15.419  13.720  0.0275 -0.0218  0.3962
27942W        W44016  13.186  11.186   1.656  0.2758 -0.0869  0.0803
27943W        W44017   5.037   2.004   4.528  0.0023  0.0430 -0.1401
27944W        W44018   1.520  10.487   3.269 -0.0551 -0.1231 -0.1718
27945W        W44019  14.493   6.843  15.369  0.1364  0.0707 -0.2618
27946W        W44020   2.035  17.594   4.023 -0.1378  0.2079 -0.3054
27947W        W44021   2.433   6.994   1.866 -0.1254 -0.2224 -0.1425
27948W        W44022  13.339  14.295  16.435 -0.0252  0.3313  0.0010
27949W        W44023   3.306  16.973   0.649 -0.2501  0.2560 -0.1369
27950W        W44024   4.348  11.576   0.969  0.1403 -0.0845 -0.1769
27951W        W44025   5.294   4.738   0.544  0.0397 -0.0661 -0.1010
27952W        W44026   0.393   0.393  11.762 -0.0688  0.1626 -0.2908
27953W        W44027  10.183  14.264   4.275  0.0531 -0.1456  0.1034
27954W        W44028  14.085  14.148  12.364 -0.1252  0.0879 -0.0332
27955W        W44029   2.577  16.688  11.134  0.3042 -0.1402  0.1148
27956W        W44030   5.815   0.696   0.258  0.1836 -0.0121 -0.0017
27957W        W44031   2.745   5.478  12.309  0.0377 -0.1877 -0.0319
27958W        W44032   3.651  17.245   1.540 -0.0621 -0.1891  0.3495
27959W        W44033  16.156  10.524  11.412  0.1614  0.1927  0.2450
27960W        W44034   7.246  18.128  14.086 -0.1321 -0.0665  0.2219
27961W        W44035  11.504   7.146  11.762 -0.0616  0.0178  0.1738
27962W        W44036  12.122  12.227   3.378  0.0887  0.1271 -0.0577
27963W        W44037  12.371  10.315   4.602  0.0174  0.2346 -0.2231
27964W        W44038  16.419   0.256  15.966  0.0917 -0.0553  0.1249
27965W        W44039   4.455   4.795  15.221 -0.3241  0.2421  0.3129
27966W        W44040  17.647   8.158   1.267 -0.2091 -0.2276 -0.0201
27967W        W44041   3.207   2.748   0.868  0.0046 -0.0664 -0.1869
27968W        W44042   8.483  10.001  13.565 -0.0991 -0.1769 -0.1091
27969W        W44043  13.970  16.313   0.688  0.1557  0.0277  0.0306
27970W        W44044  12.844  15.779   5.787 -0.1691 -0.1828 -0.2417
27971W        W44045   5.693   6.159  12.733 -0.4308 -0.1367  0.0422
27972W        W44046  13.742   6.303  16.183 -0.0263 -0.0118  0.3581
27973W        W44047  15.522   2.796   2.628 -0.3016  0.1655 -0.2553
27974W        W44048  10.065   3.820   5.514  0.0310 -0.0625 -0.0784
27975W        W44049   3.154  15.729   2.221 -0.2838  0.1076  0.0800
27976W        W44050  10.505  14.598  14.891 -0.0355  0.2252 -0.0451
27977W        W44051  11.016   7.125  11.621  0.2629 -0.0360 -0.2383
27978W        W44052  13.200   0.311  14.843 -0.0853  0.1732 -0.0651
27979W        W44053  12.167   5.176   3.633 -0.1258  0.0233  0.2169
27980W        W44054  17.543   7.406  16.199  0.2890 -0.1051 -0.2546
27981W        W44055  16.634  13.415  13.314 -0.0790  0.1735  0.0006
27982W        W44056   0.113  18.073   0.656  0.0935 -0.1885 -0.1206
27983W        W44057   9.645  15.506   3.648  0.0860 -0.1182 -0.0081
27984W        W44058   8.406  14.984   3.798  0.2281  0.1163  0.0675
27985W        W44059  15.083  13.845   2.444 -0.0161  0.0349 -0.0252
27986W        W44060  15.129   2.946  13.892  0.2902 -0.2431 -0.2351
27987W        W44061   4.453  15.897  13.938 -0.1904  0.1977  0.0336
27988W        W44062   5.676   5.393   0.229 -0.1422  0.0781  0.0366
27989W        W44063   8.050  17.704  16.006  0.0898 -0.1637 -0.3482
27990W        W44064  17.220  18.089   4.142  0.3728  0.0752 -0.0893
27991W        W44065  13.661   6.458   0.206  0.2120  0.1442  0.0491
27992W        W44066   8.869  13.890  15.520 -0.1265  0.1154 -0.0366
27993W        W44067   1.788   4.227   4.272 -0.1860 -0.0621 -0.1609
27994W        W44068  14.186   8.666  14.756 -0.0029 -0.2452 -0.4976
27995W        W44069   7.693   9.388  15.516 -0.2986 -0.2982  0.2125
27996W        W44070   5.529   1.682  11.774  0.0317 -0.0167 -0.2709
27997W        W44071   3.658  13.114   2.399 -0.0255 -0.2599  0.1910
27998W        W44072   3.694   6.820  13.122 -0.2259  0.1864 -0.1538
27999W        W44073  10.013   9.489  13.991  0.1194  0.0797  0.1181
28000W        W44074   1.167  16.010  12.095 -0.0834  0.1299 -0.2245
28001W        W44075   7.086   5.601  15.462  0.3497  0.0047  0.5483
28002W        W44076  15.960   5.513  16.247 -0.0777  0.1039 -0.0802
28003W        W44077   6.065   9.411  11.780 -0.0562  0.2100  0.1716
28004W        W44078   7.700   3.472  11.900 -0.2345 -0.2107  0.2953
28005W        W44079  17.755   3.583   1.626 -0.0200 -0.1313 -0.0939
28006W        W44080   6.025   9.252   3.317 -0.1762 -0.0544 -0.1488
28007W        W44081   2.393   0.884   5.055  0.3421  0.1254 -0.0726
28008W        W44082   8.688   7.019  15.048 -0.0450 -0.2390 -0.2535
28009W        W44083   7.528  10.234  15.969 -0.0007  0.0579  0.0774
28010W        W44084  14.049   9.640  12.589 -0.0860 -0.0670 -0.0026
28011W        W44085  14.568  17.737   0.767 -0.1230  0.1415 -0.2283
28012W        W44086   2.479   0.259  11.425 -0.0401  0.4804  0.2974
28013W        W44087  13.581  10.528  11.854  0.0519 -0.2506  0.0385
28014W        W44088   3.394   8.812  13.831  0.1187  0.1060 -0.2593
28015W        W44089   0.151  14.296   5.596  0.0059  0.0719 -0.1213
28016W        W44090  12.841   7.671   5.110 -0.3708  0.0881 -0.0457
28017W        W44091  13.393   2.018   3.276  0.1388 -0.0460  0.0095
28018W        W44092  17.659   8.852  12.439  0.2630 -0.1936  0.1318
28019W        W44093  15.876   6.672  12.518  0.2295 -0.0113  0.0545
28020W        W44094  15.395   2.669  14.243  0.1000 -0.5093 -0.1685
28021W        W44095  12.861  15.124   1.441  0.3255  0.1755  0.1108
28022W        W44096  14.858   0.000  10.957 -0.0735  0.2099  0.1424
28023W        W44097  17.933   2.724  11.231 -0.0158  0.0277  0.0348
28024W        W44098  17.094   9.778   3.351  0.0999  0.0938 -0.0943
28025W        W44099  15.900  12.700   2.817  0.0180 -0.0486 -0.0266
28026W        W44100   9.194  11.938  16.508  0.2877 -0.3772 -0.0691
28027W        W44101  11.931  13.357  12.636 -0.0115 -0.0765 -0.0284
28028W        W44102  14.435   5.896   0.130  0.1239 -0.2081  0.1231
28029W        W44103   4.074   8.056  13.612 -0.1427 -0.0257  0.0586
28030W        W44104  15.590   4.930  15.496  0.1545 -0.1689 -0.0043
28031W        W44105  18.030  15.861  13.914 -0.0765  0.1460  0.2570
28032W        W44106  13.883  15.436   2.551 -0.3041 -0.0305 -0.1177
28033W        W44107   1.449   3.104   1.864 -0.0826 -0.0181  0.0990
28034W        W44108  16.725   7.621  15.403  0.1512 -0.2857 -0.0043
28035W        W44109  17.540  11.649   0.043 -0.2613  0.0098  0.0431
28036W        W44110  17.909  17.148   2.192  0.2217 -0.2153 -0.1098
28037W        W44111   3.958  12.540  14.850 -0.0990 -0.1079  0.2596
28038W        W44112   1.415  15.640  16.430  0.0440 -0.1033  0.3006
28039W        W44113   7.403   7.004  14.534  0.1067 -0.1111  0.1535
28040W        W44114   0.212  12.549   2.177  0.0721 -0.1546  0.1221
28041W        W44115  12.612  13.780   4.648  0.1107 -0.1734 -0.1040
28042W        W44116  17.689  12.308   0.786 -0.1627  0.1159 -0.2292
28043W        W44117  10.508   3.750  16.314 -0.1496 -0.4282  0.1880
28044W        W44118  14.992  13.711  13.198 -0.1559 -0.1316  0.1835
28045W        W44119   0.702  12.390  12.788 -0.2105 -0.0956 -0.2607
28046W        W44120   2.442  11.921   2.121  0.1140  0.2382 -0.1017
28047W        W44121   2.910  17.001   1.036 -0.0503 -0.2195  0.5268
28048W        W44122   9.584   8.033   0.996  0.4131 -0.1019  0.0780
28049W        W44123   9.013   5.943   4.783 -0.0249 -0.0065  0.1579
28050W        W44124   4.609   6.406   5.549  0.1878 -0.2385 -0.1828
28051W        W44125   8.370   4.866  13.556 -0.1936  0.2034  0.2365
28052W        W44126  11.298   1.899  15.451  0.2620 -0.1950  0.1221
28053W        W44127  13.492   4.470  11.998 -0.3130  0.0376 -0.1479
28054W        W44128   3.909   7.709  11.111  0.3256  0.1010 -0.2559
28055W        W44129  17.178   9.973   4.315  0.0062 -0.2825  0.0904
28056W        W44130   0.476   4.031  16.429 -0.1392  0.3923 -0.0402
28057W        W44131   0.159   4.369   5.341  0.0154  0.4627  0.1375
28058W        W44132   9.893   1.122   5.253  0.1427 -0.2744 -0.0618
28059W        W44133  17.787  12.033  13.154  0.2273  0.0575 -0.0358
28060W        W44134  11.444  17.077  14.453  0.0439  0.1390 -0.0839
28061W        W44135   3.313  10.628  14.107  0.4940  0.1820 -0.2118
28062W        W44136   5.889   3.733  12.467  0.2500 -0.0201 -0.0012
28063W        W44137  13.136  12.718   2.293  0.1779  0.1177 -0.0362
28064W        W44138  12.622  10.262   5.085 -0.2057  0.0760  0.2118
28065W        W44139   9.756   4.527   1.245  0.3907 -0.2087 -0.0166
28066W        W44140  16.408  10.254  16.139  0.2691  0.0647  0.1621
28067W        W44141   5.987  14.495   5.134  0.1058  0.2720  0.2559
28068W        W44142   7.251   7.495   3.444  0.1294  0.0498  0.2753
28069W        W44143   9.254  14.198  14.631  0.2842  0.0028 -0.1578
28070W        W44144   1.393   5.831   5.419 -0.0949 -0.1445 -0.3259
28071W        W44145   0.744  14.302   1.555 -0.1969 -0.0484 -0.0098
28072W        W44146  13.443  16.587   3.270 -0.1611  0.0428  0.1681
28073W        W44147   0.771   5.702   2.183  0.0562 -0.3089 -0.0174
28074W        W44148   7.778  14.988   2.451 -0.1982  0.0734 -0.1736
28075W        W44149  13.977  12.168   0.813 -0.1875  0.2337 -0.0578
28076W        W44150   5.416   8.537   2.200 -0.0242 -0.1186 -0.1295
28077W        W44151   0.272   6.151   3.533 -0.0167 -0.3447  0.1352
28078W        W44152  13.680   1.807  16.112  0.1543  0.1201 -0.0409
28079W        W44153  12.396   1.864  12.143  0.1866 -0.1552  0.1105
28080W        W44154   8.158   1.178   4.981  0.0644  0.3188 -0.5622
28081W        W44155  13.557   8.709  16.520 -0.1336 -0.3481 -0.0274
28082W        W44156   9.993  14.423   4.960 -0.0496 -0.1998  0.1336
28083W        W44157  11.225  12.138   4.655 -0.0355  0.2997  0.2197
28084W        W44158  13.582  17.359   4.928  0.2952  0.0210  0.0997
28085W        W44159   6.203   9.684   1.919  0.2431  0.3600  0.2112
28086W        W44160  17.562   9.946   5.412 -0.0781 -0.0034  0.2555
28087W        W44161  12.335  12.788   5.985  0.0348 -0.1368 -0.0013
28088W        W44162  15.982  14.977  14.668  0.0770  0.2531  0.0010
28089W        W44163  15.734   9.018  14.854 -0.1095 -0.0684 -0.0008
28090W        W44164   8.709  16.514   0.843  0.1237 -0.6848 -0.2401
28091W        W44165   8.889  10.474   0.776 -0.0437  0.0919  0.2194
28092W        W44166  16.735   6.637  11.144 -0.2053 -0.1085 -0.2937
28093W        W44167  12.659   0.931  13.645  0.0467  0.3860  0.1875
28094W        W44168   7.421   3.441   5.293  0.1909  0.1108 -0.1694
28095W        W44169  17.740   8.365  14.835  0.0362  0.0755 -0.1068
28096W        W44170   9.035  17.264   0.556 -0.2078  0.0534  0.0622
28097W        W44171   4.803   9.184   5.101 -0.0461  0.0369 -0.2590
28098W        W44172   2.367  13.165   3.149 -0.2521  0.3165 -0.0695
28099W        W44173  12.908   8.953   2.491 -0.1042 -0.0126 -0.0255
28100W        W44174   4.676   3.027  12.046 -0.1759 -0.0243 -0.1586
28101W        W44175   7.498  15.804  12.386 -0.2600 -0.0691 -0.0423
28102W        W44176   4.192  16.951   1.060 -0.1490 -0.2691  0.0691
28103W        W44177   4.499   5.192  11.818 -0.1180 -0.2012  0.0097
28104W        W44178  12.316   2.953   4.690 -0.0652  0.1062 -0.0413
28105W        W44179  15.839   0.457  16.327 -0.2435  0.0548 -0.3466
28106W        W44180   5.018  11.759   4.458 -0.0936  0.1980  0.0534
28107W        W44181   9.881  15.873   1.882  0.0861 -0.5012  0.0083
28108W        W44182   2.117  17.400  14.833 -0.2238 -0.1461 -0.0033
28109W        W44183  13.477   8.016  12.589 -0.0018 -0.1891  0.1869
28110W        W44184  17.213   5.873   4.359 -0.2188  0.2042 -0.2562
28111W        W44185   6.929  17.232   2.971  0.1639 -0.2870  0.3694
28112W        W44186  10.606   5.214   2.868 -0.0590  0.3689 -0.0716
28113W        W44187   1.801   7.347  12.371  0.0086 -0.3379  0.0360
28114W        W44188  13.453   1.160  15.522 -0.0609 -0.0797  0.0137
28115W        W44189   6.155   1.760   4.032  0.0631  0.0877 -0.1125
28116W        W44190  16.521  10.486   0.503 -0.1160  0.0639 -0.2012
28117W        W44191   5.224   7.115   2.582  0.0787  0.2091 -0.0990
28118W        W44192   3.147  14.578   4.141  0.1363 -0.3069 -0.0992
28119W        W44193   1.198   3.224  11.998  0.0691  0.1344 -0.0089
28120W        W44194   3.351  11.454  14.487 -0.1927  0.1059  0.0342
28121W        W44195  15.357  10.739   0.575  0.0247 -0.0796  0.2390
28122W        W44196   2.116   2.574  13.556 -0.1605 -0.2964  0.2256
28123W        W44197  14.521  14.426  11.570 -0.0555  0.0356  0.3422
28124W        W44198   7.668   9.529  14.787 -0.1668 -0.0287  0.0497
28125W        W44199  15.796  10.767  13.926 -0.1353  0.0977  0.1781
28126W        W44200  16.426  10.959  14.548 -0.0559 -0.0208  0.1137
28127W        W44201   1.476  13.857  13.143 -0.3215  0.4760 -0.1809
28128W        W44202   3.988   1.659  15.553 -0.0161 -0.0886 -0.0688
28129W        W44203   9.775   0.587   3.709  0.0329  0.1873  0.0514
28130W        W44204   2.577   5.328  15.742 -0.1852 -0.2031 -0.4486
28131W        W44205  16.946  12.527  15.684  0.1154  0.1730  0.1987
28132W        W44206   5.286  13.856  15.071  0.3216 -0.0024 -0.2848
28133W        W44207   2.714   9.918   2.631  0.1401  0.0732  0.0847
28134W        W44208   2.406   5.468  13.781 -0.0633 -0.1168 -0.1489
28135W        W44209   5.293  17.249  13.510 -0.2433  0.7104 -0.1058
28136W        W44210   3.210   4.498  14.306 -0.0097 -0.2221  0.0362
28137W        W44211   5.765   6.652   1.063  0.0748  0.2417 -0.2316
28138W        W44212   6.286  16.165   0.579 -0.1123  0.2036 -0.2368
28139W        W44213   7.336   0.933  16.177  0.1070  0.0220 -0.1840
28140W        W44214   0.992  17.829   1.019 -0.0769 -0.1639  0.0513
28141W        W44215   2.564  15.693  11.668 -0.0800  0.2775 -0.0970
28142W        W44216  11.128   6.239   4.889 -0.0704 -0.1735 -0.0734
28143W        W44217  15.142   2.185   1.168 -0.2017 -0.1257  0.1857
28144W        W44218  13.234  11.029   5.430  0.0145  0.0432  0.1429
28145W        W44219  11.124   3.296   1.424 -0.0969 -0.0982  0.1650
28146W        W44220   8.987   3.000   1.755  0.0301  0.1301 -0.0394
28147W        W44221  17.334  11.056  15.670 -0.3793 -0.0733 -0.2508
28148W        W44222  10.836   9.842  14.741  0.1714  0.0018  0.3502
28149W        W44223  16.421   2.524  12.742 -0.1499 -0.1042  0.2140
28150W        W44224   5.333   7.343  16.004 -0.5691  0.3314  0.4441
28151W        W44225   6.129   3.463  14.718  0.5559 -0.2982  0.0704
28152W        W44226  11.732  12.773  14.592 -0.0694 -0.1123 -0.0207
28153W        W44227   1.100  12.367   3.261  0.0090 -0.0438  0.2171
28154W        W44228  14.156  12.431  12.288  0.0354 -0.3384 -0.1560
28155W        W44229  15.337  10.150   1.465  0.1338 -0.0525 -0.1196
28156W        W44230   7.260   8.453   4.051  0.0659  0.0325  0.0542
28157W        W44231   4.800   2.956   4.425  0.1421 -0.1187  0.0076
28158W        W44232  17.988   7.320  16.370  0.0578  0.0492  0.0633
28159W        W44233   9.513   2.513   4.727  0.1894  0.0757  0.2128
28160W        W44234   5.399   0.546   0.514  0.0694 -0.0317 -0.1087
28161W        W44235  13.267  13.502  13.105 -0.0433 -0.0718 -0.0790
28162W        W44236  14.204   5.957  16.076  0.0879 -0.1105  0.0005
28163W        W44237  17.741   7.059   1.349 -0.1229  0.0301 -0.0313
28164W        W44238   2.039  10.214   4.046 -0.2071  0.0135 -0.2691
28165W        W44239   4.252  11.832  13.678 -0.0837  0.2501 -0.2115
28166W        W44240  17.946  15.406   3.503 -0.0725  0.0624 -0.0434
28167W        W44241  12.781   2.365   5.128  0.0591 -0.0107 -0.0980
28168W        W44242   7.110   7.287  12.691 -0.4566 -0.3646  0.2531
28169W        W44243   2.270   3.343  11.577  0.2135 -0.4747 -0.2622
28170W        W44244  17.191  15.635   1.783 -0.0499 -0.4132 -0.1037
28171W        W44245   2.322  16.037  16.099  0.0202 -0.0001  0.0103
28172W        W44246  18.184   9.747  14.693  0.4152 -0.1993  0.2059
28173W        W44247   8.053  16.349  16.482  0.2104  0.0174  0.0267
28174W        W44248  16.696   5.048  12.034  0.1413 -0.0834 -0.1713
28175W        W44249   7.582   1.039  10.420  0.2945  0.0903  0.3518
28176W        W44250  11.839  14.061  13.829  0.2348 -0.3215  0.0174
28177W        W44251  11.364  17.125  11.469  0.0469  0.1511  0.1747
28178W        W44252  16.531  13.682   0.140  0.0746  0.1601 -0.1766
28179W        W44253  12.455  14.421  14.291  0.2117 -0.0858 -0.0418
28180W        W44254   6.462  15.636  16.516  0.0289  0.0610 -0.0754
28181W        W44255  10.166  14.992  15.009  0.0691 -0.3643 -0.3424
28182W        W44256  15.566   4.279   5.704  0.1214 -0.2930  0.0065
28183W        W44257   6.868  11.584   3.669 -0.1178 -0.0151 -0.0659
28184W        W44258   3.148   8.215  11.327  0.0556  0.0360  0.2263
28185W        W44259   1.752   3.803   3.714 -0.3240  0.0772  0.2517
28186W        W44260  13.788  12.527   0.421  0.2056  0.1327 -0.0429
28187W        W44261   3.826  15.662  15.783  0.1034  0.1307  0.0067
28188W        W44262  14.608   2.175   5.387 -0.3544  0.0066  0.2586
28189W        W44263   2.901  11.556   2.152  0.1721  0.0049  0.0068
28190W        W44264  10.652  12.071   5.802 -0.0935 -0.1018  0.4450
28191W        W44265  10.968   7.875  15.568  0.0321  0.1354 -0.3697
28192W        W44266  11.484  14.672  15.718  0.0124  0.0886  0.2321
28193W        W44267  17.383  16.347  10.902  0.0166 -0.1740 -0.0918
28194W        W44268   6.513   1.608  16.389 -0.1007 -0.1173 -0.1883
28195W        W44269  15.793   5.645   6.091  0.2476  0.3060  0.1859
28196W        W44270   1.143  10.661   0.725 -0.2788 -0.1471  0.0646
28197W        W44271  17.325   4.973  14.465 -0.1581  0.1017 -0.1590
28198W        W44272   5.627  17.373  15.702 -0.1830  0.1933  0.0749
28199W        W44273  11.209   4.212  15.676  0.3661 -0.1972  0.2805
28200W        W44274  17.849   1.174  15.016 -0.2824  0.3742  0.2693
28201W        W44275  13.612  14.909   0.240 -0.0381 -0.0388  0.2286
28202W        W44276   7.946  13.402   3.710  0.0309 -0.1119 -0.1090
28203W        W44277   2.583   9.144   1.137  0.1569 -0.0651 -0.1753
28204W        W44278   2.528  15.337   2.605  0.1500  0.0201 -0.2720
28205W        W44279  11.203  17.722  16.472 -0.0570  0.0997 -0.2647
28206W        W44280  10.782  15.836  11.681  0.5565  0.2776 -0.1238
28207W        W44281   9.767  12.811  14.757  0.1072 -0.0292  0.1532
28208W        W44282   1.499   4.895   0.003 -0.1732 -0.1869 -0.3533
28209W        W44283  13.249  13.659  14.189 -0.2217  0.0730 -0.2257
28210W        W44284  18.195  15.616  12.943 -0.2821 -0.2084 -0.1465
28211W        W44285   1.475  13.432   0.683  0.5407 -0.2197 -0.1300
28212W        W44286  14.256  17.333   1.653  0.1110 -0.2411 -0.4086
28213W        W44287  12.342  16.704  16.444  0.0292 -0.1317  0.1977
28214W        W44288   3.009  11.054   3.550 -0.1089 -0.4455 -0.0137
28215W        W44289  11.932  15.131   1.865  0.1606  0.3945 -0.2492
28216W        W44290   2.475  12.503   2.614 -0.1036  0.0388  0.1462
28217W        W44291  10.172  17.090   1.455  0.3932 -0.1053 -0.0623
28218W        W44292   6.888  15.043   4.075  0.1283  0.1470 -0.0011
28219W        W44293   9.434  14.772  13.529 -0.0918  0.2201 -0.2627
28220W        W44294   2.437  14.875   0.781 -0.3852 -0.0572  0.2259
28221W        W44295   6.871  12.077  14.529  0.1314 -0.1394  0.1511
28222W        W44296   5.286   0.039   0.703  0.2037  0.1491 -0.2812
28223W        W44297   8.558  16.996   3.168 -0.2203 -0.1188 -0.0130
28224W        W44298   7.943  16.827  13.964  0.0703 -0.0969 -0.1495
28225W        W44299   5.637   4.752  14.885 -0.0600 -0.0944 -0.1323
28226W        W44300   5.774   2.660   4.910  0.0181  0.3792  0.1734
28227W        W44301   2.565   6.465   3.590  0.0842 -0.0664  0.1202
28228W        W44302  15.106   4.507  16.492  0.1993  0.0301 -0.1717
28229W        W44303  12.972  13.927  14.565 -0.1577 -0.2299  0.2231
28230W        W44304  15.171  14.575  13.317 -0.1158 -0.2283 -0.1829
28231W        W44305  14.208   0.966   0.804 -0.0048  0.0903  0.0499
28232W        W44306   7.616  16.437   0.157  0.0101  0.0599  0.2195
28233W        W44307  13.870  12.379   3.622  0.1290  0.0414  0.0240
28234W        W44308  11.206  17.378   0.389 -0.3680 -0.2408  0.3867
28235W        W44309  15.998   7.343   4.027  0.0460 -0.1222 -0.6081
28236W        W44310   7.893   8.861  16.304  0.1742 -0.0142  0.4510
28237W        W44311  11.918  15.958  13.653  0.0405  0.0510 -0.0821
28238W        W44312   5.027   2.457   4.658  0.2810 -0.0153 -0.1327
28239W        W44313   9.220   0.990  12.434  0.1285 -0.1171  0.0690
28240W        W44314  11.295  12.387   3.606  0.2460 -0.1046 -0.1637
28241W        W44315  12.650   7.988  15.025  0.3521  0.3105 -0.1718
28242W        W44316  10.972  11.838  11.956  0.1335  0.1951 -0.0314
28243W        W44317   5.502  16.489   5.077 -0.2724  0.1535 -0.2789
28244W        W44318   7.597   6.370   5.706  0.1875 -0.0912 -0.0017
28245W        W44319   1.774   8.584  12.651 -0.0776  0.0864  0.2354
28246W        W44320  17.928   3.580   3.671 -0.1684 -0.2637 -0.2387
28247W        W44321   7.712   9.327  13.308  0.3019 -0.0636 -0.0614
28248W        W44322  13.630  16.265   1.561 -0.1657  0.0835 -0.2179
28249W        W44323   1.072   7.752   1.198 -0.0429  0.1699 -0.0326
28250W        W44324   0.508  15.705  13.785 -0.1765 -0.2386  0.1535
28251W        W44325  14.612   5.429  15.798 -0.2902  0.3214  0.0345
28252W        W44326  12.675  12.399   5.943 -0.0404  0.1812  0.3286
28253W        W44327  16.890  12.932   1.664  0.0716  0.0511 -0.2342
28254W        W44328  12.321   9.876  13.485  0.1214 -0.1902  0.2154
28255W        W44329  15.055   9.932  14.564  0.2538 -0.0520 -0.0404
28256W        W44330   2.965  14.542  16.376  0.2389 -0.0710 -0.1643
28257W        W44331  17.681   0.205  16.508  0.0571  0.0624 -0.2201
28258W        W44332  16.675   3.932  14.736  0.0185 -0.0231  0.1366
28259W        W44333   0.614  11.421  16.508  0.1985 -0.0867 -0.0493
28260W        W44334   2.314   8.727  14.971  0.2818  0.2127 -0.0666
28261W        W44335  11.304  11.300   0.958 -0.2651  0.0902 -0.1614
28262W        W44336   6.149  10.217   5.874  0.0446 -0.3506  0.1596
28263W        W44337   9.838   5.034  14.213  0.0586  0.0105 -0.0847
28264W        W44338   0.331   8.714   0.740  0.2035  0.0449 -0.2120
28265W        W44339   9.308  10.313  11.709  0.2205 -0.1755 -0.1206
28266W        W44340   4.520  14.433  11.465  0.0125 -0.0418 -0.1003
28267W        W44341   4.621  16.285  12.389  0.2106  0.2511  0.3255
28268W        W44342   4.119   7.441  12.132 -0.0792 -0.3102 -0.1741
28269W        W44343   6.858  16.871  12.700 -0.2444 -0.1737 -0.0546
28270W        W44344   2.010  17.757   3.499 -0.0485 -0.1519 -0.1121
28271W        W44345   4.843   6.797   2.430 -0.1398 -0.1078  0.3219
28272W        W44346  10.579   3.346   2.127 -0.1681  0.2280 -0.3443
28273W        W44347   9.593   7.563   4.006 -0.0261 -0.2796 -0.1109
28274W        W44348  15.276   9.294   4.288 -0.0619 -0.0713  0.2096
28275W        W44349   5.282   1.331  15.664 -0.0067 -0.3332  0.0420
28276W        W44350   4.602  13.376   1.728 -0.4934  0.1293  0.1198
28277W        W44351  14.904   1.089  14.084 -0.0496 -0.0571  0.0226
28278W        W44352   7.838   1.702   2.698  0.2342  0.2557 -0.0600
28279W        W44353   9.218   0.066  13.444  0.0899  0.0229  0.0772
28280W        W44354  12.988  13.196   2.348  0.0727 -0.1996  0.1475
28281W        W44355  14.792  13.524  11.544  0.2004  0.1316  0.0587
28282W        W44356   6.393  14.949  16.144 -0.0354 -0.1593  0.3281
28283W        W44357   2.300  16.012   1.492 -0.0632  0.0213  0.1285
28284W        W44358   6.761   2.705  15.602 -0.0917  0.0115  0.3666
28285W        W44359   9.014  15.037   0.924  0.0460  0.0637 -0.3541
28286W        W44360  10.285   5.101  12.112 -0.2005  0.4183 -0.1207
28287W        W44361  10.190   0.927   3.391 -0.1486 -0.0002  0.0575
28288W        W44362   6.940   0.709  12.947  0.0015  0.1181 -0.2273
28289W        W44363  13.579   1.604   3.302 -0.1644  0.0354  0.0569
28290W        W44364   1.436  16.932   3.163  0.0678 -0.2203  0.1090
28291W        W44365   6.760  16.558  16.149  0.0323 -0.0575  0.0136
28292W        W44366  10.175   9.804  10.625  0.0702 -0.4262 -0.0064
28293W        W44367  12.619  10.453   3.674 -0.1291 -0.2019 -0.0511
28294W        W44368  12.176   3.261  13.799  0.0436 -0.1579  0.1463
28295W        W44369   1.631   5.707  14.282  0.0369 -0.0492  0.2074
28296W        W44370   6.721  13.350   5.683 -0.0283 -0.1152 -0.1687
28297W        W44371  15.321   6.410  13.917  0.0928 -0.2247 -0.0255
28298W        W44372   6.089  14.135   4.807 -0.3259  0.1024 -0.0351
28299W        W44373  14.697  16.622   2.003  0.2126 -0.0364  0.1191
28300W        W44374   2.011   4.491   5.635 -0.0326 -0.2496 -0.2757
28301W        W44375   5.257  11.339   1.112 -0.3538  0.3334 -0.1006
28302W        W44376   5.242  13.687   3.765  0.1497  0.2800  0.0539
28303W        W44377   3.747   9.874  12.922 -0.1796 -0.0572  0.0396
28304W        W44378   9.388   1.125  13.547 -0.2423  0.1925  0.1273
28305W        W44379   3.876  12.151  16.262 -0.0928 -0.0831 -0.2148
28306W        W44380  15.021  11.252  15.828 -0.1137  0.1185 -0.2233
28307W        W44381   4.840   0.758  14.127  0.1312 -0.0771 -0.1547
28308W        W44382   7.446   4.048   1.594  0.2206 -0.2383 -0.0127
28309W        W44383  10.315   5.232  14.024 -0.1048  0.2158  0.0506
28310W        W44384   4.033   8.692   4.164  0.0698  0.0424  0.1323
28311W        W44385  10.351  14.955  14.083  0.1434  0.2739  0.0848
28312W        W44386  17.387  11.908   3.728  0.2846 -0.0250 -0.2914
28313W        W44387   5.028   7.868  13.261  0.0303 -0.1057  0.0178
28314W        W44388  11.877   0.085   4.871 -0.2536 -0.0769 -0.1103
28315W        W44389  16.946  13.148   3.198  0.0945  0.0128  0.0425
28316W        W44390   2.156  14.075   1.962 -0.0250  0.1885 -0.1997
28317W        W44391   5.493   5.280  11.720 -0.1777 -0.0072 -0.0361
28318W        W44392  11.697  16.882   2.931  0.1767 -0.0372  0.3792
28319W        W44393   0.011   0.814  16.517 -0.1306  0.1847 -0.0765
28320W        W44394   3.935  10.220  15.106 -0.2078  0.4891  0.2056
28321W        W44395  14.672   8.448   0.580  0.0218  0.0594 -0.2642
28322W        W44396   1.313   8.785  12.427  0.0917 -0.2492 -0.0037
28323W        W44397  10.097   4.361   5.783 -0.2916 -0.0572 -0.2082
28324W        W44398  13.854   7.001  11.683  0.2983  0.1604 -0.1707
28325W        W44399   0.772  15.482   2.938 -0.1389  0.0560  0.1167
28326W        W44400  14.296  16.628   2.895  0.1935  0.5240  0.2882
28327W        W44401  11.562  12.953   1.668 -0.0374 -0.2364  0.0118
28328W        W44402  14.670   0.660   3.199 -0.0705  0.0760  0.2929
28329W        W44403   5.409  13.234  12.074  0.1146 -0.0640  0.4186
28330W        W44404  12.775  17.011  16.250 -0.3879  0.1740  0.0972
28331W        W44405  13.569   2.732   0.380 -0.0198  0.2417 -0.0219
28332W        W44406  10.047   5.899   0.430  0.0615  0.0424  0.0358
28333W        W44407  16.761   4.809   0.210 -0.0089 -0.5089 -0.1925
28334W        W44408  16.579  15.824   1.085  0.0188  0.1609 -0.1042
28335W        W44409   5.731  16.233   1.304  0.0192 -0.0936  0.4173
28336W        W44410  10.686  15.897  15.269 -0.0320 -0.3792 -0.0882
28337W        W44411   1.243  11.540   1.781 -0.3578  0.1047 -0.0750
28338W        W44412   7.726   7.768   3.429  0.0988 -0.0506 -0.1839
28339W        W44413  10.461   3.131   4.382 -0.2595 -0.2551  0.3656
28340W        W44414   9.508   2.711   1.712 -0.0002  0.1219 -0.3155
28341W        W44415   6.505   9.737   3.728  0.3654 -0.1832 -0.0146
28342W        W44416   7.576   2.539   5.213 -0.0545  0.0840 -0.0424
28343W        W44417   6.813   0.028  16.207 -0.1165 -0.1633 -0.3073
28344W        W44418   6.752  17.282  12.986  0.1428 -0.0544 -0.0756
28345W        W44419   7.789  12.525  13.787 -0.1675  0.3298  0.1269
28346W        W44420   2.515  13.510  14.747 -0.0340 -0.3435  0.0881
28347W        W44421  13.891   3.941  16.381  0.1182 -0.2012  0.1840
28348W        W44422  14.297  10.060   2.549  0.1801 -0.2424 -0.0935
28349W        W44423   7.585  10.771  16.462  0.1101 -0.3058  0.0325
28350W        W44424  13.941   3.645   3.096  0.1756 -0.1297 -0.2608
28351W        W44425   2.924   4.584   0.974  0.0490  0.0028  0.2718
28352W        W44426   4.320   7.903   2.560  0.1867  0.3276  0.1528
28353W        W44427  14.171  14.196  12.978  0.1404 -0.1149 -0.1159
28354W        W44428  10.468  10.811  13.324 -0.3318 -0.0932 -0.0811
28355W        W44429   5.378   6.007  12.355  0.2402  0.0072  0.0797
28356W        W44430   9.605   5.908   4.548 -0.4102 -0.1733  0.1021
28357W        W44431   7.647   8.874   6.389  0.0382  0.0774  0.0653
28358W        W44432   3.573   3.560  16.400  0.2509  0.1076  0.0284
28359W        W44433  10.948   7.089  12.953 -0.1537  0.0721  0.1001
28360W        W44434  10.769  10.231   1.797  0.0528 -0.0168  0.0814
28361W        W44435   9.519   9.938   3.211  0.0430  0.1053  0.3015
28362W        W44436   1.412   1.003  11.558  0.0247  0.3428  0.1646
28363W        W44437   8.418   3.330   2.074  0.0279  0.1405  0.1103
28364W        W44438   3.945  13.703  13.756 -0.1308 -0.0018  0.1065
28365W        W44439  12.898   5.014   5.112 -0.0824 -0.3607 -0.0812
28366W        W44440   1.882   0.919   4.988 -0.4040  0.0991  0.2233
28367W        W44441   3.879   3.176  14.566 -0.1713  0.4057 -0.0946
28368W        W44442   8.285   4.823  11.538 -0.1421  0.1415 -0.0139
28369W        W44443   8.876  13.861  16.030  0.1567 -0.1109 -0.0088
28370W        W44444   9.934   8.068  12.765  0.1949  0.2120 -0.1584
28371W        W44445   1.016   2.927   2.593 -0.2603  0.0925 -0.0159
28372W        W44446  16.962   1.908  11.311 -0.1023  0.0257 -0.2401
28373W        W44447   3.260  16.823  14.867 -0.1865 -0.1962  0.2343
28374W        W44448  12.433  10.038   5.497  0.0848 -0.1065  0.2989
28375W        W44449  10.121  16.473  14.014 -0.2813 -0.0504 -0.2061
28376W        W44450   7.618   9.032  14.802  0.0800  0.1132  0.0390
28377W        W44451  14.066  14.161  13.915 -0.1679  0.3093 -0.0345
28378W        W44452   3.303   1.477  12.631 -0.0193  0.0642 -0.1168
28379W        W44453   7.179   8.274   2.829 -0.0711 -0.2202  0.0475
28380W        W44454   1.657   2.669   1.072  0.0278 -0.0472 -0.2995
28381W        W44455  14.986   2.275  15.958  0.0576 -0.0801 -0.1627
28382W        W44456   7.342  11.283  13.549  0.0818 -0.4343 -0.0405
28383W        W44457   8.887  14.415  11.762  0.0954  0.1957 -0.4700
28384W        W44458  13.557   5.786  14.814 -0.1596  0.1323  0.0898
28385W        W44459   6.066   3.896  15.962  0.0524  0.3501  0.0071
28386W        W44460  15.214   0.772   5.794 -0.0376 -0.0472 -0.1560
28387W        W44461  17.523   3.758   4.492 -0.1275 -0.0297  0.2343
28388W        W44462  11.680   3.213   3.609  0.1318  0.1503 -0.0047
28389W        W44463  16.958  14.059  14.919  0.3559  0.1394 -0.1634
28390W        W44464   4.713   2.816   1.339  0.1492 -0.0691 -0.1518
28391W        W44465  11.684  11.393  14.693 -0.2200  0.1150 -0.0766
28392W        W44466   6.779   0.329   3.896  0.0462  0.0546 -0.1410
28393W        W44467   3.581   2.854  14.957  0.0107  0.0440  0.2090
28394W        W44468  13.503  14.931  12.613 -0.1573  0.2432 -0.0420
28395W        W44469  16.078   1.240   0.941  0.0332 -0.0965  0.1706
28396W        W44470   6.698   7.226  14.845 -0.1821  0.2949 -0.0398
28397W        W44471  11.992  16.169  12.715 -0.0670  0.2212 -0.0980
28398W        W44472  12.880   6.754  11.476 -0.0667 -0.2023  0.1686
28399W        W44473  10.815   5.396  14.893  0.0242 -0.0194  0.0553
28400W        W44474  17.731   4.867   0.731  0.0821  0.3924  0.0141
28401W        W44475  16.112  15.178   4.060  0.0161 -0.0648  0.2657
28402W        W44476   8.760   3.300   0.333 -0.0679 -0.1300 -0.0490
28403W        W44477   2.832  13.615  15.466  0.2806 -0.1211  0.0349
28404W        W44478   9.195   3.346   2.065 -0.4709  0.0417  0.0661
28405W        W44479   9.444   6.369  13.664  0.1102  0.0194  0.1323
28406W        W44480   0.121  13.668  13.293 -0.0233 -0.0708  0.2577
28407W        W44481  17.596   5.078  14.052  0.3557  0.3514  0.0625
28408W        W44482   8.649  16.803   3.689  0.0130 -0.1568  0.1518
28409W        W44483  16.346   5.311  16.009  0.1157  0.1316 -0.2194
28410W        W44484   1.434   1.128  11.045 -0.0370  0.2504 -0.4079
28411W        W44485  16.719   5.128   2.242  0.0757 -0.2364  0.1955
28412W        W44486  14.188  13.311   2.385  0.0942 -0.1360  0.2496
28413W        W44487   1.675   3.297   4.466  0.0827  0.0732  0.1397
28414W        W44488   0.865   0.667  15.270  0.1209  0.3251 -0.2644
28415W        W44489   6.843   1.465  15.484 -0.4138  0.1147  0.1138
28416W        W44490   5.930  14.977  15.828  0.1887 -0.0333 -0.0222
28417W        W44491  17.756  11.279  15.525 -0.0512  0.2328 -0.1252
28418W        W44492  11.920   3.394  13.017  0.3346  0.3148 -0.3571
28419W        W44493   8.497  15.663   1.023 -0.2988 -0.2015  0.1282
28420W        W44494  12.984  13.401  14.598  0.0176  0.0102 -0.1562
28421W        W44495  15.948  13.698   2.998 -0.0602 -0.1131  0.1148
28422W        W44496   5.338   1.073   2.390  0.4446 -0.3302  0.1923
28423W        W44497  16.871  10.713  16.366  0.0109 -0.2467  0.0995
28424W        W44498  14.568  16.846   3.527  0.1040 -0.0540 -0.0328
28425W        W44499   6.136   8.055   1.815  0.2326  0.1365  0.0607
28426W        W44500  17.382   0.966   5.989  0.0760  0.2749 -0.1514
28427W        W44501  10.264  11.886  16.414 -0.1528 -0.1564 -0.3471
28428W        W44502   2.420  13.457   2.255  0.1771 -0.3266  0.1763
28429W        W44503   9.176   4.814   2.655  0.0047  0.2088  0.0051
28430W        W44504  10.842  14.855   5.318 -0.2819  0.1124 -0.2278
28431W        W44505   1.504   4.935  12.820  0.1235 -0.1179  0.0251
28432W        W44506  13.946   9.764  14.878  0.3164  0.0525 -0.2470
28433W        W44507  15.429  11.004  12.984 -0.0703 -0.1820 -0.2555
28434W        W44508   6.478   5.867   1.438  0.2314  0.2337  0.4523
28435W        W44509  17.500  18.176   0.381  0.0901 -0.1688 -0.4593
28436W        W44510   4.913  11.893   1.992 -0.1279  0.1349  0.2386
28437W        W44511   5.821  17.451  14.821 -0.1392 -0.0390 -0.0067
28438W        W44512  11.777  16.496  13.829 -0.0159  0.1839  0.0834
28439W        W44513  12.342   2.627   2.449 -0.0861 -0.0017  0.1506
28440W        W44514   5.850   1.473  12.126 -0.1890 -0.1746  0.1236
28441W        W44515  14.725   2.737   4.238 -0.0048 -0.1353 -0.0553
28442W        W44516  16.598  17.747   5.764 -0.1579 -0.1316  0.2637
28443W        W44517  10.050   1.943   0.430  0.0619  0.1334  0.1111
28444W        W44518   9.495  12.662   1.197  0.1540 -0.2220  0.3658
28445W        W44519  17.080  13.821  16.029  0.1651  0.2234  0.2948
28446W        W44520   4.962  10.850   3.254  0.3146 -0.0924  0.2399
28447W        W44521  12.719  14.651  15.503 -0.1657  0.2321 -0.1640
28448W        W44522  17.237  13.884  11.102  0.0977  0.0708 -0.0406
28449W        W44523   0.204   8.230  16.528 -0.4155  0.3143 -0.3950
28450W        W44524  15.443   7.576  14.721 -0.2062  0.0923  0.0082
28451W        W44525   1.262   6.349   3.359 -0.0454  0.4346 -0.5103
28452W        W44526   9.135  13.421  15.267  0.0123 -0.1108  0.1241
28453W        W44527   7.449   8.235   3.314  0.0760  0.0950  0.1031
28454W        W44528   6.487  16.454   5.269  0.1759  0.0058  0.2583
28455W        W44529   2.718   7.968  16.087 -0.0371 -0.0622  0.0424
28456W        W44530   5.566  15.788   3.007  0.1859  0.4585  0.4717
28457W        W44531  14.927   6.759  14.290 -0.0373  0.0329 -0.0156
28458W        W44532  11.264   3.426  13.317 -0.3470 -0.2507  0.0369
28459W        W44533   4.424   3.819  13.304  0.4246 -0.1946  0.0467
28460W        W44534   3.551   1.535  15.217 -0.0404  0.1749  0.2292
28461W        W44535   3.950   5.957   3.418 -0.1957 -0.1646  0.0662
28462W        W44536   8.889  10.080  15.132 -0.3764 -0.0915  0.2181
28463W        W44537   8.603   0.871  13.663  0.0665  0.0152 -0.2302
28464W        W44538  10.658  17.202  12.978  0.0823 -0.0712 -0.0904
28465W        W44539   1.290   5.312   0.222  0.4290  0.1647 -0.0942
28466W        W44540  15.935   8.475   0.009  0.0368 -0.0587  0.0562
28467W        W44541  11.107   4.422  12.287  0.2761 -0.2388  0.2352
28468W        W44542   5.748   0.355   3.924 -0.3603 -0.1572 -0.2937
28469W        W44543  13.852   7.552  14.404 -0.0009 -0.1695 -0.2418
28470W        W44544   5.581   1.786   0.810  0.1035  0.0837  0.0758
28471W        W44545   0.751   8.013  11.615 -0.0927  0.0907 -0.0158
28472W        W44546  13.233   4.826  15.065 -0.0456 -0.2738  0.1343
28473W        W44547  11.793  16.758  16.490 -0.1338  0.0409  0.2326
28474W        W44548   2.178   5.547  13.387 -0.2430  0.0244  0.1299
28475W        W44549   5.441   8.761  12.165  0.0849 -0.3530  0.1839
28476W        W44550   1.206   9.605   5.796 -0.1467 -0.1454 -0.0393
28477W        W44551   9.474   3.929  15.447  0.1990  0.1030  0.1234
28478W        W44552  11.044   6.128   2.150 -0.1261 -0.0499 -0.1354
28479W        W44553  14.195  14.920  16.374  0.0399 -0.0841  0.0507
28480W        W44554   0.459   5.954  13.619  0.2369  0.3584  0.1161
28481W        W44555  15.691   4.640   4.007  0.3560  0.0417 -0.1195
28482W        W44556   7.477   9.657  11.603  0.1270 -0.3884  0.2841
28483W        W44557  10.429   0.874   5.486 -0.1142 -0.1188 -0.0577
28484W        W44558   5.629   5.151   1.356  0.2559  0.0893 -0.1171
28485W        W44559  11.646   3.613  12.025  0.4678 -0.0681  0.1369
28486W        W44560   7.554  14.357   1.273 -0.0963  0.2124 -0.1870
28487W        W44561   4.046   7.002   4.502  0.2961  0.1935  0.4330
28488W        W44562   5.753   8.843  14.246 -0.1793 -0.1517 -0.3085
28489W        W44563   2.115  12.359  11.351 -0.1393  0.2107 -0.3665
28490W        W44564  14.199   6.512   0.405 -0.1384 -0.2779 -0.3218
28491W        W44565   4.015  14.610   3.992  0.0775 -0.0101 -0.1647
28492W        W44566  15.714  10.028  12.138 -0.3318 -0.0738 -0.0422
28493W        W44567   1.520  12.931  12.968  0.1686 -0.1539  0.2225
28494W        W44568  14.041   4.528   0.533 -0.3339  0.2545  0.0169
28495W        W44569   9.654   2.131   2.742  0.3026 -0.1683  0.0266
28496W        W44570   2.416   1.680  16.102 -0.0223 -0.1400 -0.1610
28497W        W44571   7.541   3.991   4.279  0.1787 -0.1951  0.0256
28498W        W44572  10.547   3.639   4.187  0.1563 -0.1234 -0.2337
28499W        W44573   5.888  14.192   0.672  0.0948  0.3987 -0.1307
28500W        W44574  12.476   6.710  14.934  0.0678 -0.0023  0.0979
28501W        W44575   5.921  13.266  12.061  0.5209  0.1437  0.0632
28502W        W44576  10.102   3.118  14.375 -0.0928 -0.2506  0.1321
28503W        W44577  14.270  16.673  16.284  0.0356 -0.0114  0.0531
28504W        W44578  11.986  14.213  14.237  0.1217  0.1422  0.1261
28505W        W44579   1.495   7.485   1.276 -0.3514 -0.0802  0.1620
28506W        W44580  16.977   8.135  11.320 -0.0227  0.1343  0.1547
28507W        W44581  16.882   9.656  11.607 -0.0173  0.2050 -0.0292
28508W        W44582   8.281   9.595  14.885  0.2951 -0.0840  0.1982
28509W        W44583   6.627  16.117   4.537 -0.2666  0.2033 -0.1046
28510W        W44584   2.326   2.564   3.528  0.1047  0.2872 -0.1991
28511W        W44585   8.243   8.593  13.514  0.0403  0.1067 -0.3306
28512W        W44586   5.544   5.740   1.704  0.0620  0.0478 -0.1017
28513W        W44587  12.914   8.998   1.456 -0.1017  0.0085  0.0660
28514W        W44588   2.823   6.958   0.500  0.1655 -0.2178  0.1629
28515W        W44589  12.126  10.740  12.942 -0.0015 -0.0307 -0.0450
28516W        W44590   3.862   6.766  16.222  0.2509 -0.3038  0.2329
28517W        W44591  17.673  10.844   3.221  0.1261 -0.0236  0.1506
28518W        W44592  15.063   6.899   4.174 -0.0979 -0.0537 -0.2451
28519W        W44593   6.894  15.140   5.075 -0.0095  0.0122  0.0114
28520W        W44594   2.439   6.375  12.092 -0.1184 -0.1792 -0.2982
28521W        W44595   3.961   9.758  11.690 -0.0643  0.3051  0.1825
28522W        W44596   9.050  15.544   4.388 -0.0995 -0.1702 -0.1548
28523W        W44597   7.210   2.640  15.281 -0.1525  0.0747 -0.2497
28524W        W44598   8.037   4.089   0.548  0.2726 -0.0873  0.0666
28525W        W44599   2.510   0.462  10.902  0.0281 -0.2216 -0.3666
28526W        W44600  18.035  12.336  15.384 -0.1952 -0.3920 -0.1055
28527W        W44601   4.053   0.297  15.080 -0.0032  0.2305 -0.1324
28528W        W44602   4.253   7.643  15.737  0.2523 -0.0818  0.2464
28529W        W44603  13.961  13.752  14.332  0.1400  0.1020  0.0253
28530W        W44604   0.208  13.223  10.866 -0.1822 -0.0179 -0.0395
28531W        W44605   6.691   6.527   0.890  0.2329 -0.0745 -0.1508
28532W        W44606  17.524   5.534  15.397 -0.0681 -0.0506 -0.0827
28533W        W44607   1.809   6.646   2.939  0.2275 -0.2809  0.0287
28534W        W44608   4.211  13.722  11.985 -0.1885 -0.0277  0.1340
28535W        W44609   1.500  12.783  14.315  0.1103  0.5133  0.2531
28536W        W44610  16.216  16.624  14.617 -0.1407  0.1307 -0.0007
28537W        W44611  15.266   1.428  14.072 -0.1558  0.1899 -0.0814
28538W        W44612  13.250   9.153  14.696  0.0756  0.2479  0.3288
28539W        W44613   7.388   5.817  14.714 -0.3178  0.0424  0.1238
28540W        W44614   4.890  10.569  15.228  0.1933 -0.0319  0.0223
28541W        W44615   0.422  16.276   2.424  0.0257 -0.0475 -0.3470
28542W        W44616  18.005  15.923  13.332 -0.0224  0.2499  0.1092
28543W        W44617  17.516  13.787   0.706  0.3331 -0.0059  0.0807
28544W        W44618  13.908  10.842  16.005 -0.1338  0.1296  0.4633
28545W        W44619   9.556  12.879  15.978  0.1979  0.1860 -0.3561
28546W        W44620   8.321   5.029  12.524  0.1998  0.1384  0.1069
28547W        W44621   5.439   9.768  12.444 -0.1213  0.0906 -0.2054
28548W        W44622   0.125  15.508  14.139 -0.2629  0.1285 -0.1861
28549W        W44623  15.029   5.000   0.043 -0.1396 -0.2807  0.1309
28550W        W44624  17.341  12.462  14.372  0.0501 -0.2816  0.0568
28551W        W44625   3.581   5.243   3.414 -0.0455 -0.0975 -0.1923
28552W        W44626   8.224  11.189   3.072 -0.2147 -0.1267 -0.2494
28553W        W44627  12.195   8.789   1.882 -0.0751  0.0516  0.0931
28554W        W44628   0.197  11.511   1.876 -0.1805 -0.2073  0.2414
28555W        W44629   6.649  11.065  12.977 -0.1266 -0.0008 -0.0953
28556W        W44630   9.050   6.789   3.663 -0.0929 -0.2414 -0.1222
28557W        W44631   3.226   2.120   2.922  0.1512 -0.5045 -0.1859
28558W        W44632  15.449   1.971  14.508 -0.1714 -0.0688 -0.2416
28559W        W44633   1.721   3.972  15.291 -0.1241 -0.0628  0.2155
28560W        W44634  17.689   6.148   6.279 -0.2032  0.0406 -0.0781
28561W        W44635   0.599   9.382  11.719  0.1220  0.1738 -0.2530
28562W        W44636  16.040   6.301  12.807 -0.2323  0.1087  0.0201
28563W        W44637  11.193   9.809   1.258 -0.1724  0.0716 -0.1083
28564W        W44638  10.166   3.191  13.897  0.2779 -0.1259  0.0454
28565W        W44639   8.677   9.122   3.976 -0.1821  0.0549  0.1444
28566W        W44640   3.140  14.243  11.312  0.0407 -0.0226 -0.2668
28567W        W44641   8.400  11.658   3.112  0.0543  0.2831  0.3512
28568W        W44642  12.947   9.849  16.088  0.0876  0.0856  0.3569
28569W        W44643   2.947   5.665  11.870  0.2008 -0.1095 -0.3755
28570W        W44644   8.168   4.993  13.087 -0.1139  0.0340 -0.3317
28571W        W44645  15.888   5.122  13.784 -0.2469  0.1236  0.2482
28572W        W44646  17.553  14.367  14.944  0.0500 -0.2310 -0.0532
28573W        W44647   8.015  13.033   3.387 -0.0882  0.3397 -0.4858
28574W        W44648   5.477  16.448  13.678 -0.1769  0.3580  0.0122
28575W        W44649   2.495   1.569   0.312 -0.2160 -0.0242 -0.1121
28576W        W44650  12.520  15.688  12.467  0.1185  0.0431  0.0485
28577W        W44651   8.123   7.566  14.022  0.3220  0.0948  0.4033
28578W        W44652   5.839  14.627   5.749  0.0837  0.1693  0.3193
28579W        W44653  12.744  17.033   5.375  0.3237 -0.0604 -0.1373
28580W        W44654   5.125   1.691   0.937 -0.1026  0.3614  0.1432
28581W        W44655   7.737   6.542   2.560 -0.1512  0.0040 -0.2379
28582W        W44656  10.504  12.244  13.604 -0.0576 -0.2544  0.0866
28583W        W44657  15.252  17.985  15.651  0.0808  0.1381  0.0266
28584W        W44658  16.269   6.595   4.091 -0.0576  0.3328  0.1166
28585W        W44659   2.022  10.532   2.470 -0.1472  0.1005 -0.0590
28586W        W44660  12.955   8.606  14.275 -0.1111 -0.2116 -0.2476
28587W        W44661  16.292   6.074   2.946 -0.1606 -0.1217  0.0206
28588W        W44662  10.953   9.469  13.014 -0.0008  0.0639  0.0635
28589W        W44663  17.371  12.630  10.988 -0.0006 -0.0452 -0.2407
28590W        W44664   9.026  16.297   3.498 -0.3435  0.0890  0.0999
28591W        W44665   6.727   4.778   2.478  0.0398 -0.1092  0.0625
28592W        W44666  14.580   4.226   1.190  0.2400 -0.0671  0.0940
28593W        W44667   0.945  16.474  12.146  0.1051 -0.1448 -0.1568
28594W        W44668   4.921  10.898  13.001  0.2369  0.1004  0.0669
28595W        W44669   3.410   9.809   0.252  0.0591  0.0295  0.1124
28596W        W44670   3.759   9.586  14.533 -0.0306 -0.0871 -0.1786
28597W        W44671   3.698   1.990   3.070  0.0917  0.1782  0.1294
28598W        W44672  12.048  14.686  14.185  0.0225 -0.2442  0.3041
28599W        W44673   1.410  12.772   2.915 -0.4741  0.4913 -0.1964
28600W        W44674  11.943  12.759  14.164 -0.4577 -0.0290  0.0245
28601W        W44675   2.112  15.391  13.441 -0.1283  0.0416 -0.1428
28602W        W44676   3.382  16.170   2.255  0.0639  0.1316 -0.0135
28603W        W44677  12.574   1.079  11.668  0.1026  0.1006  0.1044
28604W        W44678  15.702  16.061   2.997  0.0166  0.0649  0.3089
28605W        W44679   1.728  11.014  13.806  0.0358 -0.0265 -0.2391
28606W        W44680   0.942  14.094  15.509 -0.1089  0.0755  0.0603
28607W        W44681   4.663   3.679  15.559  0.0652 -0.1521 -0.0691
28608W        W44682  16.909   9.315   2.347  0.1066 -0.0980  0.0085
28609W        W44683   7.066   5.093  14.578 -0.3731 -0.0466 -0.1683
28610W        W44684   7.565  15.459  15.529 -0.2084 -0.3591  0.1146
28611W        W44685  18.057   0.764   4.062 -0.0826  0.3273  0.1323
28612W        W44686   8.708   2.652  13.209 -0.1562  0.0806 -0.2086
28613W        W44687   7.947  16.896   5.764 -0.0364 -0.0552  0.2556
28614W        W44688   4.336   2.852   4.218  0.1015 -0.1124 -0.2970
28615W        W44689  14.945  17.704   2.680  0.1857  0.0878 -0.1410
28616W        W44690   0.583  10.345  12.099  0.3761 -0.2267  0.0120
28617W        W44691   3.403   3.658  11.720  0.1108 -0.1102  0.0246
28618W        W44692  11.118  13.080   6.548  0.1699 -0.1070 -0.0947
28619W        W44693   0.562   0.165   1.553  0.4290  0.5132  0.1604
28620W        W44694   3.895  17.223   0.783  0.0553 -0.3448 -0.1406
28621W        W44695  15.101  17.936  11.904 -0.0556 -0.0357 -0.0390
28622W        W44696  12.852  15.274   2.226 -0.0727  0.0156  0.2059
28623W        W44697   5.945  13.347  11.482  0.0684 -0.0654 -0.2084
28624W        W44698   1.072  13.084   0.783 -0.3944 -0.0513 -0.1149
28625W        W44699  10.869  16.933   2.677 -0.0412  0.0443 -0.1629
28626W        W44700  12.717  12.279   1.669 -0.0815  0.0350 -0.3379
28627W        W44701  14.886   9.395   3.138  0.0852  0.0926 -0.3265
28628W        W44702   9.934   6.472  12.798  0.1956 -0.4502  0.1603
28629W        W44703   4.310   5.257   1.912 -0.2328 -0.2025  0.0041
28630W        W44704   6.490   8.822   0.140 -0.7604 -0.1217 -0.0143
28631W        W44705  16.447   0.522   1.901 -0.0026  0.1665 -0.1113
28632W        W44706   8.476  16.789  11.791  0.1043  0.1233  0.3690
28633W        W44707  13.619  12.293  13.961 -0.2427  0.0107  0.1773
28634W        W44708  11.529   5.418   0.716 -0.0516 -0.1616  0.0112
28635W        W44709  15.888  17.279   1.387 -0.2145  0.0869  0.1295
28636W        W44710   8.469   2.953   2.601  0.1380  0.1667  0.2032
28637W        W44711  15.675  12.917   3.203  0.2228  0.0621  0.0885
28638W        W44712   0.529   4.926   2.762 -0.1565  0.1282 -0.0025
28639W        W44713   7.202   7.123   4.772  0.4176  0.0214 -0.0776
28640W        W44714   0.755  11.101   5.554  0.0857  0.0852  0.1014
28641W        W44715  12.576  13.521  15.429  0.2507  0.1247  0.3406
28642W        W44716  12.334  10.377  11.771 -0.1825  0.0571  0.0937
28643W        W44717   9.768   5.546   1.534 -0.0639 -0.1392 -0.1747
28644W        W44718   3.955   3.809  15.615 -0.0447  0.0106  0.1660
28645W        W44719  16.456  13.857  12.090 -0.3024  0.1277  0.1021
28646W        W44720   1.714   1.345   2.884 -0.1996 -0.2019 -0.2065
28647W        W44721  15.014  11.785  11.741  0.0066  0.0942 -0.2011
28648W        W44722  17.965   3.913   1.075  0.1786  0.0407 -0.4370
28649W        W44723   3.657  16.593   2.119 -0.0682 -0.2426 -0.0992
28650W        W44724   4.016  15.006   5.366  0.0356 -0.0615  0.0356
28651W        W44725   5.909   7.494   1.280 -0.0706 -0.1395  0.1000
28652W        W44726   1.644   8.279   3.038 -0.1578 -0.1868 -0.0633
28653W        W44727   4.841  17.350   0.545 -0.2607 -0.1467  0.0581
28654W        W44728  10.878  17.945   2.857  0.1876 -0.1945  0.0106
28655W        W44729  18.153  10.519   0.638  0.1842  0.4069  0.0136
28656W        W44730  13.837   0.605  13.118 -0.0340  0.1403 -0.0586
28657W        W44731   1.927   4.950   4.789  0.0383 -0.2926  0.0911
28658W        W44732  14.186  15.519  15.470 -0.4800 -0.1127  0.1685
28659W        W44733  16.275   9.937  12.159  0.0147 -0.1907  0.0496
28660W        W44734   6.133  16.675   1.983 -0.0282  0.0533  0.2308
28661W        W44735  10.387  16.016  14.403 -0.1016  0.3630  0.0913
28662W        W44736   7.733  12.086  13.422 -0.0231  0.0685 -0.0780
28663W        W44737   8.976   2.813  13.882 -0.2412 -0.0316 -0.1420
28664W        W44738  12.015   1.220   4.948 -0.1502  0.1915  0.4182
28665W        W44739   4.579   2.945  12.933 -0.0849  0.2053  0.0643
28666W        W44740   6.158   4.187   0.049  0.1276  0.1035  0.3473
28667W        W44741  17.069   5.012  13.911 -0.1024 -0.2448 -0.1346
28668W        W44742   7.463  18.222   3.493  0.1248 -0.0373  0.0938
28669W        W44743  12.412   0.755  12.479 -0.0506  0.0129  0.0841
28670W        W44744  17.723  14.343   4.840  0.1483  0.0616 -0.0694
28671W        W44745  12.067  15.786   4.156  0.0535 -0.2607 -0.0328
28672W        W44746  16.859   5.819  15.420  0.1032  0.0937  0.4084
28673W        W44747   9.207  11.576   3.805 -0.2339  0.1912  0.1179
28674W        W44748  17.251   0.744  14.685  0.1771 -0.2086 -0.0764
28675W        W44749   7.850  12.440  15.268  0.1301  0.1646  0.0797
28676W        W44750   5.700   1.994   1.902  0.0611 -0.1113 -0.3586
28677W        W44751   4.792   6.109   1.958 -0.1355 -0.1452 -0.1470
28678W        W44752   6.359   3.991   1.481  0.2982 -0.1306  0.0997
28679W        W44753   3.890  15.202   4.094 -0.0386 -0.0829  0.2489
28680W        W44754   3.156  14.467  12.109 -0.1396 -0.0452 -0.3105
28681W        W44755  15.856  14.908  15.499  0.1457 -0.3729 -0.2616
28682W        W44756   5.831   2.348   3.392  0.1439 -0.2520  0.0323
28683W        W44757  14.454   4.771   1.499 -0.1577 -0.1977  0.1138
28684W        W44758   2.448  10.985  12.173  0.2472  0.1016  0.1345
28685W        W44759  10.339  12.948   2.804 -0.2809  0.0920 -0.2718
28686W        W44760  12.954   8.245   2.749  0.1108  0.0366 -0.1576
28687W        W44761   6.254  14.217   4.316  0.2538  0.2126 -0.2686
28688W        W44762   3.731   9.431   1.599 -0.0028 -0.0530 -0.2416
28689W        W44763   8.861  16.294   4.407 -0.0980  0.0047 -0.0371
28690W        W44764  15.745  15.924  15.792 -0.2912  0.1692  0.0197
28691W        W44765   8.626   9.890  13.047 -0.2649 -0.2413 -0.0404
28692W        W44766  11.156   4.767  13.599 -0.6077  0.4790  0.0935
28693W        W44767   0.657   7.437   4.115 -0.1879 -0.0635 -0.3754
28694W        W44768  12.136   2.321  12.104 -0.0353 -0.1079  0.0216
28695W        W44769  13.172   0.933   5.980 -0.3453  0.3890 -0.0902
28696W        W44770  11.372   0.480  12.273  0.0089 -0.1767 -0.1364
28697W        W44771  15.758  13.355  16.229 -0.0981 -0.0324 -0.0615
28698W        W44772   6.763   1.044   0.271  0.3722  0.3336  0.1909
28699W        W44773  15.521  17.369   0.981  0.2120  0.2167  0.0130
28700W        W44774   1.227   0.217   0.379  0.1392 -0.1320  0.2436
28701W        W44775   7.598   8.210  11.754 -0.2126 -0.1509 -0.2982
28702W        W44776   5.762  16.490  12.209 -0.1336  0.0226  0.2571
28703W        W44777  10.978   9.033   2.339  0.0253  0.0313  0.1738
28704W        W44778  16.069  13.760   0.056 -0.2232 -0.4187  0.1664
28705W        W44779   1.803   0.487  15.027 -0.0225  0.1301  0.0524
28706W        W44780   9.830   0.566  14.138  0.1631 -0.1556 -0.2143
28707W        W44781   5.241   1.601   2.902  0.0538  0.0792  0.1405
28708W        W44782   3.326  16.838  11.548 -0.1997 -0.0742 -0.2503
28709W        W44783  10.623  11.525   2.162  0.1076  0.2392  0.2252
28710W        W44784  11.462  10.179  16.513  0.2300  0.1580  0.0851
28711W        W44785  11.494   3.036   1.652  0.1899  0.0178 -0.2762
28712W        W44786   7.371   3.553  12.890 -0.1909  0.1486 -0.3461
28713W        W44787  12.607  12.930   3.630 -0.2640 -0.0673 -0.2574
28714W        W44788   0.328   6.015   0.395 -0.1899 -0.3288  0.0260
28715W        W44789   9.087  17.419   1.563  0.0410  0.3969  0.2176
28716W        W44790   4.528   5.266  11.199 -0.1997  0.1522  0.0907
28717W        W44791   3.388  14.488  15.105 -0.1037  0.0648 -0.2089
28718W        W44792   6.934  15.060   1.639 -0.1826 -0.0791 -0.0793
28719W        W44793  15.026   5.560   5.321 -0.3526 -0.4476 -0.1252
28720W        W44794   0.001  14.565   3.182  0.2831 -0.2775  0.0296
28721W        W44795  13.767  16.676   0.388  0.0367 -0.1301 -0.1560
28722W        W44796   2.417   9.212   2.575 -0.2201  0.1263  0.3831
28723W        W44797   5.852  10.517   4.480  0.0304 -0.0829  0.0785
28724W        W44798  13.325   4.922  15.601  0.1683  0.2006 -0.1856
28725W        W44799  15.444   4.243   1.142 -0.4908  0.0632  0.1739
28726W        W44800   3.415  12.436   1.664  0.0232  0.1798  0.0175
28727W        W44801  13.631   2.170  14.393 -0.1582  0.1449  0.1037
28728W        W44802   5.701  14.041   2.860  0.1684  0.0663 -0.1544
28729W        W44803  17.952  16.851  10.565 -0.1379 -0.1566  0.1093
28730W        W44804   9.982   5.683  15.289  0.1784  0.1812  0.2762
28731W        W44805  10.193   8.230  15.808 -0.1541 -0.0584  0.0355
28732W        W44806  10.940  11.115   2.038 -0.2320 -0.0240 -0.2460
28733W        W44807  14.601   8.075   1.336 -0.0510  0.0957 -0.1657
28734W        W44808   5.090   2.827   0.959 -0.1651  0.3027 -0.1277
28735W        W44809   5.236  11.588  13.038  0.1089  0.1838 -0.0690
28736W        W44810   0.791   0.752   4.614  0.0653 -0.2030 -0.2728
28737W        W44811  10.565   1.645   2.511 -0.0741 -0.1175  0.0263
28738W        W44812   2.747   6.385   3.116  0.0697  0.2640  0.1394
28739W        W44813   8.915   0.400   0.677 -0.2799 -0.0499  0.1244
28740W        W44814   5.854   1.231   0.159 -0.3673 -0.2163  0.0910
28741W        W44815  15.645   0.840  13.971  0.2974  0.0296 -0.4708
28742W        W44816   5.074  14.126   2.256 -0.0838 -0.1108 -0.3046
28743W        W44817  10.190   0.911  13.004  0.0201 -0.1478  0.1087
28744W        W44818  15.018   8.457   4.512 -0.1097 -0.1781 -0.0507
28745W        W44819   2.991  16.529  11.329  0.0045  0.0780 -0.0140
28746W        W44820  10.982  16.807  13.561 -0.0363 -0.2479  0.1137
28747W        W44821   2.432   1.812  13.344  0.1928 -0.3530  0.1325
28748W        W44822  11.442   5.551  13.715 -0.3133 -0.2057 -0.1172
28749W        W44823   9.765   5.358   4.615  0.0529  0.0440 -0.1597
28750W        W44824  13.520   5.769  13.127 -0.1197 -0.0324 -0.0978
28751W        W44825  14.183  14.530  12.103 -0.0840 -0.3501 -0.3748
28752W        W44826  13.632  16.941  12.384  0.1557  0.2335  0.2106
28753W        W44827  16.342  12.970   6.296 -0.5189 -0.1965  0.1464
28754W        W44828  13.303   6.114   3.895  0.3058  0.0606 -0.0101
28755W        W44829  16.581   5.842   4.667 -0.1119 -0.0737  0.2360
28756W        W44830   8.599  12.720   1.168 -0.0255  0.0264  0.0341
28757W        W44831   0.146   4.296   0.212  0.0285 -0.0638 -0.1310
28758W        W44832  13.325  14.722   0.797 -0.1397 -0.3369  0.1554
28759W        W44833   9.027   7.975   0.840  0.1246 -0.2302 -0.1005
28760W        W44834  15.004   6.240  12.560 -0.0851 -0.0961 -0.0824
28761W        W44835   7.743   1.898   0.039  0.0680 -0.0542 -0.0933
28762W        W44836   9.180   3.628  15.135 -0.0953 -0.1011  0.0019
28763W        W44837   2.572   7.448  13.728 -0.2696  0.1749  0.0419
28764W        W44838   2.146   9.368  11.443 -0.2266  0.3935 -0.1687
28765W        W44839   3.294   4.881   2.737  0.2240  0.4096 -0.0641
28766W        W44840   8.923   1.843  11.214 -0.3590  0.4480 -0.0640
28767W        W44841  10.736  17.715  15.730  0.0187 -0.0647  0.1360
28768W        W44842  14.719   3.219  11.881  0.1667 -0.3328 -0.0467
28769W        W44843  12.989   0.644  13.470  0.4058 -0.0980  0.1190
28770W        W44844  18.032   8.380  15.422 -0.0801 -0.0146 -0.0928
28771W        W44845  13.269   3.986  15.869 -0.3751 -0.1442  0.1771
28772W        W44846  15.665  17.664   5.412 -0.0064 -0.0492  0.1224
28773W        W44847  11.296   1.680   3.403 -0.0513  0.0423 -0.0628
28774W        W44848   9.203   6.161   4.276 -0.3429  0.0222 -0.0573
28775W        W44849   0.859   6.672   2.571  0.0203 -0.3480 -0.0416
28776W        W44850  16.619   9.737  13.860 -0.4420  0.2444  0.0088
28777W        W44851  12.039   3.117  11.979 -0.2675  0.3143  0.2870
28778W        W44852   8.139   9.585  16.388  0.2970 -0.1361  0.0235
28779W        W44853   2.569   1.656  14.026 -0.0898 -0.1113 -0.0490
28780W        W44854  16.363   3.019  12.058  0.1984 -0.0392  0.0961
28781W        W44855  17.737  13.390   1.610 -0.0890 -0.4422  0.1417
28782W        W44856  10.343  13.376   1.827  0.0173 -0.2664  0.0711
28783W        W44857   9.504   1.285  14.572  0.1196  0.2283 -0.1137
28784W        W44858   7.885  11.942   5.429  0.4655  0.3014  0.2168
28785W        W44859   9.189  13.131   5.005  0.2700  0.1779 -0.1388
28786W        W44860   3.855   3.971  13.167 -0.1436  0.0869  0.2706
28787W        W44861   4.713   7.044  12.882 -0.0458 -0.1058 -0.1828
28788W        W44862   0.566  11.374   5.149  0.0019 -0.0643 -0.3214
28789W        W44863   5.834  12.143   1.877 -0.1899 -0.0462 -0.2321
28790W        W44864  15.431  13.024  14.517  0.2229  0.3196  0.2163
28791W        W44865   1.860   8.228  14.620  0.0984 -0.1576 -0.0899
28792W        W44866   0.360  13.443   4.050  0.0516 -0.0021 -0.2737
28793W        W44867  18.187   9.337   1.889  0.1403 -0.0379  0.1502
28794W        W44868   3.908   2.604   1.697 -0.1717  0.0025 -0.1059
28795W        W44869  12.197   0.282  11.312 -0.4420 -0.1723 -0.0583
28796W        W44870   0.331   4.434   4.184 -0.1528 -0.2163  0.1796
28797W        W44871  11.927   7.602   3.281 -0.1039 -0.2301 -0.1168
28798W        W44872   6.915   5.910   4.316  0.2100  0.0090 -0.0119
28799W        W44873  14.089   7.433  11.528  0.0701 -0.2479  0.1401
28800W        W44874  15.918   9.088   5.585 -0.0607  0.0112 -0.0887
28801W        W44875  11.262   5.481  16.075  0.0126  0.1514 -0.4182
28802W        W44876   4.486   9.626   1.850  0.4763 -0.0722 -0.1080
28803W        W44877   3.710   0.172  16.251  0.1484 -0.0243  0.2179
28804W        W44878  13.165   4.042  12.168  0.1593 -0.0790 -0.1166
28805W        W44879   7.716  12.815   1.076 -0.1390  0.0273  0.0423
28806W        W44880  14.446   0.392  15.926 -0.1322  0.0309  0.1835
28807W        W44881  15.762   6.083   5.886  0.0376  0.1129  0.2104
28808W        W44882  17.061   4.108  13.425  0.1809 -0.3519  0.4475
28809W        W44883   6.965  16.780  15.774 -0.1889  0.0682  0.0185
28810W        W44884   5.763   9.748  11.947  0.0298  0.0254  0.3807
28811W        W44885  13.667  17.027  14.593  0.1405 -0.0037  0.0473
28812W        W44886  14.571   6.726   2.649 -0.0516  0.1039  0.0593
28813W        W44887   9.214   0.153  15.231  0.0186  0.1948  0.0237
28814W        W44888  18.008   1.406  13.763  0.0604 -0.0109 -0.2720
28815W        W44889   2.074  16.113   5.453  0.4260 -0.0032  0.1570
28816W        W44890  17.702  14.686   2.628  0.2393  0.0356  0.0575
28817W        W44891   3.999   2.252   3.305 -0.0159 -0.1349 -0.1093
28818W        W44892   3.888  12.520  15.320 -0.1152 -0.1952 -0.2096
28819W        W44893  13.454  10.996  13.262 -0.2473 -0.0659 -0.0327
28820W        W44894   8.807   8.360   4.216 -0.1851 -0.0371  0.1701
28821W        W44895  10.548   3.919   3.710  0.0634 -0.1751 -0.2418
28822W        W44896   3.589   9.283   0.206  0.1612  0.1882  0.0336
28823W        W44897  17.572  12.192  15.129 -0.0530  0.1753  0.1434
28824W        W44898  12.550  16.310   5.454 -0.3071  0.2143  0.3024
28825W        W44899  12.135  14.786   0.183  0.0461  0.1780 -0.0010
28826W        W44900   4.475  11.845   1.645  0.1121 -0.0173  0.0204
28827W        W44901  10.669   6.425   2.154 -0.4254 -0.2619 -0.3006
28828W        W44902  14.773   4.315   2.313 -0.1280  0.3638  0.0524
28829W        W44903  17.467   8.015  12.187  0.0124 -0.0505  0.2506
28830W        W44904   9.909   2.834   4.426 -0.0820 -0.0475  0.0002
28831W        W44905   7.166   7.291   0.953 -0.0392  0.0597  0.1237
28832W        W44906   8.551  11.153  12.695 -0.0631 -0.0210  0.3726
28833W        W44907  16.901   9.272  12.403  0.3854  0.3581 -0.0595
28834W        W44908  13.309   0.658  12.632 -0.0027 -0.1580  0.4343
28835W        W44909  10.580  17.086   2.316  0.1135 -0.0174 -0.2321
28836W        W44910   1.111  15.931   0.204 -0.0522 -0.2323 -0.0090
28837W        W44911   2.596   1.326   0.749 -0.1132  0.2297 -0.0492
28838W        W44912  12.124  10.617   3.014 -0.2034  0.1710 -0.2480
28839W        W44913  17.343   9.680  16.083  0.2546  0.2860 -0.0277
28840W        W44914   2.945   6.302   3.973 -0.0228  0.0295 -0.0379
28841W        W44915   2.757   4.589   4.475 -0.1136  0.0353 -0.2651
28842W        W44916  14.368  11.120   0.894 -0.0841  0.0091  0.0237
28843W        W44917  11.696  15.071   0.153  0.0305 -0.0593  0.2083
28844W        W44918   8.888   4.728  16.503  0.0622 -0.1853 -0.4864
28845W        W44919   0.790  11.812  15.588  0.0942  0.2631 -0.2373
28846W        W44920   7.035  11.675   6.074 -0.2749  0.1352 -0.0068
28847W        W44921   5.790  12.500   1.073  0.0882 -0.0815 -0.1864
28848W        W44922  16.844  11.536   5.253  0.1078 -0.2466 -0.3379
28849W        W44923   3.138  16.273   5.167  0.2380  0.1059  0.3443
28850W        W44924   7.467   8.960   0.117 -0.2411 -0.0823 -0.1378
28851W        W44925   9.575  12.204   5.015 -0.0217 -0.3195  0.1834
28852W        W44926  15.375   5.535   3.899 -0.0043  0.1924 -0.0127
28853W        W44927   6.805   1.975   0.611 -0.1087  0.0338  0.0448
28854W        W44928   3.351   0.749   5.605  0.2926  0.2894  0.0609
28855W        W44929  10.199  10.827  13.804 -0.2447  0.1489  0.0662
28856W        W44930  11.922  15.510  13.419  0.2008  0.3389  0.2420
28857W        W44931   0.941  16.206   5.387 -0.2497  0.3810 -0.2688
28858W        W44932  16.992   9.641   3.843  0.2815 -0.1819  0.0591
28859W        W44933   1.973   2.824   0.358 -0.2404  0.0876  0.1522
28860W        W44934   6.240   5.490   2.297  0.1847 -0.3139 -0.1396
28861W        W44935   9.453   1.676   4.607 -0.3041 -0.0974  0.2586
28862W        W44936  13.891   8.950   1.154  0.3924 -0.2344 -0.5244
28863W        W44937   8.785  17.335  15.090 -0.2675 -0.1674 -0.2095
28864W        W44938   5.150   6.901  14.538  0.2920  0.0434  0.5122
28865W        W44939  14.204  13.239  13.510  0.0606 -0.1000  0.0697
28866W        W44940   3.757   2.911  15.597 -0.4397  0.2165 -0.3730
28867W        W44941   2.159   7.283  14.482 -0.1386 -0.1302 -0.5017
28868W        W44942  14.382  16.524   5.530  0.0636  0.0596  0.1645
28869W        W44943  13.077  10.696  16.120  0.1335 -0.0941 -0.1492
28870W        W44944  10.396  17.316  16.167  0.1119  0.2785  0.2723
28871W        W44945  13.886  15.886  15.409 -0.1231  0.0934 -0.2103
28872W        W44946  12.345   7.288  14.980  0.0196 -0.3566 -0.1683
28873W        W44947   6.916   2.379   1.447 -0.4256 -0.1169 -0.3062
28874W        W44948  17.320   6.562   0.121  0.1818 -0.0698  0.0570
28875W        W44949  10.753   5.506  15.965 -0.2577  0.3588 -0.2877
28876W        W44950  10.335   0.925   4.094  0.2189 -0.0680 -0.0333
28877W        W44951   3.213   5.361  13.545  0.2281 -0.1904 -0.5007
28878W        W44952   5.788  15.020   4.330 -0.3834 -0.2548 -0.0567
28879W        W44953   0.419  14.855  12.003 -0.0090 -0.2049  0.2148
28880W        W44954   7.370   6.717  15.764  0.0246  0.1830  0.1156
28881W        W44955   2.745  13.894  13.785 -0.2217  0.1537 -0.2316
28882W        W44956  12.629   3.623  14.588 -0.3224 -0.0599  0.0337
28883W        W44957  12.810  16.240   4.002  0.2280  0.3322 -0.2936
28884W        W44958  11.082   0.278   2.824  0.0398  0.0422  0.1290
28885W        W44959  12.112   0.280   1.877  0.1371 -0.1931  0.1424
28886W        W44960   0.456  13.194   0.820 -0.3797  0.4366 -0.0096
28887W        W44961  18.020   1.788   3.763 -0.4195 -0.0020 -0.1173
28888W        W44962   8.100  11.531  14.005 -0.1977  0.2469 -0.4413
28889W        W44963  15.603   1.869  12.920 -0.0905  0.2171  0.1198
28890W        W44964   1.439   7.951   1.551  0.1772  0.1444  0.1219
28891W        W44965   2.944   8.759  15.464 -0.0234  0.0674 -0.0539
28892W        W44966  17.772  11.119  15.059 -0.1832  0.2690 -0.0001
28893W        W44967  11.381   1.058   5.499  0.3133 -0.2282 -0.0147
28894W        W44968  13.715   2.843  15.316  0.4561  0.1257 -0.1393
28895W        W44969  12.295  10.018  11.345 -0.0278 -0.0962  0.0675
28896W        W44970  12.359   5.951   5.951  0.1478  0.0282  0.0422
28897W        W44971   8.062   9.137   1.505  0.0154  0.0938 -0.0405
28898W        W44972  11.975  17.200   3.818 -0.2102 -0.2641  0.1587
28899W        W44973  18.097  16.710   5.835  0.4367 -0.0457 -0.1356
28900W        W44974   1.018   6.778   0.938 -0.1425  0.0067  0.2505
28901W        W44975   2.296  14.873   2.535  0.1178 -0.0780  0.0838
28902W        W44976  16.075  12.153  12.120  0.0490 -0.0394  0.1715
28903W        W44977   3.456   3.823   1.056  0.2794 -0.2705  0.1149
28904W        W44978   3.832  10.226  13.797 -0.3481  0.2267  0.4918
28905W        W44979   4.457  17.684  11.460  0.1665  0.0767  0.1444
28906W        W44980   3.570   9.254  14.207  0.0525 -0.3178 -0.4653
28907W        W44981  11.736  11.688   0.742 -0.0067 -0.2372  0.0317
28908W        W44982  17.196  10.356   6.130  0.1178  0.2949 -0.2179
28909W        W44983   7.576   1.190  13.480 -0.3591  0.0394 -0.1632
28910W        W44984  16.688  14.817  15.518  0.1819  0.1233  0.2255
28911W        W44985   0.456  17.238   3.794  0.0186 -0.0712 -0.1847
28912W        W44986   9.907   4.737   2.647  0.4119 -0.1565  0.1236
28913W        W44987  14.815   4.200  14.523  0.0106  0.0401 -0.0563
28914W        W44988  17.761  14.994   0.887 -0.0006 -0.0742 -0.0414
28915W        W44989   5.148   8.880   0.152  0.1626 -0.4819 -0.4088
28916W        W44990  12.219  10.124  14.329 -0.1004  0.0998 -0.0025
28917W        W44991  10.822   4.924   6.085 -0.0094 -0.0027  0.1595
28918W        W44992  15.615   2.322   2.491  0.0324 -0.1664 -0.2136
28919W        W44993   2.542   1.570  11.841  0.0036 -0.1911 -0.0720
28920W        W44994  11.721  17.408   2.857  0.0095  0.1662 -0.1519
28921W        W44995  12.684   0.961   2.795  0.2764 -0.0838 -0.0985
28922W        W44996  10.008  10.805  11.740  0.0368  0.1342  0.0104
28923W        W44997   7.817   3.078  15.392 -0.0018 -0.3665  0.0344
28924W        W44998  12.471   9.033  16.477 -0.1997 -0.0444 -0.0993
28925W        W44999  13.257  15.652   0.659 -0.1218  0.1663  0.2397
28926W        W45000   3.065   4.125  12.491 -0.0194 -0.2163 -0.2759
28927W        W45001  17.783   3.263  16.134 -0.1289 -0.2386 -0.0427
28928W        W45002   3.781   0.783  11.208  0.0327 -0.0829  0.3060
28929W        W45003   3.951   3.242  15.082  0.1122 -0.0857 -0.0234
28930W        W45004  17.064  10.813   1.531  0.2264  0.1170 -0.4762
28931W        W45005   7.547   7.428   4.585 -0.0923 -0.1572  0.2670
28932W        W45006   9.467   5.593   4.186 -0.0856 -0.1701 -0.1490
28933W        W45007  14.734   4.457  13.392  0.0819  0.1842 -0.0065
28934W        W45008   9.205   8.037   0.272 -0.0873 -0.1856 -0.0174
28935W        W45009   7.256  10.001   2.113  0.0236  0.1577  0.3820
28936W        W45010  16.572   5.589  12.059  0.2712 -0.0671  0.2052
28937W        W45011   4.186   9.788   5.056  0.1576  0.0435 -0.0227
28938W        W45012   2.481   7.772   4.970 -0.1742  0.0128 -0.0596
28939W        W45013  11.416  10.747  16.262  0.2431  0.7132  0.3071
28940W        W45014  16.901  17.442  13.976  0.3672 -0.2020  0.1094
28941W        W45015  14.380  17.780   3.945 -0.0906 -0.0883 -0.0099
28942W        W45016  17.905  10.993   0.472 -0.1181 -0.0595  0.2751
28943W        W45017  14.672   5.596   4.427 -0.2480  0.0123  0.0627
28944W        W45018  11.030   2.155  14.715  0.2698 -0.0741  0.1380
28945W        W45019   2.229   0.517   0.560 -0.1471 -0.1381 -0.1504
28946W        W45020   9.090  10.276   3.557 -0.2222 -0.0072 -0.1614
28947W        W45021   0.662  12.210   1.614  0.0231 -0.0774  0.3252
28948W        W45022   0.638   9.565   1.266 -0.1323 -0.1218 -0.0457
28949W        W45023   7.780   4.931   0.581 -0.2102 -0.2965 -0.0861
28950W        W45024   8.342   1.118   5.438  0.0208 -0.2004 -0.0518
28951W        W45025   2.258   4.802   2.899  0.2504  0.0752  0.1815
28952W        W45026   5.780  10.453  12.853 -0.2580 -0.1438 -0.0414
28953W        W45027   9.794  11.165  13.836 -0.1534 -0.2509  0.0744
28954W        W45028   3.552  16.367   3.889  0.0089 -0.0248  0.1774
28955W        W45029  10.943   6.571   1.773 -0.1530  0.0774  0.0941
28956W        W45030   5.726  14.799  14.599  0.2748  0.0133 -0.2374
28957W        W45031  17.482  15.957   6.209  0.3139  0.0344 -0.3353
28958W        W45032  18.107   7.939   1.214 -0.1336 -0.2270  0.0430
28959W        W45033  15.552   1.087  12.993  0.2523  0.0568 -0.2905
28960W        W45034  10.070  12.675  15.370 -0.4463 -0.3658  0.1762
28961W        W45035   2.228   0.728   3.116 -0.0756  0.2686  0.0017
28962W        W45036  16.437   4.679   3.672  0.2482 -0.1395  0.0639
28963W        W45037   9.726   1.633  16.219  0.2319 -0.0865 -0.1443
28964W        W45038   2.924   3.550  10.864  0.1786  0.3594 -0.0447
28965W        W45039   2.546  14.255  12.814 -0.0990  0.1075 -0.1581
28966W        W45040  13.893   5.306   5.157  0.0972 -0.0149  0.1898
28967W        W45041   5.025  10.938   3.776 -0.2531 -0.1915  0.0670
28968W        W45042  13.730   2.579  15.788 -0.3586  0.2117 -0.4696
28969W        W45043  14.248  17.148   3.297 -0.0072  0.0068 -0.5055
28970W        W45044  10.734  10.868   5.306 -0.2100 -0.0143  0.5187
28971W        W45045   4.393  10.413  15.237 -0.3141  0.1321  0.1689
28972W        W45046   3.253  17.173  15.759 -0.1494  0.2178 -0.2449
28973W        W45047  17.436   8.630   1.101  0.1297 -0.2400 -0.0529
28974W        W45048  10.195  12.673  12.513  0.1084  0.1592  0.0249
28975W        W45049   6.089   1.313   3.264 -0.1499  0.1657 -0.1411
28976W        W45050   8.121  12.983   1.377  0.0045  0.2029 -0.1832
28977W        W45051  13.539   3.827   0.210 -0.0606  0.1593  0.1401
28978W        W45052  11.375   0.715   5.826  0.4311 -0.2143 -0.1637
28979W        W45053  12.126  16.790  11.615  0.2349 -0.0212  0.1180
28980W        W45054  16.221   4.901  11.965  0.2211  0.4118 -0.2371
28981W        W45055   4.968   0.964  12.803 -0.0285 -0.1930  0.4787
28982W        W45056  15.618   4.219  13.698 -0.3869  0.2746  0.1522
28983W        W45057   9.587  17.655   0.722 -0.1738  0.1236  0.3217
28984W        W45058  16.732  11.991  14.879  0.2634  0.1479 -0.0173
28985W        W45059  17.315   6.038  13.221  0.0959 -0.0730 -0.2580
28986W        W45060  12.201   2.213  13.052  0.0091 -0.0083  0.0519
28987W        W45061   4.934   4.441   2.180  0.1477  0.4544  0.0440
28988W        W45062   7.639   8.192   5.118  0.2865  0.1767  0.0536
28989W        W45063   8.854   8.905  12.838  0.0023  0.0462  0.0886
28990W        W45064  14.959   7.808  13.144  0.0800  0.0974 -0.1823
28991W        W45065   7.601  16.189  14.546  0.1301 -0.2278 -0.2127
28992W        W45066   5.591   3.193  12.397 -0.6172 -0.1621 -0.0942
28993W        W45067   8.935   5.428   3.428  0.0600  0.1930  0.2274
28994W        W45068  13.972  16.351  16.057  0.2208 -0.0384  0.2081
28995W        W45069  15.807  16.483   0.118  0.1728  0.0219 -0.0167
28996W        W45070   8.789   3.666  13.839  0.1933  0.2298 -0.0637
28997W        W45071  14.347  14.046   0.852 -0.0971 -0.3748  0.1219
28998W        W45072  13.781  17.866   0.420  0.0131  0.2151  0.2063
28999W        W45073   3.033   6.623   3.591 -0.4128 -0.1581  0.1868
29000W        W45074  14.144   5.296  11.699  0.0775  0.0704 -0.0159
29001W        W45075   2.238   8.538  14.511 -0.0028 -0.0814  0.0420
29002W        W45076  15.290   7.636   2.951 -0.0025  0.1713 -0.1026
29003W        W45077  11.113   2.639  13.300 -0.0347 -0.3194  0.0009
29004W        W45078  17.684  17.264  15.741  0.0447 -0.1233  0.1376
29005W        W45079  16.296  15.744  15.027 -0.1178  0.3889  0.1381
29006W        W45080   5.844   9.356  12.908 -0.1192 -0.1684 -0.1165
29007W        W45081  13.602   1.916  13.159 -0.1690  0.2778 -0.0562
29008W        W45082  16.019  14.954   3.113 -0.3816  0.1024 -0.1846
29009W        W45083  13.925   6.017   3.183 -0.1350 -0.3310  0.1154
29010W        W45084   0.832  10.012   2.665 -0.2278 -0.1195  0.0977
29011W        W45085   2.858  12.436   3.717  0.1991  0.0570 -0.0855
29012W        W45086   9.346   5.902  16.274  0.0787  0.0163 -0.1528
29013W        W45087   7.432   8.754  13.378 -0.1024 -0.1712  0.4333
29014W        W45088   0.909  11.354   0.909  0.0620  0.1928 -0.0393
29015W        W45089   6.300  15.174  15.215 -0.0129 -0.0488 -0.1192
29016W        W45090   4.133  14.760   3.050 -0.0283  0.2885 -0.1030
29017W        W45091  15.909   0.822  12.065  0.0039 -0.0671 -0.1352
29018W        W45092   0.589   3.178   2.501  0.0355  0.0666  0.2013
29019W        W45093   6.462  13.360   1.703  0.1651  0.2188 -0.3650
29020W        W45094  15.540   4.304  15.433 -0.2041 -0.0194 -0.5032
29021W        W45095   5.687  13.083   1.985  0.0547  0.2517  0.0072
29022W        W45096   8.823  17.414   5.295  0.1594 -0.0938  0.0448
29023W        W45097  11.093   8.790   4.553  0.0746  0.1344  0.0177
29024W        W45098   1.546  14.015   5.127 -0.1808  0.2055 -0.0764
29025W        W45099  15.329   4.758   4.513 -0.2466 -0.1543  0.1177
29026W        W45100   3.789  11.174   4.897 -0.3535  0.2981 -0.0826
29027W        W45101   9.776   4.041   0.938  0.0678 -0.0610  0.1242
29028W        W45102   3.969   9.953   3.193  0.0377 -0.1788 -0.0747
29029W        W45103  12.535   5.297   4.901  0.2264  0.0469 -0.2016
29030W        W45104   4.198  10.863   3.860 -0.3225  0.2118 -0.0500
29031W        W45105   9.126  11.250   5.822 -0.4195 -0.0995  0.2599
29032W        W45106  14.964  10.742  12.317  0.0952 -0.0320 -0.2288
29033W        W45107  12.039  13.503  13.932  0.2266 -0.0184  0.2708
29034W        W45108  16.051   3.563  11.896  0.3634  0.1413 -0.3716
29035W        W45109  17.869   4.744   2.937  0.0426  0.0535  0.0214
29036W        W45110   8.426  10.505  14.594  0.0363 -0.1346 -0.1089
29037W        W45111  10.522   3.091  10.392 -0.3356  0.1217 -0.4681
29038W        W45112   6.911  13.150   2.885 -0.1750 -0.0599 -0.1581
29039W        W45113  18.018   7.275  11.992 -0.2675  0.0227  0.2763
29040W        W45114  16.787   6.337   4.653 -0.1102 -0.2665  0.1729
29041W        W45115   5.515   2.422  14.222 -0.1035  0.0706  0.0387
29042W        W45116   7.174  12.375  12.710  0.0330 -0.0378  0.1658
29043W        W45117   1.774  11.841   2.073 -0.2823  0.0971 -0.1430
29044W        W45118  14.166  13.664  16.368  0.0215 -0.1234 -0.2203
29045W        W45119   5.615   8.021  15.627  0.1814 -0.0116 -0.0766
29046W        W45120   1.047   0.860  11.242  0.0177  0.2145 -0.1436
29047W        W45121  10.329   6.149   0.070  0.2980  0.2586  0.1151
29048W        W45122   6.796   3.645  12.731 -0.1546 -0.0805  0.1727
29049W        W45123   3.041   0.628   0.230  0.1044  0.0695 -0.2038
29050W        W45124   9.143   8.333  15.949  0.0755 -0.0724 -0.1934
29051W        W45125   4.104  10.052  15.983  0.0730 -0.1300 -0.1557
29052W        W45126  17.165   5.004   5.486  0.0111  0.1954 -0.1367
29053W        W45127  17.870  10.217   1.621  0.2381  0.2111 -0.2193
29054W        W45128  13.722   0.384  13.952  0.1099  0.0669  0.0161
29055W        W45129   4.287   5.305   4.669  0.1157  0.1463 -0.0544
29056W        W45130   0.952  14.028   5.627 -0.3228 -0.1123 -0.0983
29057W        W45131  16.427   8.466   3.201  0.1861 -0.2529 -0.0518
29058W        W45132  16.292  16.671   2.763  0.0651  0.1138  0.1866
29059W        W45133   5.179   9.862  15.542 -0.0374 -0.2214 -0.0693
29060W        W45134  17.740   7.724  11.326 -0.1031 -0.2615  0.1595
29061W        W45135  15.810   9.567   4.376 -0.0605 -0.3288 -0.2933
29062W        W45136   9.839   4.427  14.453 -0.0273  0.0727 -0.2816
29063W        W45137  13.570   9.230  13.298  0.0104  0.0359 -0.1085
29064W        W45138   4.486  12.153  11.752  0.2932  0.1652 -0.0742
29065W        W45139   4.385  15.790  11.438 -0.1741 -0.2847 -0.2021
29066W        W45140  16.485  15.944   4.198  0.1227  0.2129  0.0275
29067W        W45141   4.174   3.642  12.784  0.0620  0.0975  0.0804
29068W        W45142   2.536  10.893  15.313 -0.3100 -0.2575  0.0444
29069W        W45143   3.819  11.556   0.963 -0.0207  0.1150  0.1202
29070W        W45144  16.491   7.731   4.974  0.0977  0.0778 -0.0482
29071W        W45145  17.706   5.339  11.020  0.1176  0.2758  0.2729
29072W        W45146   3.822   7.403  11.690  0.1279 -0.0189 -0.1750
29073W        W45147   9.801  15.218  16.448  0.2515  0.0312  0.1614
29074W        W45148   7.223  13.711  16.545  0.0200  0.3689 -0.0713
29075W        W45149   7.571  11.166  16.132  0.1579  0.3216  0.1742
29076W        W45150  10.715  15.778   0.930  0.0563 -0.1522  0.1219
29077W        W45151   7.111   8.212  12.029 -0.2574 -0.0466 -0.0012
29078W        W45152   8.289   7.206   5.685  0.0064 -0.0681  0.4245
29079W        W45153  16.247   4.376  12.868  0.0728 -0.1404 -0.0394
29080W        W45154   7.517  14.375  16.243 -0.1562  0.2818  0.2267
29081W        W45155   4.514   4.481   1.198  0.2401  0.2234 -0.0346
29082W        W45156  11.496  13.783  11.629 -0.1940  0.0751 -0.0973
29083W        W45157  11.498  12.908   3.944  0.0546  0.0111  0.1880
29084W        W45158  11.023   0.908  13.357  0.2079 -0.2366  0.1424
29085W        W45159   4.047  15.983  16.113 -0.0083 -0.1355 -0.2994
29086W        W45160   5.969   8.463   2.154 -0.0183 -0.1286 -0.0414
29087W        W45161  10.078   4.773  16.076 -0.0709  0.3674  0.2051
29088W        W45162   9.980   6.723   4.616  0.2330 -0.1235 -0.1310
29089W        W45163   1.252  17.288  15.453 -0.3236  0.0058 -0.1240
29090W        W45164   6.006   2.500   1.587 -0.0499 -0.0879 -0.2521
29091W        W45165   8.574   7.420  14.230 -0.0656  0.1835  0.1229
29092W        W45166   5.042   7.594   5.162  0.1981  0.2904  0.0463
29093W        W45167  13.922   5.475  12.125 -0.6661 -0.1037  0.1561
29094W        W45168   8.535   4.155  11.083  0.0920  0.2703  0.4104
29095W        W45169  15.116   9.641  11.608 -0.1591  0.3137 -0.2211
29096W        W45170   8.952   3.151  14.789 -0.1128 -0.4698  0.2558
29097W        W45171  17.407   0.256   4.771 -0.0802  0.2838  0.0090
29098W        W45172   4.321  11.924   2.187  0.2942 -0.1612 -0.1852
29099W        W45173   3.043   5.876  14.320 -0.0424  0.1274  0.0672
29100W        W45174  10.533   1.926   1.163  0.3171 -0.0768 -0.2493
29101W        W45175   0.973   7.629  11.836 -0.1199 -0.1230 -0.0366
29102W        W45176   7.720  12.246   0.210  0.2853  0.3577  0.2207
29103W        W45177   2.629  17.890   2.808  0.6173  0.0522  0.0799
29104W        W45178   2.832   6.913  14.357  0.0461 -0.0399  0.4317
29105W        W45179   6.662  13.749  15.693  0.0381  0.3406  0.1078
29106W        W45180   9.169   2.182   4.830 -0.0906 -0.1001 -0.0196
29107W        W45181  16.010   9.470  15.632 -0.2393  0.0561  0.1772
29108W        W45182  11.472   5.525   5.166  0.4306  0.1718  0.0166
29109W        W45183  17.507  15.272   3.508  0.0222  0.0112  0.0774
29110W        W45184   4.886  17.493   4.560 -0.1655  0.3896 -0.0449
29111W        W45185   7.346   5.570   1.621  0.2613 -0.0168 -0.2337
29112W        W45186   8.976   1.568   2.647  0.2583  0.2623 -0.0083
29113W        W45187   6.753  14.275  12.201  0.1075  0.1426  0.0348
29114W        W45188   8.892  11.312  13.699  0.1078 -0.2309 -0.1089
29115W        W45189   8.730   1.987   5.734  0.0393  0.0232  0.2542
29116W        W45190   3.317   7.902  12.605  0.4889 -0.2220 -0.3392
29117W        W45191  16.147   9.327  15.118  0.1435  0.0112  0.0120
29118W        W45192  13.595   3.384  13.867 -0.2137 -0.2619  0.1707
29119W        W45193   6.433  12.214  13.271 -0.0562  0.1007 -0.0721
29120W        W45194   5.249   3.577   2.236  0.1073 -0.3092  0.1110
29121W        W45195  10.241   4.311  13.676 -0.1612 -0.0259  0.1780
29122W        W45196   5.815   2.549  13.865 -0.0652 -0.0514  0.1531
29123W        W45197  16.781  11.872   5.699  0.0793  0.1812  0.0168
29124W        W45198  12.156   9.926  13.034  0.1848 -0.1464  0.0415
29125W        W45199   4.461   3.139   2.519  0.2723  0.1947 -0.0530
29126W        W45200   7.275  14.489   4.263 -0.2321  0.1815  0.0663
29127W        W45201   3.640  10.882   1.652  0.2212  0.2224  0.0009
29128W        W45202   6.196  10.368  14.502  0.3318  0.1867 -0.0023
29129W        W45203   2.164  12.319  14.567  0.2103 -0.0206 -0.1948
29130W        W45204  17.782   7.262  13.361  0.0927 -0.2167 -0.0143
29131W        W45205   8.759   9.633   2.972  0.2007  0.1035  0.3054
29132W        W45206  17.352  14.709   4.316  0.0595 -0.2091  0.0408
29133W        W45207   0.400  10.598   0.978  0.0297 -0.1404 -0.2466
29134W        W45208   6.286  14.100  15.664  0.2568  0.0144  0.1265
29135W        W45209  12.728  16.143  13.296 -0.2102 -0.0960 -0.0168
29136W        W45210  18.024   2.061   2.132  0.1214  0.2208  0.1247
29137W        W45211  15.132  12.893   1.639 -0.2293 -0.2464 -0.3123
29138W        W45212   9.280   8.815  14.946 -0.2549  0.1378 -0.1008
29139W        W45213  13.192   6.437   5.680  0.0377  0.2516  0.1529
29140W        W45214  11.995  15.630   2.693 -0.0444 -0.0011  0.0195
29141W        W45215  12.198   3.870  12.991  0.0098 -0.0110 -0.2393
29142W        W45216   2.886   0.134   3.503 -0.2716 -0.0273  0.4274
29143W        W45217   0.268   9.677   1.543  0.0397  0.0791  0.1184
29144W        W45218  16.037   8.730  13.555  0.1665  0.1152 -0.0120
29145W        W45219   5.000  10.483  14.351 -0.1095  0.1263 -0.3164
29146W        W45220   6.705  17.593  15.545  0.0482 -0.1224 -0.2742
29147W        W45221   0.107  11.535  16.268  0.0316  0.0317  0.0689
29148W        W45222   7.499   3.918  12.596  0.1178 -0.0971  0.2158
29149W        W45223  17.316  16.693   1.471  0.1046  0.3229  0.1981
29150W        W45224  10.100   4.105   1.402 -0.0396  0.2060 -0.1358
29151W        W45225  13.360  15.276  13.442 -0.1970  0.2807 -0.1808
29152W        W45226  13.342   7.020  11.726  0.2666 -0.0358  0.0668
29153W        W45227   0.875   6.128   4.331 -0.0158 -0.0557  0.2806
29154W        W45228   6.420  15.458  14.288 -0.2923  0.2867 -0.2046
29155W        W45229   2.687  13.037  15.424 -0.2422  0.0696  0.1848
29156W        W45230   0.799   2.738   3.859  0.0635 -0.1214 -0.1348
29157W        W45231  16.886   5.263  16.017  0.2126  0.2311 -0.0432
29158W        W45232   4.651   0.837  16.355  0.0662  0.4599  0.3299
29159W        W45233   8.613  10.052   0.550 -0.0942 -0.1689 -0.1903
29160W        W45234  15.032  10.118  12.913 -0.1076  0.2109  0.1140
29161W        W45235   4.711   5.765  11.453  0.2679  0.1505  0.1370
29162W        W45236  16.503   6.952   1.660  0.2726  0.2430 -0.2053
29163W        W45237   4.505  12.974   2.072 -0.1708 -0.0895 -0.0249
29164W        W45238  11.408   5.356  15.609  0.2845 -0.2943  0.4215
29165W        W45239   5.762  16.357  13.196  0.1539 -0.1587  0.3922
29166W        W45240   3.868  16.828  14.206 -0.0803  0.0579  0.3521
29167W        W45241  14.747   2.399   0.876  0.1095  0.2281  0.1841
29168W        W45242  13.382  10.096   2.595  0.0346  0.1664  0.0807
29169W        W45243   5.112  10.903  10.407  0.2260 -0.1375 -0.2968
29170W        W45244  10.336   8.954   5.615 -0.3152  0.4702 -0.2934
29171W        W45245   7.595  13.416   0.244  0.0149 -0.2134  0.3100
29172W        W45246   1.765   9.771  12.823  0.1737  0.0341  0.0561
29173W        W45247  14.393  10.207   0.542  0.0759  0.3451  0.3120
29174W        W45248  17.031  11.322  11.415  0.1844 -0.0222 -0.0210
29175W        W45249  18.106  12.278   0.248 -0.0831  0.1254  0.1170
29176W        W45250  13.868   9.495  13.636 -0.2014  0.1397  0.0828
29177W        W45251   8.539   0.747  15.348  0.0793 -0.0273 -0.3538
29178W        W45252   4.310   3.269  11.667  0.0698 -0.2569 -0.0764
29179W        W45253  13.990  12.844   0.141 -0.1120 -0.0574 -0.2764
29180W        W45254  17.470   4.695   2.648  0.0421 -0.1528 -0.0952
29181W        W45255   0.930   7.932   3.356  0.0335 -0.1998  0.1147
29182W        W45256   2.600  16.106   5.218 -0.1708 -0.1280  0.3147
29183W        W45257   8.739  17.083  12.743  0.0152 -0.1960  0.1415
29184W        W45258  13.832   5.563  10.559 -0.1110  0.1038  0.2555
29185W        W45259   9.334  10.434  12.724  0.1756 -0.1017 -0.1408
29186W        W45260  15.432  16.464   1.394 -0.0063  0.2595  0.0467
29187W        W45261   2.038  10.717   4.069  0.2630  0.0604  0.0172
29188W        W45262  10.792   8.908   1.539 -0.1591 -0.0216 -0.0239
29189W        W45263  12.661  14.556  11.771  0.2250 -0.1476 -0.0359
29190W        W45264   5.372  10.627  13.151  0.1534  0.3538  0.2241
29191W        W45265   7.497   6.610  13.801 -0.1180  0.3116  0.1314
29192W        W45266   1.897  14.832  11.748 -0.1384  0.1488  0.0391
29193W        W45267  17.998  17.754   0.926  0.0288 -0.0579  0.1968
29194W        W45268  11.720   2.437  15.611  0.0652 -0.0606 -0.2912
29195W        W45269   6.679  17.926  14.628 -0.2243  0.1217 -0.2290
29196W        W45270   5.689  17.263  13.058 -0.2491 -0.2884 -0.2204
29197W        W45271   5.296   1.874   4.961  0.2778  0.2303 -0.1173
29198W        W45272   8.774  10.986   5.416  0.0144  0.1653 -0.0777
29199W        W45273   2.556  12.307   4.130  0.1377 -0.0499  0.1024
29200W        W45274  15.836   5.308   5.068  0.0358  0.0760  0.2442
29201W        W45275   6.904   6.984  14.481 -0.0611 -0.0253  0.0583
29202W        W45276  13.565  11.200  14.266 -0.0958  0.2474  0.0724
29203W        W45277   2.271  13.322  16.013 -0.1362 -0.1687 -0.1989
29204W        W45278   6.427  14.463   3.861 -0.0903 -0.2142  0.0902
29205W        W45279   3.772  12.684  10.221  0.0091  0.2255  0.0350
29206W        W45280   3.003  12.719  15.850  0.0721  0.1285 -0.0310
29207W        W45281  15.954  16.238   3.548 -0.5053 -0.0683  0.1392
29208W        W45282   9.560  11.280   5.382  0.1188  0.0558 -0.0652
29209W        W45283  17.898  14.054  11.741  0.3764  0.0097  0.1804
29210W        W45284   3.125  13.350   5.681 -0.1268  0.1114 -0.1202
29211W        W45285  11.346   4.059   5.848 -0.1959  0.2447 -0.1108
29212W        W45286   8.522   0.199   3.204 -0.0605 -0.2252  0.3815
29213W        W45287   1.445  16.456   0.045  0.2486 -0.1435  0.1579
29214W        W45288  16.455  14.990   2.637  0.0209  0.0585 -0.0837
29215W        W45289   8.956   8.090  14.508 -0.2873 -0.2541  0.1528
29216W        W45290   8.319   7.021   2.188 -0.0863  0.2775  0.1861
29217W        W45291   5.928   7.044   1.477  0.1177  0.3581  0.0395
29218W        W45292   4.792  14.066   1.322 -0.1901 -0.2904  0.0462
29219W        W45293   8.900  16.708   4.658  0.1033  0.1859  0.0884
29220W        W45294  11.190   0.817  14.483  0.0521 -0.2290  0.1217
29221W        W45295  13.775   3.132   3.117 -0.1367 -0.2444 -0.2425
29222W        W45296  12.206   4.185   0.144 -0.0065 -0.1942 -0.2602
29223W        W45297  18.048  17.736  13.304 -0.1523  0.0246 -0.0548
29224W        W45298  10.812   0.038   4.040 -0.1233 -0.0063 -0.2114
29225W        W45299  12.048   6.284   5.108  0.0140  0.3491 -0.0650
29226W        W45300  17.782  16.735  13.788 -0.4749  0.0432  0.0585
29227W        W45301  15.867  16.689   0.585 -0.1121  0.1308 -0.2115
29228W        W45302   7.993   8.176  16.086  0.0443  0.0876 -0.0282
29229W        W45303  16.048  11.156  13.850  0.0097  0.0531  0.2813
29230W        W45304  16.773   6.730  12.305  0.3604  0.0550  0.2321
29231W        W45305   2.357  16.303   3.760 -0.0501  0.1899 -0.3394
29232W        W45306   9.684  12.885   5.282  0.1969 -0.1068 -0.3092
29233W        W45307   6.068  15.937   3.918  0.1440 -0.0178 -0.0502
29234W        W45308  17.721  14.259  12.493  0.0148  0.2613  0.1889
29235W        W45309  10.855   0.231  12.567 -0.1806 -0.0655 -0.0245
29236W        W45310   8.385  12.767   4.360  0.0158  0.1356 -0.0329
29237W        W45311   5.641  15.783   5.009 -0.3565 -0.0609  0.0742
29238W        W45312   3.471  15.811   2.599  0.0895  0.2579 -0.2652
29239W        W45313   0.759   4.476   1.472  0.0592  0.1669  0.0567
29240W        W45314   3.114  11.917   4.910  0.1897 -0.1926  0.1602
29241W        W45315   3.202   0.854  11.906 -0.0148  0.0667  0.1286
29242W        W45316   6.742   0.583  16.225  0.0335 -0.0329  0.1205
29243W        W45317  17.058   0.750   3.349 -0.2920 -0.1127 -0.1603
29244W        W45318   5.895  12.147  14.160 -0.3374 -0.0328 -0.1010
29245W        W45319  11.922   2.365   2.623 -0.5694 -0.1724 -0.0764
29246W        W45320  16.674  11.759  12.970  0.0956  0.0146 -0.1985
29247W        W45321   5.029  15.073   4.663  0.0881 -0.1305 -0.0507
29248W        W45322   8.396  12.509   1.556  0.0017  0.0154 -0.2126
29249W        W45323  12.618   1.388   0.162  0.3706 -0.0807  0.1400
29250W        W45324   7.405   8.030   2.466 -0.3125  0.2347 -0.4682
29251W        W45325   1.777   5.858   1.126 -0.2218 -0.0698 -0.2291
29252W        W45326   5.547  16.450   0.913  0.1312  0.0611  0.0631
29253W        W45327   8.211  12.193  15.519 -0.1370  0.3952  0.2361
29254W        W45328  15.258  18.145   4.155 -0.2540  0.0974  0.0508
29255W        W45329   0.305   1.227  11.497 -0.3021 -0.1712  0.2448
29256W        W45330  14.908   5.349   1.562 -0.1727  0.2139  0.2597
29257W        W45331   8.511  16.289   6.107 -0.2756  0.0608  0.1216
29258W        W45332  11.927  12.291   2.371 -0.0728  0.2576  0.1463
29259W        W45333   2.396   7.285  11.218 -0.2039 -0.2707 -0.3057
29260W        W45334   4.730  13.185  16.547  0.2715  0.1574 -0.0071
29261W        W45335   1.186   2.441   0.370 -0.1522  0.0953 -0.0290
29262W        W45336   0.123   7.176  14.384  0.0578 -0.2551  0.0851
29263W        W45337  13.771  10.293  15.810 -0.0632 -0.1023 -0.0640
29264W        W45338   5.147   6.825  13.905 -0.1017  0.2790  0.3105
29265W        W45339  16.645   4.419  14.605  0.5478  0.0847  0.1095
29266W        W45340  13.582  18.000   2.909 -0.0050  0.1288  0.1227
29267W        W45341  10.188  10.589   2.178  0.2650  0.0224  0.1219
29268W        W45342  15.253   7.625   4.724 -0.2404 -0.0473 -0.0297
29269W        W45343   8.618  12.319  15.909  0.0434 -0.0116  0.3626
29270W        W45344   5.243   7.624   4.142  0.2062 -0.2111 -0.1918
29271W        W45345   7.773  11.740  11.430  0.1996  0.0767 -0.0700
29272W        W45346   0.042   5.299   5.058  0.1321  0.1673 -0.0237
29273W        W45347   8.432   3.897   5.949 -0.2060  0.0033 -0.0446
29274W        W45348  15.396  13.121  13.560 -0.2249  0.4590  0.2692
29275W        W45349  16.295   7.176  13.125 -0.0506 -0.1276  0.3504
29276W        W45350   7.283   0.730  15.628  0.1994 -0.1322  0.1164
29277W        W45351   7.590  10.150   5.660  0.2907  0.0881 -0.1890
29278W        W45352   4.050   4.298  11.913 -0.1069  0.1621  0.0713
29279W        W45353  17.468  10.709  14.955  0.1980 -0.1736  0.2387
29280W        W45354   4.312  17.421   0.977  0.1865  0.0940 -0.1650
29281W        W45355   4.834   9.717  16.485 -0.1755  0.2058  0.3445
29282W        W45356   7.016   7.918  12.891  0.3104 -0.2536  0.1348
29283W        W45357   5.568  12.601   4.449  0.0585  0.4510 -0.0968
29284W        W45358   8.071  14.457  12.384 -0.0491 -0.5463 -0.1053
29285W        W45359  15.987  13.554   3.781  0.2228 -0.1021  0.0519
29286W        W45360  13.144  15.708  16.302 -0.4867  0.0249 -0.1338
29287W        W45361  15.213   6.843   1.871 -0.1473  0.1764  0.1021
29288W        W45362  16.914  16.237  11.618 -0.2279  0.0220 -0.1257
29289W        W45363  12.703   6.685   2.075  0.1653  0.0251  0.4619
29290W        W45364  13.813   1.498  12.734  0.0379  0.1195 -0.0682
29291W        W45365   5.988   1.984  11.803  0.0479 -0.2152 -0.2872
29292W        W45366  16.826  11.429  15.067 -0.1364  0.0047 -0.1676
29293W        W45367   6.098  13.413   1.312  0.3134 -0.2155 -0.1533
29294W        W45368   8.353  11.837  11.970 -0.3417  0.0055  0.0135
29295W        W45369   9.356  12.891   1.921 -0.2319  0.1489  0.2011
29296W        W45370   0.480  10.544  10.707  0.3707 -0.0882  0.1731
29297W        W45371   8.124  11.753   4.928  0.3384  0.2668 -0.2841
29298W        W45372   9.439   5.593   3.299 -0.0014 -0.0875 -0.0414
29299W        W45373   7.014   9.899   2.907  0.2818  0.2888 -0.0901
29300W        W45374   0.904  11.260  14.716 -0.1898 -0.2857 -0.3755
29301W        W45375  14.076   5.152  12.516  0.2104 -0.1330 -0.0415
29302W        W45376  12.128  13.926   4.665  0.0825  0.1007 -0.2317
29303W        W45377  12.568  16.664   1.246 -0.1607 -0.0003  0.1162
29304W        W45378  17.336   2.205   3.411 -0.1467  0.0184  0.0510
29305W        W45379   3.577   8.620  14.389  0.0150  0.1114 -0.0385
29306W        W45380   8.874  13.516   4.777 -0.1355 -0.2627 -0.0964
29307W        W45381   5.975  11.031   5.219 -0.0410 -0.1808  0.5071
29308W        W45382   3.272  10.692  12.418 -0.0709 -0.2560 -0.1814
29309W        W45383  14.691  14.978   2.667  0.0947  0.0386  0.1113
29310W        W45384  11.916   4.260   3.856  0.0941  0.1497  0.2182
29311W        W45385   6.307   8.457   1.663  0.1127 -0.1101  0.1073
29312W        W45386  17.953   1.882  16.391  0.1505 -0.0805  0.0906
29313W        W45387  15.939   8.744   4.793  0.0228 -0.0821 -0.0158
29314W        W45388   0.560  17.059  15.658  0.0681 -0.1113 -0.0264
29315W        W45389  13.752  13.979   1.721 -0.1824 -0.0793  0.1707
29316W        W45390  15.253  14.444  11.960 -0.1204 -0.3392  0.1539
29317W        W45391   2.676  12.575  16.252  0.2962  0.1103  0.1360
29318W        W45392  11.764   4.641   4.183 -0.0511 -0.0151 -0.0913
29319W        W45393  16.520   6.800   2.317 -0.1593  0.1722 -0.1606
29320W        W45394  13.825  10.718  13.152 -0.0146 -0.2184 -0.0387
29321W        W45395  10.986   4.038  13.853 -0.0902  0.0832 -0.3892
29322W        W45396  12.004   9.254   3.607  0.1943  0.0939  0.0929
29323W        W45397   8.824  13.282  14.789 -0.2576  0.1508  0.0696
29324W        W45398  12.115  13.998   2.416  0.1827  0.1471  0.1804
29325W        W45399   6.080  10.901   4.710  0.0738 -0.2809  0.0962
29326W        W45400  16.790   0.242  15.333  0.1280 -0.1357  0.1364
29327W        W45401   8.331  14.542   2.567  0.1564  0.1018 -0.0066
29328W        W45402  18.135  16.240   4.465  0.0244  0.0309  0.1758
29329W        W45403   0.678   9.884  15.861 -0.2163  0.1944 -0.2560
29330W        W45404   9.399   1.457  12.573  0.1051 -0.1091  0.0760
29331W        W45405  18.044  10.848  11.503  0.1927  0.0715 -0.4266
29332W        W45406  14.956   2.533   3.134  0.3265  0.1275 -0.1098
29333W        W45407  15.149  12.346  13.027 -0.1448  0.1990  0.0613
29334W        W45408  16.917  16.098  15.712 -0.1089  0.3120  0.1967
29335W        W45409  12.966   0.609   5.604 -0.1197 -0.1394  0.1087
29336W        W45410   3.946   4.388  14.034  0.1132  0.3432  0.2442
29337W        W45411  15.227  10.361  15.422 -0.0202  0.0663 -0.0595
29338W        W45412   5.873  14.587   3.632  0.2052  0.0189  0.0042
29339W        W45413  15.149   3.723   0.702 -0.1616 -0.2271 -0.0080
29340W        W45414   8.768   2.910   5.225 -0.0781  0.2943  0.1940
29341W        W45415   9.218  17.690   0.257 -0.0462  0.2500 -0.0121
29342W        W45416   4.058  11.844  15.829  0.1774  0.0568  0.1485
29343W        W45417   2.392  14.600  15.049 -0.0036 -0.0267  0.0843
29344W        W45418   6.904   4.978   4.831  0.0317  0.0830 -0.0745
29345W        W45419   8.812  12.869  12.486 -0.1437  0.0517  0.1026
29346W        W45420   3.226  12.666  12.095 -0.1712  0.0551  0.0199
29347W        W45421  12.602  17.157   1.225  0.2061  0.2362 -0.3256
29348W        W45422   3.133  15.001   0.067 -0.1665  0.1656 -0.0929
29349W        W45423  16.528   9.841  13.285  0.1440 -0.0203 -0.0422
29350W        W45424   6.634   4.488   0.093  0.4092 -0.0370 -0.0719
29351W        W45425   1.245   5.650  11.923 -0.0092 -0.0019 -0.1875
29352W        W45426  11.541   9.469  12.983  0.5003 -0.0012 -0.1156
29353W        W45427   2.939   1.233   2.609 -0.1868 -0.1276  0.0241
29354W        W45428   0.046   0.018   4.198  0.3621 -0.1529 -0.4369
29355W        W45429  17.004  13.862  12.995 -0.0639  0.0077  0.0089
29356W        W45430  15.852  16.743  10.750 -0.3017 -0.1026  0.1943
29357W        W45431  17.953   3.545  12.943  0.0564 -0.0663  0.1295
29358W        W45432  17.555  15.935   2.779  0.2854  0.0875 -0.0875
29359W        W45433   1.144   5.357  11.221  0.3110 -0.1271  0.0384
29360W        W45434   5.851   7.462  12.134 -0.1266 -0.1864 -0.2179
29361W        W45435   8.719   4.710  14.439  0.1820 -0.3077  0.0655
29362W        W45436   6.280   2.019  14.787  0.3067 -0.1797  0.0406
29363W        W45437   4.279   1.945   4.696 -0.1525 -0.1427 -0.0417
29364W        W45438   6.012  14.916   5.323  0.0675  0.1127  0.0428
29365W        W45439   5.263  17.020  16.030 -0.0465  0.2244  0.1123
29366W        W45440  15.290   0.297   4.538  0.0228  0.2974 -0.2417
29367W        W45441   4.627   3.244   0.524 -0.2835  0.0464 -0.1692
29368W        W45442  13.894  15.801   1.495 -0.1583 -0.2334 -0.0545
29369W        W45443  16.063   2.009   5.727  0.3191 -0.1044 -0.2936
29370W        W45444   8.951   4.523   0.981  0.3364  0.1452  0.3143
29371W        W45445   9.593  16.662  14.152  0.2318 -0.0152 -0.1193
29372W        W45446   3.343   2.716  11.672 -0.0779  0.1269  0.2266
29373W        W45447  14.023   9.261  12.222  0.0915 -0.2705  0.2004
29374W        W45448  17.403  16.993   2.292 -0.1443 -0.2212 -0.2172
29375W        W45449   1.863   2.803  15.819 -0.0071 -0.1990 -0.1365
29376W        W45450  12.888   1.532   5.051 -0.2725  0.2010 -0.0128
29377W        W45451   4.307   6.755  15.928 -0.0293  0.0024 -0.3978
29378W        W45452  13.384   2.417  10.490  0.0927  0.0362  0.0790
29379W        W45453  10.887   1.887  12.161  0.0559  0.0828 -0.1120
29380W        W45454   2.973  11.839  13.162 -0.4017  0.0442  0.1644
29381W        W45455   6.542   8.326  13.592  0.1603 -0.1498 -0.4297
29382W        W45456   4.837  17.985  15.849  0.1909  0.1165 -0.0851
29383W        W45457   2.300  13.074  11.263 -0.0652  0.0504 -0.0864
29384W        W45458   4.800   7.511   4.121  0.0002  0.1988 -0.4256
29385W        W45459  11.528   1.868   1.608  0.1009  0.0104 -0.1804
29386W        W45460   0.826   4.370  15.551  0.0392  0.3145  0.2694
29387W        W45461   0.381   8.298   2.474  0.3913 -0.0558  0.5294
29388W        W45462  16.537   1.482  16.196  0.1343 -0.0565 -0.1929
29389W        W45463   1.121   4.129  12.646  0.1718 -0.0774  0.1880
29390W        W45464   9.198  18.227  12.333  0.3202  0.4030 -0.0788
29391W        W45465   0.101   0.717  11.460  0.0890  0.2574  0.1447
29392W        W45466   1.721   0.192   5.611  0.3692  0.1152 -0.0723
29393W        W45467   3.848   8.204   3.967 -0.2878  0.2650 -0.0391
29394W        W45468  12.554   7.681  16.212  0.1994 -0.1600 -0.0985
29395W        W45469   0.044   4.824   4.004  0.2120  0.0320 -0.1094
29396W        W45470   8.902   7.099   4.895 -0.1484 -0.0523 -0.3401
29397W        W45471   4.251   5.655  11.737 -0.2683  0.1409  0.1742
29398W        W45472   3.435   6.433   4.903 -0.0356 -0.1587  0.0839
29399W        W45473  15.305   2.291   0.731  0.0393 -0.1966 -0.2299
29400W        W45474   3.143  14.916   2.171  0.2735 -0.1418 -0.2902
29401W        W45475   9.347  14.070  14.137 -0.2214 -0.1449  0.1548
29402W        W45476   4.750   5.402   4.376  0.0354 -0.2611  0.2049
29403W        W45477   5.412  12.826   5.689  0.2131  0.3818  0.1416
29404W        W45478   6.965  15.804  15.758  0.4191  0.2087 -0.2657
29405W        W45479   1.064  16.268  15.860 -0.1784  0.4154  0.2517
29406W        W45480  10.058   9.091   3.564 -0.0797 -0.0665 -0.1248
29407W        W45481  10.614   5.880  12.829  0.0533 -0.1475  0.3068
29408W        W45482   3.475  15.654  12.080 -0.1428  0.1221  0.0118
29409W        W45483   3.903  11.401   4.460 -0.3264  0.0760  0.0460
29410W        W45484  11.476  11.574   2.490 -0.0818  0.2253 -0.1704
29411W        W45485   8.331   8.761   5.822 -0.2543  0.2205 -0.1606
29412W        W45486  14.745   1.035   3.520  0.0760  0.0549 -0.1005
29413W        W45487  10.302  10.729   3.151 -0.2664 -0.2400 -0.0069
29414W        W45488  10.139   6.912  11.898  0.0300  0.0522 -0.2778
29415W        W45489   9.324   9.822  15.083 -0.2648  0.0946 -0.0597
29416W        W45490   2.711   2.725   1.263  0.1827  0.0995 -0.0640
29417W        W45491  12.786  11.500   1.308 -0.4002 -0.0599  0.0938
29418W        W45492  16.961  18.092   0.303 -0.0115  0.1618 -0.1017
29419W        W45493  16.315   3.193   2.525  0.2882 -0.0213  0.0368
29420W        W45494   2.122   4.053   3.938  0.1137  0.1683 -0.1237
29421W        W45495   3.075   9.746   5.765  0.2262  0.0263  0.1836
29422W        W45496   8.175   9.894   3.633  0.0855  0.1470  0.2720
29423W        W45497   2.348   2.072  12.068  0.2415 -0.2177  0.1044
29424W        W45498   4.558   1.959  16.320 -0.2976  0.3271 -0.0795
29425W        W45499  14.284  15.801  13.167 -0.2218  0.1769  0.0427
29426W        W45500  15.708  11.892  14.345 -0.0134  0.2343 -0.2410
29427W        W45501   5.354   6.197   1.901 -0.1153 -0.0411  0.2014
29428W        W45502  17.368   6.984   2.984 -0.0324  0.0043  0.1799
29429W        W45503  16.879   8.942   2.669  0.0073 -0.0463  0.0226
29430W        W45504   0.866  11.281   2.761  0.4173 -0.1210  0.0920
29431W        W45505   5.062   9.391  14.375  0.2169 -0.0212  0.2106
29432W        W45506  10.788   9.492  12.464 -0.2632  0.0501 -0.0247
29433W        W45507   5.535   3.923   3.583 -0.1678  0.2918 -0.1381
29434W        W45508   2.812   8.962   0.739  0.1117 -0.1383 -0.1802
29435W        W45509   0.685   5.649   3.543  0.0466 -0.2856  0.4673
29436W        W45510  15.503   3.996   0.094  0.2845 -0.3353 -0.0958
29437W        W45511  17.635  15.834  11.046 -0.2548  0.4154 -0.2041
29438W        W45512   2.726   7.778  11.127  0.1982  0.1114 -0.0185
29439W        W45513   1.472   7.330   4.155 -0.1900 -0.0963 -0.0045
29440W        W45514  10.910  14.649  12.795  0.0110  0.0435 -0.2390
29441W        W45515  15.761   5.323   0.923 -0.0704 -0.1791 -0.2113
29442W        W45516   6.111   6.021  11.844  0.0969  0.1459  0.0123
29443W        W45517   6.294   2.381   2.558 -0.0260  0.0660  0.0864
29444W        W45518   5.615   0.965   0.632  0.3282  0.2298 -0.0215
29445W        W45519   0.303   1.763  15.967 -0.3238 -0.1215  0.0122
29446W        W45520   9.785   8.273   2.809  0.0689  0.0140 -0.0483
29447W        W45521   4.556   6.209   6.162 -0.0726 -0.1070  0.0017
29448W        W45522  13.038   5.059   1.737 -0.0144 -0.0070 -0.0872
29449W        W45523   7.755  14.304   3.429 -0.2232  0.0451 -0.2889
29450W        W45524  11.886   0.341  12.359  0.0765 -0.3892  0.2626
29451W        W45525   2.004   2.129   4.894  0.0797  0.3637 -0.2242
29452W        W45526  11.256   4.596   2.813 -0.3014  0.4354  0.1255
29453W        W45527  11.141  16.610  12.613 -0.0119 -0.0856 -0.1066
29454W        W45528   2.123   1.967  15.623 -0.0390 -0.2139  0.1124
29455W        W45529  16.059   5.643   1.159  0.0571  0.0160  0.1397
29456W        W45530   9.876   4.812  15.624  0.0376 -0.0432  0.1436
29457W        W45531   0.225   0.477   2.951 -0.0605 -0.1132  0.2927
29458W        W45532   4.201   3.312   4.093  0.0430 -0.2958 -0.0190
29459W        W45533  14.974  14.125  13.455 -0.3619 -0.3211 -0.1426
29460W        W45534   2.726   9.129   3.855  0.4289 -0.1121  0.0185
29461W        W45535  13.872  16.810   5.571  0.4689  0.1521  0.1929
29462W        W45536  17.833  17.416  13.013  0.0047  0.1241 -0.0541
29463W        W45537  16.779   8.113   2.630 -0.0125 -0.0600 -0.2001
29464W        W45538   6.058   2.075  15.586  0.1271  0.1476  0.1863
29465W        W45539  17.063  10.123  12.360 -0.0001 -0.5034  0.0426
29466W        W45540   2.112   3.314  13.273 -0.3011 -0.0506 -0.0273
29467W        W45541   8.147  17.204   4.384  0.0309 -0.1556  0.1772
29468W        W45542   7.216   5.385   3.985  0.4205 -0.0967 -0.0644
29469W        W45543   6.990   0.505  15.230 -0.1438 -0.0554 -0.0776
29470W        W45544   2.923  16.561   2.982 -0.1054  0.0305 -0.1983
29471W        W45545  15.001   1.856  14.242  0.2168  0.1254  0.1957
29472W        W45546  10.546  10.880   3.697  0.1596  0.2664 -0.0366
29473W        W45547  10.143   4.359   0.965  0.1924 -0.0796 -0.1735
29474W        W45548   6.682   0.281   1.230  0.2678 -0.2060  0.2243
29475W        W45549  11.147  12.140  14.357 -0.0060 -0.3874  0.1001
29476W        W45550  14.450   5.274  12.165  0.6446 -0.0888 -0.0529
29477W        W45551   1.277  15.235  13.780 -0.0933  0.0561  0.1082
29478W        W45552  13.439  11.220  15.551  0.0626  0.1688 -0.2893
29479W        W45553  12.150  14.099  14.850 -0.1270  0.0607 -0.0128
29480W        W45554  13.016   3.694   4.416 -0.1505  0.2166  0.2733
29481W        W45555   1.043   3.322   1.631 -0.0077  0.2022 -0.2506
29482W        W45556  13.661   0.617  11.806  0.2105  0.1631 -0.1272
29483W        W45557   9.820   8.378  14.393 -0.2779 -0.4056 -0.0276
29484W        W45558  16.427   3.986  15.860 -0.5532 -0.2117  0.1027
29485W        W45559   5.387   5.454   6.561 -0.1722  0.1883 -0.0855
29486W        W45560  17.677  15.437   0.544  0.0908  0.1385 -0.0567
29487W        W45561  13.584  17.832   1.400 -0.0216  0.0630  0.0083
29488W        W45562   9.718   3.686  11.652  0.0485 -0.2085  0.1167
29489W        W45563   8.706   9.594  12.138 -0.2141 -0.0591  0.4006
29490W        W45564   5.166  16.679  16.455  0.0187  0.0078  0.2039
29491W        W45565   0.077   6.307   4.802 -0.1095 -0.2730 -0.0429
29492W        W45566   0.810   8.646  13.315  0.0827 -0.1404  0.2338
29493W        W45567  18.093   4.104  12.639 -0.3223 -0.2456 -0.0663
29494W        W45568  15.413   7.074   3.681  0.1869 -0.2461 -0.1943
29495W        W45569   3.186   9.815   4.841  0.1292 -0.0640  0.1241
29496W        W45570  10.002   3.710  16.176 -0.3140  0.1890 -0.1807
29497W        W45571   2.163   8.736   2.289 -0.4056  0.2244 -0.3620
29498W        W45572   2.326  10.364   3.257 -0.0853 -0.1185  0.0569
29499W        W45573   4.963   3.437  15.852  0.0724 -0.1471  0.0079
29500W        W45574  12.308   6.915  12.916 -0.0566  0.1088  0.1657
29501W        W45575   6.048  15.784   1.307 -0.0659  0.0724  0.0171
29502W        W45576   4.087   3.711  12.088 -0.2415  0.1238  0.1183
29503W        W45577   4.593   5.654   3.674  0.2964  0.1122  0.1761
29504W        W45578  10.542  14.271   2.472 -0.0983  0.2322  0.4710
29505W        W45579   1.997  10.344   5.026 -0.1238 -0.0814 -0.1048
29506W        W45580  12.100   9.150  11.993 -0.1936 -0.2972  0.0846
29507W        W45581  12.249  15.131   1.456 -0.0212  0.1026 -0.1554
29508W        W45582   3.080  14.246  14.265  0.0470  0.1337 -0.1852
29509W        W45583   7.438   5.799  16.243  0.1348 -0.0196 -0.3584
29510W        W45584  11.291   7.449  15.561  0.0583  0.2103 -0.0403
29511W        W45585  15.770  17.768   1.694  0.0677  0.1062 -0.0848
29512W        W45586   8.871  13.261   3.826  0.0049  0.0983 -0.0743
29513W        W45587  16.474   0.439   1.400  0.1349  0.2065  0.0402
29514W        W45588   2.725   4.648  11.666 -0.4340  0.2309  0.2127
29515W        W45589  10.517  16.879  13.715 -0.1908 -0.1537 -0.1523
29516W        W45590   0.057  17.734   4.401 -0.2223 -0.0893  0.1044
29517W        W45591  16.852   6.636  15.806  0.4771 -0.0309  0.0863
29518W        W45592   8.562  12.125   5.971  0.1939  0.0778  0.2583
29519W        W45593   8.273  16.577  15.088  0.1984 -0.0423  0.2822
29520W        W45594   6.235  18.083   5.197  0.0453  0.1396 -0.2468
29521W        W45595   1.511   5.397   4.957 -0.0665 -0.0323  0.1037
29522W        W45596   3.162   9.187   3.159  0.0997  0.0922 -0.1036
29523W        W45597   3.388   4.513   3.934 -0.0673 -0.2852 -0.2334
29524W        W45598  15.109   9.725   3.892  0.1715  0.1385  0.3923
29525W        W45599  14.936   1.008   0.341 -0.1503 -0.0415 -0.0134
29526W        W45600  10.077  12.843   0.085 -0.1042 -0.1924  0.0944
29527W        W45601   7.575   0.538  16.474 -0.2737  0.1212 -0.0236
29528W        W45602   2.125   1.687   3.376  0.1315 -0.1308 -0.1819
29529W        W45603  15.294  11.997  16.279 -0.0844 -0.1286 -0.3239
29530W        W45604   1.256   2.257  11.821  0.0674 -0.0591 -0.0362
29531W        W45605   9.293   6.756   6.093 -0.0759 -0.1850 -0.2725
29532W        W45606   2.687   5.087   4.336 -0.1057 -0.0026 -0.1490
29533W        W45607   8.481  12.580  11.644 -0.1699 -0.0503  0.0412
29534W        W45608  17.157   4.152  12.701 -0.1066  0.1564  0.2119
29535W        W45609   3.461   5.924   2.963 -0.1936  0.0349  0.0404
29536W        W45610  11.068  13.557   2.133  0.0598  0.5078 -0.4043
29537W        W45611  15.452  15.493  10.930 -0.1005  0.5289 -0.1719
29538W        W45612   4.128  14.985  14.006  0.0860  0.2795 -0.1864
29539W        W45613   8.755  17.946  12.240 -0.3379 -0.2319  0.0047
29540W        W45614   5.861  15.218   1.171 -0.0073 -0.2553  0.0690
29541W        W45615  10.574  13.610  12.731  0.1427 -0.0370 -0.3219
29542W        W45616  15.053   4.594   5.460  0.2670 -0.1546  0.1555
29543W        W45617   5.815   4.576  11.831  0.2624  0.1491 -0.0382
29544W        W45618  16.753  16.013   4.602  0.1418  0.0550  0.0820
29545W        W45619   3.470   2.076   5.680  0.0401  0.0080 -0.1292
29546W        W45620  14.467  15.415   2.629 -0.0641  0.0512  0.0713
29547W        W45621   7.857  15.476  16.025  0.4302  0.0795  0.1112
29548W        W45622   3.714   6.450   2.808  0.1668  0.3023  0.0810
29549W        W45623  10.389  12.475   1.224  0.0109  0.2032 -0.0761
29550W        W45624   4.215  10.936  15.149 -0.1669  0.1134 -0.2288
29551W        W45625   3.952   6.457  15.857  0.0156 -0.2284 -0.1241
29552W        W45626  10.202   3.030   1.292  0.2728 -0.0367  0.3900
29553W        W45627   1.547  13.772   2.791 -0.2022  0.2092  0.1403
29554W        W45628   1.222   6.523  12.218  0.1620 -0.1795  0.2619
29555W        W45629  15.419   6.197  13.249 -0.0494 -0.2255 -0.0119
29556W        W45630   9.826  14.719  12.651  0.0312  0.1669  0.0506
29557W        W45631  16.619   7.520  16.459 -0.0106 -0.3229  0.0089
29558W        W45632  16.925  16.945  14.106 -0.2357 -0.0680  0.0478
29559W        W45633  13.481   1.169   2.973  0.0591 -0.0853  0.2549
29560W        W45634   2.820   9.187   5.412 -0.1077  0.1073 -0.0907
29561W        W45635  12.000   2.653  13.110 -0.0409  0.2177  0.0340
29562W        W45636  13.780   7.282   1.587  0.1086  0.1462 -0.0028
29563W        W45637  11.693   3.619   5.635 -0.2096 -0.1192 -0.1570
29564W        W45638  16.303   1.946   3.003 -0.0437 -0.0287 -0.0971
29565W        W45639  10.011  13.795  13.488  0.0048  0.0278  0.1610
29566W        W45640   3.344  14.586   0.186  0.2928  0.5459  0.0851
29567W        W45641  11.043   1.829   6.699 -0.1559  0.0767  0.1667
29568W        W45642  14.436   1.260  12.070 -0.1460 -0.0841 -0.0289
29569W        W45643   8.741   1.960   4.247 -0.0160 -0.0404  0.0572
29570W        W45644  18.085   7.830   3.152  0.1582 -0.2496  0.0139
29571W        W45645  11.375   1.752   0.818 -0.0298  0.0459 -0.1213
29572W        W45646  16.052   8.305   5.806  0.0511 -0.1586 -0.2495
29573W        W45647   5.608   7.053  12.362  0.0191 -0.1001 -0.0076
29574W        W45648   2.189   0.617   5.395  0.0405  0.2539  0.2736
29575W        W45649   9.465  14.712  15.962 -0.3599  0.1738  0.0889
29576W        W45650  14.038  12.472   2.786 -0.1232 -0.0482  0.0722
29577W        W45651  12.665  15.245  12.872  0.1666 -0.1327 -0.0649
29578W        W45652  11.722  11.290   3.390 -0.0791 -0.0333 -0.3740
29579W        W45653  14.562  17.906  12.515 -0.1630  0.0488  0.0995
29580W        W45654   5.822   8.963   2.788 -0.0077 -0.1320 -0.1619
29581W        W45655   9.736  12.630   4.828 -0.0555 -0.0613  0.0644
29582W        W45656   3.434  12.282  11.813 -0.0607 -0.0380 -0.1997
29583W        W45657  16.327   0.191  13.587  0.0510  0.0622  0.0951
29584W        W45658  14.300   6.115   4.846  0.0489  0.0894 -0.1331
29585W        W45659   1.941   5.757  11.673  0.2904  0.2696 -0.2398
29586W        W45660  13.389   6.763  12.181 -0.1590  0.0198  0.1882
29587W        W45661   0.162  16.388  11.689 -0.4195  0.0784 -0.0590
29588W        W45662  18.162   4.942  12.356  0.0004  0.1104 -0.0293
29589W        W45663  17.640  10.268   3.055 -0.4144  0.1802  0.2796
29590W        W45664  13.257   8.592  14.694 -0.0742 -0.2919 -0.1203
29591W        W45665  17.391   1.856  11.090 -0.0584 -0.0218 -0.0626
29592W        W45666   2.807   4.327   4.053 -0.0723 -0.0334 -0.0875
29593W        W45667   2.015  15.173   1.147  0.2606 -0.2004 -0.2300
29594W        W45668  17.948  12.632  16.317 -0.0162  0.1045  0.0901
29595W        W45669  18.023   7.444   3.925 -0.2245  0.0772  0.0696
29596W        W45670  18.109   2.132  13.089  0.1418  0.1137  0.1748
29597W        W45671   6.594   5.996  11.940 -0.3564 -0.0473 -0.1503
29598W        W45672  15.679  10.543   4.646 -0.2115 -0.3316 -0.1059
29599W        W45673   3.235  14.741  13.855  0.2073  0.0938  0.1727
29600W        W45674   1.450   0.305  15.975 -0.2725 -0.0242 -0.2470
29601W        W45675   4.833   8.329  13.467 -0.4673  0.1690  0.0247
29602W        W45676  11.154   6.442   5.323 -0.1247  0.0696 -0.0511
29603W        W45677   3.715   2.989  16.277 -0.1311  0.0174  0.1532
29604W        W45678   5.626  14.355  14.431 -0.2227  0.1033  0.0820
29605W        W45679  13.036  14.698   1.780 -0.1993 -0.1860  0.1906
29606W        W45680   2.950   6.636  12.386  0.2903 -0.1483  0.0365
29607W        W45681   5.622   3.099   5.331  0.3417  0.0380 -0.0695
29608W        W45682   2.176   7.528  14.009  0.1957 -0.1939 -0.2217
29609W        W45683  10.758  13.939  12.263  0.1017  0.0804 -0.0755
29610W        W45684   0.857   2.049  16.508 -0.0435 -0.0641  0.0823
29611W        W45685  14.457   2.758  11.716  0.0371 -0.1911 -0.0093
29612W        W45686   7.110   3.020   4.568 -0.0543  0.1069 -0.0259
29613W        W45687  10.745  15.869   5.589  0.0982  0.4100 -0.1697
29614W        W45688  14.391  11.320  13.976  0.0982 -0.0981 -0.2909
29615W        W45689  12.067  15.351   4.963  0.0420  0.1889  0.5124
29616W        W45690   3.553  14.004   1.509  0.1562 -0.2528  0.0201
29617W        W45691   9.479  17.163   0.847  0.0511 -0.5280  0.1657
29618W        W45692  14.452  16.212   2.134  0.2162 -0.2875  0.2354
29619W        W45693  17.027  12.790  15.299  0.1432 -0.1291  0.3488
29620W        W45694  12.120   0.878   1.169  0.0030  0.2179 -0.1397
29621W        W45695   0.664   9.107  15.469  0.0799  0.1642  0.0035
29622W        W45696  17.614   6.881   2.035  0.1711 -0.3267 -0.2354
29623W        W45697   4.293   3.493   3.103 -0.2061 -0.1162  0.2759
29624W        W45698   3.254  13.233  15.148 -0.0057  0.1429 -0.0586
29625W        W45699   4.700   7.502  13.274 -0.6055 -0.1150 -0.2575
29626W        W45700   3.345   9.271   4.723  0.3005  0.0918 -0.1434
29627W        W45701   2.893   3.968   1.141 -0.1357  0.0864 -0.2886
29628W        W45702  15.330  11.727   0.163 -0.1211  0.0072  0.0490
29629W        W45703  14.277   1.265   5.451 -0.2986  0.0337  0.0735
29630W        W45704  14.594  17.615   3.544  0.1316  0.0874  0.0266
29631W        W45705  16.855  17.132   0.237 -0.1039 -0.1932  0.1733
29632W        W45706  18.035  15.605   1.649 -0.1877 -0.0758 -0.1898
29633W        W45707   0.230   8.177   2.031 -0.3218  0.2831  0.3655
29634W        W45708  12.046  10.032  12.105  0.1809 -0.1492 -0.0022
29635W        W45709   8.296  17.398  15.677  0.1110 -0.0138  0.0195
29636W        W45710   2.267   2.231   3.140 -0.3500 -0.1352 -0.0089
29637W        W45711  14.479  16.390   0.650  0.3498  0.0328  0.0941
29638W        W45712  14.220   1.530  11.269  0.1285  0.1141 -0.1790
29639W        W45713  10.682  16.179   0.578  0.0682 -0.0426 -0.3233
29640W        W45714   6.378  13.907  15.119  0.4226  0.0820 -0.0867
29641W        W45715  14.392   1.138   3.138  0.1711 -0.0077  0.0999
29642W        W45716   9.647  10.459  15.780  0.2290 -0.2735 -0.1731
29643W        W45717  16.074  10.280   2.551 -0.4318  0.1746 -0.0003
29644W        W45718   6.129   3.733   2.032 -0.0845 -0.5126  0.3219
29645W        W45719   4.199   1.133  11.254 -0.1191 -0.1408  0.2027
29646W        W45720   3.842   7.235  13.321 -0.1747  0.0706  0.2093
29647W        W45721   2.680  11.187   2.363 -0.1035  0.0075  0.3322
29648W        W45722  12.992  13.248   3.836  0.1755  0.0696 -0.4569
29649W        W45723  11.647  18.104   3.950 -0.1792  0.1319 -0.1337
29650W        W45724  18.077  13.544  11.901 -0.2955 -0.0092  0.0226
29651W        W45725  16.231   1.611  11.642  0.0169  0.6605 -0.1827
29652W        W45726   1.937   4.111  13.499  0.0430 -0.1040 -0.0090
29653W        W45727   7.704   6.284  15.658 -0.2450 -0.1317 -0.0287
29654W        W45728   4.290  12.684  15.497 -0.1935  0.0325 -0.0297
29655W        W45729  17.967   5.009   6.084 -0.2667 -0.1720 -0.0479
29656W        W45730  15.091   1.654   1.243 -0.2823 -0.0888 -0.2967
29657W        W45731  11.634  10.886  14.535  0.2444 -0.0521 -0.2104
29658W        W45732  11.140   4.637  16.112  0.2023 -0.0231 -0.1177
29659W        W45733   5.847   5.450  12.058  0.2161  0.0097  0.0419
29660W        W45734  17.836   9.930  13.611  0.1122 -0.4715 -0.0738
29661W        W45735  11.602  15.315   6.162  0.1483  0.0187 -0.1259
29662W        W45736  12.866   1.159   1.487 -0.0764  0.2364  0.1522
29663W        W45737  12.900   9.513   4.653  0.0826  0.2612  0.1221
29664W        W45738  13.423   3.171   2.797  0.1657 -0.2423  0.0179
29665W        W45739  11.691   6.734   1.859  0.2938 -0.0905  0.1034
29666W        W45740  15.681  13.513  15.752 -0.1070  0.2294 -0.1185
29667W        W45741   5.380  13.311  14.322  0.4222  0.1948 -0.0405
29668W        W45742  13.681   9.037   4.378 -0.0687 -0.1238 -0.0012
29669W        W45743   6.424  10.306   5.287  0.1509 -0.1256 -0.1090
29670W        W45744  12.472   9.980   3.980  0.1812  0.2703 -0.0468
29671W        W45745  13.683   7.882   3.745 -0.1287  0.0524 -0.1347
29672W        W45746  17.225   0.011  15.498 -0.1522 -0.4137 -0.1417
29673W        W45747   2.599  17.729   4.696  0.0719 -0.1895  0.1170
29674W        W45748  17.851   5.819   5.653  0.3358  0.0990  0.1078
29675W        W45749   1.125   2.749  11.942 -0.1489 -0.0877 -0.2415
29676W        W45750   0.050   7.528   3.523 -0.3449  0.0645 -0.1298
29677W        W45751   6.948   2.205  11.847 -0.1813 -0.0216  0.2213
29678W        W45752   5.386  16.505   3.268 -0.1968  0.0766 -0.0608
29679W        W45753  17.845   9.226   0.501 -0.0884  0.1197  0.1454
29680W        W45754   4.217   0.141   4.973  0.3136  0.0169 -0.3036
29681W        W45755   2.460   8.919  15.414  0.0437  0.0495  0.1018
29682W        W45756  13.431   6.026  11.269 -0.1079  0.0324 -0.1049
29683W        W45757   8.541   1.281  14.887 -0.2553  0.3018  0.1422
29684W        W45758   1.006  17.002  12.179 -0.1398  0.0261 -0.1837
29685W        W45759   2.161   3.618  11.178 -0.2814 -0.2214 -0.1786
29686W        W45760   7.489   3.942  15.499  0.3628 -0.0193 -0.0072
29687W        W45761  17.194   1.007   4.483 -0.0374 -0.1334 -0.2494
29688W        W45762  13.852  11.294  13.143 -0.0717  0.2518  0.1285
29689W        W45763   6.141  11.114   3.292 -0.1037  0.1319  0.1890
29690W        W45764  13.823   8.380   2.963  0.1260 -0.0228  0.2333
29691W        W45765   1.759  11.925   4.596 -0.1430  0.2081 -0.0683
29692W        W45766  13.184   9.843   4.264 -0.0778  0.1613 -0.1426
29693W        W45767   2.767  17.988  16.125 -0.1135  0.1253  0.1397
29694W        W45768   7.398   1.015   0.198 -0.1136  0.2018  0.2274
29695W        W45769   2.738   8.978   2.900  0.1969 -0.3778  0.0094
29696W        W45770   7.162   0.220   6.139 -0.1076  0.0485  0.0398
29697W        W45771   2.939  15.562   4.435  0.0082  0.1205  0.1711
29698W        W45772   6.939  12.365  15.797  0.0043 -0.0659  0.0285
29699W        W45773   3.841  12.310   0.720  0.0066 -0.1170  0.0402
29700W        W45774  12.253   6.700  13.914 -0.0668 -0.0940  0.1580
29701W        W45775  14.697   8.567  14.662  0.0280 -0.2197  0.0600
29702W        W45776   5.134   7.189   0.334 -0.0340 -0.3296 -0.0479
29703W        W45777   7.058   6.961  16.047  0.3661 -0.0365  0.2595
29704W        W45778  16.381   2.141  16.408 -0.0160 -0.0384 -0.2096
29705W        W45779   3.012   0.186  12.914 -0.0778  0.0291  0.2023
29706W        W45780   6.620   4.080  15.254 -0.0027 -0.2855 -0.2550
29707W        W45781  15.476  12.374   2.702 -0.1542  0.0296  0.0715
29708W        W45782   1.369  14.653  13.579 -0.1361  0.0538 -0.2814
29709W        W45783   6.774   9.523  15.885 -0.1497  0.1746 -0.0543
29710W        W45784   1.558  16.191   3.798  0.1387  0.0278  0.2883
29711W        W45785   5.035  10.954  15.586 -0.2257 -0.0456 -0.0532
29712W        W45786  17.321  12.211  13.959 -0.1115 -0.0462  0.2517
29713W        W45787   9.427   4.117  13.320 -0.2267  0.1579  0.1984
29714W        W45788  11.533   4.638   3.731 -0.3403 -0.1587 -0.1690
29715W        W45789   2.784   6.236  12.665 -0.0398  0.1234  0.2824
29716W        W45790   7.572  10.314  14.647  0.0186  0.0943  0.0358
29717W        W45791  10.681   2.994  12.653  0.2514  0.1066 -0.0709
29718W        W45792  15.691  17.327   4.997 -0.1829  0.2816 -0.0785
29719W        W45793   2.219   8.045  11.829  0.4248  0.0985  0.3087
29720W        W45794  10.512   9.973   6.683 -0.0408 -0.0937  0.1563
29721W        W45795  17.992  16.131   1.878  0.1120  0.3045 -0.1090
29722W        W45796   3.430   0.406   2.517  0.2880 -0.2185 -0.0936
29723W        W45797  12.834  15.219   4.502 -0.1675 -0.0642 -0.2760
29724W        W45798  15.362  14.092  11.089  0.2591  0.1607  0.0774
29725W        W45799  12.775   5.811   3.102 -0.1088 -0.0441  0.1704
29726W        W45800   3.071   1.959   5.365 -0.0524  0.4944  0.1530
29727W        W45801   9.489  15.889  10.632 -0.0522 -0.2027  0.1839
29728W        W45802   0.380   8.457  11.322 -0.1048 -0.1807 -0.0149
29729W        W45803   5.741   7.364  14.057 -0.1758 -0.0458 -0.3183
29730W        W45804   1.146  17.642   4.450  0.1496 -0.1744 -0.2118
29731W        W45805   4.402   7.880  14.708  0.1030  0.0790 -0.1412
29732W        W45806   9.513   0.257   3.994 -0.2889  0.1128  0.0006
29733W        W45807   8.615   2.048  12.099 -0.2101  0.1612 -0.1813
29734W        W45808  12.422   0.936   3.664 -0.1972 -0.1752  0.3233
29735W        W45809   7.852   5.172  14.994  0.3076 -0.0137 -0.4434
29736W        W45810  15.971  11.524  12.366  0.0535  0.3286  0.1458
29737W        W45811  10.883   5.430   5.865 -0.0218 -0.0749  0.0221
29738W        W45812  16.638   2.164   0.430  0.4332 -0.0849  0.1799
29739W        W45813  14.895  10.573   4.319 -0.0164 -0.0518 -0.0672
29740W        W45814   8.832  14.085   4.577 -0.3296  0.0443  0.0053
29741W        W45815   5.100  15.952  15.786 -0.2780  0.0733 -0.3516
29742W        W45816   3.173  11.237   5.513  0.0242 -0.0162  0.0552
29743W        W45817   9.115   4.688  16.079 -0.0191  0.1866 -0.3370
29744W        W45818  13.995  13.303   3.319  0.2049  0.0752 -0.3162
29745W        W45819   0.808   7.688  15.907  0.0724 -0.1967  0.0131
29746W        W45820  10.413   2.808  14.049 -0.1126 -0.2550 -0.2462
29747W        W45821  17.867  14.744  14.069  0.0017  0.1696 -0.0200
29748W        W45822   1.546   3.272   3.405  0.2569  0.1340  0.0373
29749W        W45823   2.001  13.683   5.305 -0.0267  0.0161 -0.2455
29750W        W45824   5.554   2.241   4.745  0.0720  0.1580  0.0835
29751W        W45825   5.532  12.618   2.074  0.0921 -0.1375 -0.0942
29752W        W45826   9.005   9.999   3.157 -0.0836  0.1001  0.2114
29753W        W45827  11.435  14.331   5.406  0.1005  0.2456 -0.3365
29754W        W45828   2.603  13.500  11.074 -0.1253 -0.2657  0.0981
29755W        W45829   7.581   4.993  15.806  0.0277  0.5330  0.0505
29756W        W45830  12.235  11.282   1.944 -0.2844 -0.0243  0.0624
29757W        W45831  16.623  17.371  14.503  0.0773  0.2430  0.4144
29758W        W45832   2.122   5.924  13.759  0.0398  0.0217  0.2234
29759W        W45833  13.583  16.911  11.794  0.1663  0.2214  0.2590
29760W        W45834  12.327  15.441   1.952 -0.1266 -0.1823 -0.0174
29761W        W45835  12.611  16.102  15.837 -0.0902  0.0739 -0.1055
29762W        W45836  14.467   5.946  12.812  0.1880 -0.0773 -0.0271
29763W        W45837   2.143   9.211   2.146 -0.1368 -0.2598  0.1361
29764W        W45838   9.451  15.836   0.721 -0.0182 -0.0492 -0.0402
29765W        W45839   2.971   7.646   2.529  0.3356  0.0316  0.3750
29766W        W45840   3.961   0.355   2.546 -0.1620 -0.2218  0.1089
29767W        W45841  14.044   4.832  11.641  0.1009 -0.0189  0.1208
29768W        W45842   8.746   3.646  14.672 -0.1161 -0.2400 -0.0200
29769W        W45843  12.343   1.490   3.389  0.0680  0.1142 -0.0902
29770W        W45844   0.055   9.737  13.784  0.1226 -0.0835 -0.1945
29771W        W45845  10.814   3.829   4.664 -0.0512  0.2007  0.4534
29772W        W45846  11.762   7.218   6.485  0.2038  0.3258  0.1833
29773W        W45847  11.757  10.864  15.557  0.0214  0.4444  0.1602
29774W        W45848   0.999  13.130  11.030 -0.2303  0.1372 -0.2205
29775W        W45849  15.771   1.223   1.538 -0.1618  0.0401  0.1210
29776W        W45850  14.653  15.020  12.649 -0.1792 -0.0040 -0.1530
29777W        W45851   0.344  14.037   3.111 -0.0189  0.0944 -0.1198
29778W        W45852  11.778  10.936   4.036 -0.1925 -0.1529  0.0045
29779W        W45853   1.206   2.682  12.659 -0.0640 -0.1479 -0.0742
29780W        W45854   3.374   1.035   0.159  0.1782 -0.2071  0.2655
29781W        W45855   8.467   5.549  14.413  0.0564  0.0295  0.1726
29782W        W45856  12.907   2.077  16.484 -0.2273  0.0974  0.0163
29783W        W45857  15.562   2.955  15.621 -0.3745 -0.2782 -0.3417
29784W        W45858  17.593  17.578   2.134  0.1619  0.1798 -0.0072
29785W        W45859  16.183   6.474   0.730  0.2254  0.0159  0.1156
29786W        W45860   2.557  13.156   0.340  0.0874 -0.1191 -0.0254
29787W        W45861  16.212  17.514   2.777 -0.0916 -0.0708  0.1002
29788W        W45862   3.920   1.823  15.030 -0.0131  0.5032 -0.0838
29789W        W45863   9.802  12.342  15.117 -0.0636  0.1113  0.1489
29790W        W45864  12.910   2.726   3.356 -0.3682 -0.1371  0.2065
29791W        W45865  12.575  17.637   1.299 -0.2493  0.2213 -0.0181
29792W        W45866   7.726  11.139   3.078  0.1361  0.0026  0.2032
29793W        W45867  15.365   1.672  11.792 -0.0290 -0.0944  0.0924
29794W        W45868  14.923  13.677  12.636  0.0435  0.2150  0.0300
29795W        W45869  15.011  10.044  13.398  0.1889 -0.3287  0.0836
29796W        W45870   4.171   4.623   2.876 -0.0389  0.1204  0.1576
29797W        W45871  11.436  15.449  12.959 -0.1819  0.0927  0.0795
29798W        W45872  17.107   6.400   3.537 -0.0181 -0.1416  0.1706
29799W        W45873   4.842   5.757   2.362  0.0673 -0.1032  0.0397
29800W        W45874  10.026  15.809   0.686  0.1949 -0.0540 -0.1661
29801W        W45875  12.543  15.621  14.943 -0.0733  0.1707  0.2140
29802W        W45876   8.136   4.788   0.224 -0.2027  0.2456  0.0365
29803W        W45877  18.206  11.695   4.319 -0.0743  0.2186  0.0823
29804W        W45878   6.613  17.206   0.389  0.0766 -0.0489 -0.0310
29805W        W45879   1.205  10.627  11.291  0.0977 -0.1039  0.5698
29806W        W45880  11.991  10.603  14.255 -0.0816 -0.0158  0.3397
29807W        W45881  13.655   4.125  13.807  0.0301  0.0759  0.3441
29808W        W45882  14.947   7.964   3.218 -0.1233 -0.1585  0.1449
29809W        W45883   6.997   1.956  11.420 -0.0653  0.0375  0.0849
29810W        W45884   0.679   6.440   0.245 -0.0980  0.0634 -0.2795
29811W        W45885   4.659  13.170  11.794  0.0965 -0.0308 -0.0766
29812W        W45886  11.025  14.061  16.136 -0.1262 -0.1464 -0.1838
29813W        W45887  18.165   2.400   0.335 -0.1037  0.1755  0.2555
29814W        W45888   9.956   7.373  15.368  0.0958 -0.2400 -0.2298
29815W        W45889   5.490  14.713  15.943  0.1901  0.0738  0.1384
29816W        W45890  15.261  12.700   2.298  0.0072  0.0891 -0.1053
29817W        W45891   9.056  12.774  13.404 -0.1809  0.1581  0.0877
29818W        W45892  14.250   3.473   3.705  0.1519 -0.0719  0.1523
29819W        W45893  17.152   4.180   5.770  0.0905  0.1477 -0.2567
29820W        W45894  17.389   9.533   5.748 -0.2012  0.1351  0.0539
29821W        W45895  10.610   0.758  15.267  0.0299 -0.0598  0.3154
29822W        W45896   9.692   2.339   0.334  0.0051 -0.3834 -0.1394
29823W        W45897  10.167   3.261  16.303  0.0135  0.4311 -0.0416
29824W        W45898   6.146  17.735   3.994 -0.4919 -0.3282 -0.3381
29825W        W45899  14.602   0.448  12.003  0.0941 -0.1880 -0.2405
29826W        W45900  16.797  16.188   0.298 -0.0139  0.2041 -0.1827
29827W        W45901   6.207  13.172   4.364  0.1068  0.0308  0.1398
29828W        W45902  14.930  11.000  13.878  0.1066  0.4071 -0.1104
29829W        W45903  10.963   2.850  11.634  0.0859 -0.4362  0.0995
29830W        W45904   0.311   5.717   5.041 -0.0989  0.0983 -0.0919
29831W        W45905   7.676   2.477  15.064 -0.1371 -0.2189  0.3152
29832W        W45906   9.881  12.049  13.154  0.0753 -0.0842  0.0860
29833W        W45907   6.084  12.361  15.836 -0.3617  0.0655  0.1751
29834W        W45908   9.169  10.727   6.150  0.0523 -0.1246  0.0827
29835W        W45909   9.592   9.312   3.881 -0.0610  0.0005  0.0787
29836W        W45910  12.009   5.146  15.730  0.4772 -0.1424  0.0620
29837W        W45911   3.787  14.212  13.546  0.7249  0.2322  0.2048
29838W        W45912   7.672   7.627   1.587 -0.2227  0.3434 -0.1996
29839W        W45913   6.124  15.365   2.373  0.0313 -0.0764 -0.2273
29840W        W45914  13.548  14.631   1.246 -0.1245  0.1941 -0.2230
29841W        W45915   1.969   3.063  13.657  0.0286 -0.0932  0.5204
29842W        W45916   4.422  11.405  16.119  0.0665 -0.2613 -0.1126
29843W        W45917   6.505   0.991  12.657  0.1025 -0.0860 -0.2235
29844W        W45918   9.751  11.832   5.339  0.1082  0.1930  0.2379
29845W        W45919   3.480  17.926  15.083  0.0846  0.2340 -0.0797
29846W        W45920  13.614   7.964   4.602  0.1007  0.0700 -0.0675
29847W        W45921   4.234  14.633  13.514 -0.1574  0.0385  0.2607
29848W        W45922   9.841   7.364  11.717 -0.1249  0.0992  0.0287
29849W        W45923   6.137  16.862   5.020 -0.1107 -0.1559 -0.0507
29850W        W45924  12.853  13.915  12.784 -0.1614 -0.4041 -0.2595
29851W        W45925   0.467   8.011  12.784  0.0175  0.1365 -0.2248
29852W        W45926   9.633  12.869   4.396  0.0856  0.2828 -0.1557
29853W        W45927   6.892  13.112   1.725 -0.0433  0.0273  0.1651
29854W        W45928   8.969   1.116  15.126 -0.1933 -0.0734  0.0091
29855W        W45929   3.399   1.822   4.893 -0.2628  0.3437 -0.0956
29856W        W45930  14.708  16.833   5.076 -0.0286  0.2051 -0.0349
29857W        W45931  10.399   1.397   1.055  0.1636 -0.2613 -0.0394
29858W        W45932  11.259  13.499   0.799  0.1442 -0.2447  0.3515
29859W        W45933   1.312   9.716  16.114  0.0907  0.0005  0.0982
29860W        W45934  16.460   0.035   5.775 -0.2760 -0.1100  0.1174
29861W        W45935  15.753   2.875  11.345  0.0469  0.0495 -0.1848
29862W        W45936  15.488   0.092   4.928  0.2469  0.0149  0.0485
29863W        W45937   6.914   2.520   4.451 -0.0599  0.0350 -0.0768
29864W        W45938   1.191   2.989  13.969 -0.1496  0.1840 -0.1648
29865W        W45939  13.393   3.896  11.794 -0.1176  0.1723 -0.0064
29866W        W45940  13.184  11.108   0.348  0.0015  0.0471  0.0882
29867W        W45941  17.229   0.798  14.024 -0.3889 -0.1111  0.0702
29868W        W45942   7.527  14.248  14.689 -0.1529 -0.0705 -0.1426
29869W        W45943   4.599  10.428   1.700  0.2464  0.0905  0.0707
29870W        W45944  16.476   4.432   2.709 -0.0530  0.2855  0.0840
29871W        W45945  14.083  11.946   3.432 -0.1086  0.1064 -0.1225
29872W        W45946  16.173  12.905   4.489  0.0492  0.2547  0.1095
29873W        W45947  13.110  13.758   5.011 -0.2403 -0.4152  0.1694
29874W        W45948   2.589  14.504  14.636 -0.0831 -0.1049 -0.0473
29875W        W45949  10.105  13.841   5.471  0.0137 -0.1830 -0.0685
29876W        W45950  13.288  12.444   0.380  0.2114 -0.3453 -0.4549
29877W        W45951   4.152   6.943   2.003  0.3094  0.0132 -0.0128
29878W        W45952   4.095  15.395  15.430 -0.4056  0.2831 -0.0560
29879W        W45953   2.658  14.341  12.107  0.0306 -0.1841 -0.0096
29880W        W45954   3.573   9.669   5.639  0.1437  0.0540  0.2426
29881W        W45955  11.334  16.385  13.068  0.0379 -0.3583  0.0415
29882W        W45956   4.773   2.247   5.407  0.1230  0.1106  0.1837
29883W        W45957  17.548   1.534  15.170 -0.1884 -0.4317 -0.1273
29884W        W45958   8.748   3.247   6.376 -0.5306 -0.4281 -0.0224
29885W        W45959  10.147   7.584   1.978 -0.1451 -0.0010  0.0726
29886W        W45960   3.937   2.476  15.120 -0.1925  0.1303  0.0417
29887W        W45961   5.043   1.240  14.195  0.0005 -0.0199  0.0102
29888W        W45962  14.339   7.227   3.645  0.0935 -0.2318 -0.1178
29889W        W45963   2.123  11.241   0.068 -0.1234 -0.4615  0.0285
29890W        W45964  18.162  10.121   1.133 -0.2805 -0.0590  0.0863
29891W        W45965  15.115   9.595  13.189 -0.1527 -0.1587 -0.0945
29892W        W45966   0.024   5.092   0.593 -0.0799  0.1986 -0.0052
29893W        W45967  12.843   6.764  12.563 -0.3286  0.1894 -0.0047
29894W        W45968   4.150  16.204  14.179  0.1118 -0.0087  0.1642
29895W        W45969  17.648  13.355   2.151  0.1003 -0.0812  0.1352
29896W        W45970  17.736  17.063   4.424 -0.4344  0.0648  0.1675
29897W        W45971   6.972  12.144  16.309 -0.0025  0.0047  0.0191
29898W        W45972   0.855   3.076  14.410 -0.3266  0.0752 -0.3528
29899W        W45973  16.042  12.934   0.706  0.2040  0.0446 -0.3676
29900W        W45974  10.881  15.374  15.041  0.2807 -0.1499  0.0511
29901W        W45975   4.169   2.978  15.936 -0.0586 -0.4185  0.1392
29902W        W45976  14.229  14.474   2.495  0.0820  0.1552 -0.1587
29903W        W45977  12.331   5.424  11.816  0.1343 -0.0966 -0.0882
29904W        W45978   9.791   4.162   0.010  0.0447  0.0137  0.0565
29905W        W45979   6.236   5.456  14.989 -0.0896 -0.3418  0.1539
29906W        W45980  10.079  10.281  14.021 -0.0582 -0.2703 -0.2973
29907W        W45981   2.222   7.789   3.672  0.0060 -0.2208 -0.3154
29908W        W45982  13.130  14.060   1.161  0.0114 -0.3159  0.0778
29909W        W45983   4.055   1.002  14.795 -0.0497 -0.1230  0.1674
29910W        W45984   8.102   5.810   2.137 -0.4258 -0.0451 -0.0648
29911W        W45985  18.142  14.371   1.319 -0.0496  0.2543 -0.2163
29912W        W45986  17.260  16.501  15.569  0.2093 -0.2114 -0.0193
29913W        W45987  17.903   0.407  12.389  0.0862 -0.0964 -0.1871
29914W        W45988  11.474   1.128  16.207  0.1556  0.0492  0.0139
29915W        W45989  10.492  15.796   3.405 -0.1652 -0.0076 -0.1313
29916W        W45990  17.830   7.722  13.647 -0.0345  0.0034 -0.1241
29917W        W45991  17.320   5.656   6.202 -0.2741 -0.0173  0.1820
29918W        W45992   9.647  14.871   0.360 -0.1477 -0.1646 -0.1382
29919W        W45993   3.343  12.927  15.556  0.0473  0.2278 -0.0145
29920W        W45994   6.122   3.266   5.171 -0.0571  0.1091  0.0231
29921W        W45995   4.942  15.672   2.784  0.2837 -0.0476  0.2947
29922W        W45996  17.896  15.973   1.169 -0.0798  0.0606 -0.0233
29923W        W45997   8.568   1.239  15.426 -0.0828  0.2405 -0.0611
29924W        W45998   9.566   2.042  14.045 -0.0877 -0.2896  0.0828
29925W        W45999   5.299   8.882   1.127 -0.3092 -0.2157  0.1373
29926W        W46000  14.949   3.014   2.161  0.0865 -0.3720  0.1803
29927W        W46001   2.327  14.358  11.713 -0.2694  0.1725 -0.2723
29928W        W46002   9.550  17.343   2.599 -0.1405 -0.4376 -0.1107
29929W        W46003   3.932  11.990  12.872 -0.0581  0.0594 -0.2145
29930W        W46004   5.632   3.941   5.555  0.0010 -0.2558  0.1070
29931W        W46005   5.429  12.520  13.542 -0.1451  0.0386 -0.1106
29932W        W46006   9.918  14.854   1.770  0.1567  0.0508  0.0779
29933W        W46007  12.760  13.427  13.210 -0.0332  0.1315 -0.5982
29934W        W46008  13.267  14.010   5.926  0.1954  0.0390 -0.2837
29935W        W46009   7.498   4.480  14.763  0.0210  0.0977  0.5086
29936W        W46010  10.513   5.600   2.542 -0.2030 -0.2672 -0.1129
29937W        W46011  15.014   0.230  12.136 -0.2260  0.1161  0.0315
29938W        W46012  16.820   4.368  15.624 -0.1319  0.0223 -0.0142
29939W        W46013   8.797   9.420  12.990  0.0366  0.3071  0.0953
29940W        W46014   1.050  10.629   2.716  0.1965 -0.0927  0.2032
29941W        W46015   2.588   0.658  14.626 -0.0271 -0.0246 -0.0647
29942W        W46016  11.259  10.694  11.582  0.0745  0.0258 -0.2527
29943W        W46017   9.088   0.685   1.042 -0.1716 -0.1566 -0.0464
29944W        W46018  10.737  17.564   3.227 -0.0441  0.2279  0.1362
29945W        W46019   6.228  11.460  11.917 -0.4051  0.0129 -0.0307
29946W        W46020   0.213   5.509   3.287 -0.1156  0.0160 -0.2173
29947W        W46021   1.893  14.130   5.531  0.0000 -0.1222 -0.2397
29948W        W46022   0.497   4.529   0.995 -0.3405  0.1334 -0.0590
29949W        W46023  13.350  10.645  14.400  0.0373 -0.0908 -0.1691
29950W        W46024   2.619   7.576   3.923  0.0188 -0.0758 -0.0141
29951W        W46025   7.068   3.687  15.274 -0.2757 -0.0535  0.1980
29952W        W46026   4.126   7.679   3.546 -0.0336  0.0209  0.0347
29953W        W46027  11.436   2.121  13.317 -0.0554 -0.0704 -0.2142
29954W        W46028   0.288  18.151  15.640  0.1374 -0.0847 -0.0764
29955W        W46029   7.379  14.658   2.514 -0.0147 -0.1628 -0.0245
29956W        W46030  15.271  12.621  14.938 -0.1378 -0.3285  0.0893
29957W        W46031  12.223   1.405  11.819 -0.4171 -0.0035 -0.0426
29958W        W46032   2.285  15.581  12.814 -0.2364  0.2640 -0.3311
29959W        W46033   0.087   5.791   1.073  0.0300 -0.0393  0.2264
29960W        W46034  10.540  15.121   1.034  0.0911 -0.0142 -0.4046
29961W        W46035   5.040  11.909  15.646  0.0392  0.0749 -0.2482
29962W        W46036   6.997  14.167   5.107  0.0512  0.0678  0.0330
29963W        W46037  17.901  15.545   2.976  0.0153 -0.0070 -0.1746
29964W        W46038   5.152  10.128   5.464  0.0425 -0.1478 -0.0484
29965W        W46039   1.392  11.414  14.739 -0.0375  0.2251 -0.1060
29966W        W46040  13.734   5.844  13.865 -0.3673  0.1335  0.0438
29967W        W46041   1.171   6.478  11.077  0.2195 -0.0245  0.2148
29968W        W46042  10.739  12.627   3.400  0.0730  0.1538  0.0132
29969W        W46043   1.194   0.598  13.701 -0.0075  0.0896  0.0345
29970W        W46044   2.067   2.476   4.000 -0.0279 -0.1346 -0.2675
29971W        W46045  10.423  17.755   0.869 -0.0448  0.0770 -0.0483
29972W        W46046   1.171   0.051   3.425  0.3298  0.2684  0.0125
29973W        W46047  15.494  15.335   3.308 -0.0349 -0.1451 -0.3931
29974W        W46048   4.120   3.341   0.550  0.1292  0.0338  0.0868
29975W        W46049   8.190  13.499   1.476 -0.2442  0.0737  0.1232
29976W        W46050   5.357   0.767   1.049 -0.0122  0.0013  0.0543
29977W        W46051   4.237   2.896  15.364  0.2735 -0.0916 -0.0323
29978W        W46052   9.692   4.034   5.807 -0.1177  0.1200  0.1342
29979W        W46053   8.168   7.898  15.139  0.0651  0.0691  0.2697
29980W        W46054  17.639  10.041  15.358 -0.0889 -0.2199 -0.0779
29981W        W46055  12.554  12.552  13.238 -0.3529  0.0588  0.3761
29982W        W46056  16.797  16.425  13.095  0.1580 -0.0165  0.0989
29983W        W46057  16.895   4.501   4.350 -0.0218 -0.3608 -0.2843
29984W        W46058   5.311  17.506  14.810  0.2584  0.1601 -0.1059
29985W        W46059  17.288   2.711   3.644 -0.2663 -0.1409 -0.0055
29986W        W46060  16.977   6.858  12.726  0.1134 -0.2296 -0.0866
29987W        W46061   3.320   7.969  15.781  0.3502  0.0264  0.1094
29988W        W46062  12.543  11.003   1.356 -0.2552  0.1991  0.1598
29989W        W46063  10.501   1.134  15.802  0.1492  0.1715 -0.0240
29990W        W46064   4.400  10.125   4.313  0.2459 -0.0700 -0.2017
29991W        W46065  16.501   8.762  13.821  0.1436  0.0836 -0.1618
29992W        W46066   2.724   3.204   4.772 -0.3119  0.0079  0.0109
29993W        W46067  10.626  16.247   3.522  0.2600 -0.4363 -0.0011
29994W        W46068  13.416  17.543   3.182 -0.4271  0.0772 -0.1026
29995W        W46069   9.186   1.729   2.230  0.1972  0.1662  0.1961
29996W        W46070  14.423  15.466  11.958  0.4994  0.0042 -0.2263
29997W        W46071   2.994   9.103  13.823 -0.2494  0.0962 -0.0066
29998W        W46072   3.865   1.879   5.078 -0.0753  0.1709 -0.4030
29999W        W46073   2.715   3.933   0.105  0.0686  0.0712  0.1332
30000W        W46074  11.680   3.444   2.901 -0.1211  0.0344  0.3980
30001W        W46075   5.365  17.396   0.539  0.1648  0.1509  0.2513
30002W        W46076   8.911  17.486  13.105 -0.2299  0.0817  0.3957
30003W        W46077   1.000   2.508  11.406  0.2073 -0.1200  0.1169
30004W        W46078   9.539   1.039   4.061  0.0146  0.2625 -0.0043
30005W        W46079   6.370   1.533   2.521  0.0322 -0.0405 -0.0272
30006W        W46080  16.606   8.931   0.414 -0.2319  0.1662  0.2958
30007W        W46081  16.690   2.075   2.689 -0.1139 -0.0183  0.2907
30008W        W46082   8.468   1.876   4.672 -0.0444  0.0229 -0.1312
30009W        W46083  13.825   8.007  13.406  0.0358  0.1027 -0.2209
30010W        W46084  13.510  17.837  15.293 -0.1318  0.0642  0.3825
30011W        W46085  10.310  18.011   5.688  0.1546  0.1614  0.4942
30012W        W46086   5.911  14.288   1.614 -0.0648  0.1729  0.0378
30013W        W46087   0.116  16.687  12.104 -0.1634  0.3450 -0.0175
30014W        W46088   0.745  10.494   4.893 -0.0657  0.0094  0.2660
30015W        W46089   3.803   7.116   0.685  0.0491 -0.3053 -0.1786
30016W        W46090  17.055   3.117  14.179 -0.0115  0.1540  0.3063
30017W        W46091   2.279   1.742   4.836  0.0027  0.2283 -0.0733
30018W        W46092   4.550   8.608   0.904 -0.2821 -0.0661  0.0716
30019W        W46093   0.027  14.356  15.498  0.0361 -0.0275 -0.2270
30020W        W46094   2.594  15.021   1.248  0.0985 -0.1550  0.3415
30021W        W46095  13.610  16.054  15.837  0.1675  0.0414 -0.0336
30022W        W46096  10.283   5.142  13.377 -0.0181  0.1279  0.2092
30023W        W46097   0.981  14.690   1.843 -0.0184 -0.3745  0.0170
30024W        W46098  13.094  15.457  14.182  0.3197  0.3595  0.0776
30025W        W46099   4.962   4.880   0.997 -0.0469 -0.1794  0.1566
30026W        W46100  16.445  10.994  11.555  0.0529 -0.0018 -0.1620
30027W        W46101   5.003   4.002   2.468 -0.1426  0.0543 -0.0334
30028W        W46102  16.724   0.437  12.218  0.0318  0.2024  0.2380
30029W        W46103   3.004   0.317  11.087  0.0204 -0.1957 -0.0473
30030W        W46104  18.142   8.489  13.631  0.2885  0.1725 -0.4336
30031W        W46105   3.607  10.399   0.268 -0.0423  0.2417  0.1864
30032W        W46106  13.465   8.689  12.341  0.0703 -0.4169  0.1786
30033W        W46107   5.674  11.925  13.214 -0.0496 -0.2497  0.0108
30034W        W46108   8.165   2.540   6.283  0.1443 -0.3064  0.0156
30035W        W46109   4.102  11.976   3.748  0.2183  0.1027  0.1459
30036W        W46110   0.364   6.109  14.139 -0.1558 -0.1418 -0.1462
30037W        W46111   5.531   6.453  15.437  0.4008  0.3421  0.2669
30038W        W46112   4.390   0.797  13.807 -0.2884  0.0291 -0.2340
30039W        W46113   8.517  14.754   0.875  0.0176  0.0646  0.2626
30040W        W46114   4.335   2.878   2.067 -0.0448  0.0520 -0.0106
30041W        W46115  12.824  10.310   0.724 -0.1477  0.0611 -0.0410
30042W        W46116   9.407   1.836   1.810  0.3682 -0.0566 -0.4038
30043W        W46117  15.236  18.072  13.500  0.5436  0.0791 -0.0971
30044W        W46118   3.208   8.306   2.345  0.0451 -0.1458 -0.2100
30045W        W46119   1.233  13.975   3.461 -0.1104 -0.2551 -0.3768
30046W        W46120   4.394   2.484   3.861  0.0860  0.2334  0.0637
30047W        W46121   0.167   9.406  15.589 -0.2017  0.2116  0.2298
30048W        W46122   5.111   0.597   3.952  0.1517 -0.0810  0.1476
30049W        W46123  17.626   1.909  14.031 -0.3012 -0.2341 -0.0167
30050W        W46124   7.766  17.877  16.473  0.1717  0.1659  0.2105
30051W        W46125   3.392   0.396  12.638 -0.1916  0.2919 -0.0511
30052W        W46126  13.146  10.835   2.068 -0.0006  0.0268 -0.2437
30053W        W46127  10.501   8.858   1.027  0.1111 -0.2485  0.1101
30054W        W46128   8.121  14.186  13.720  0.2147 -0.1254 -0.0487
30055W        W46129  16.952   1.494   1.117 -0.0871  0.2391 -0.1599
30056W        W46130  18.074   5.875   3.405 -0.0628  0.0576 -0.1845
30057W        W46131  17.098   0.436   3.787 -0.2119 -0.1518  0.2020
30058W        W46132  16.587  12.683   0.393 -0.0158 -0.0056 -0.0542
30059W        W46133  14.109  15.730   4.337 -0.0897 -0.0024  0.1485
30060W        W46134  16.045   9.739   0.765  0.2985 -0.2869  0.0627
30061W        W46135  11.280   8.386  15.869  0.1842 -0.1509  0.2922
30062W        W46136  17.073   4.756   3.093 -0.1428  0.0972  0.0439
30063W        W46137   0.323   5.611   2.801  0.2168 -0.2244  0.1238
30064W        W46138   6.893  10.321  11.812 -0.1142 -0.2244  0.1120
30065W        W46139   8.009   7.429  15.039 -0.2120 -0.3139 -0.0467
30066W        W46140   3.488  13.256   1.031 -0.1090  0.1756 -0.2099
30067W        W46141  13.872  14.085   0.689  0.1506  0.1499 -0.1704
30068W        W46142   1.344   8.079  12.989  0.1265  0.0300 -0.2527
30069W        W46143  10.307   1.804   5.521  0.1716 -0.1518  0.0085
30070W        W46144   6.478  17.170  11.568 -0.2459  0.1907  0.1125
30071W        W46145   6.368  18.216  16.438 -0.2076 -0.2205  0.0106
30072W        W46146  17.435  12.454  13.264 -0.2702  0.0612 -0.2023
30073W        W46147   3.313   4.262   1.914 -0.4501  0.0174 -0.2312
30074W        W46148  15.419  15.227   0.991  0.0688 -0.0889  0.0944
30075W        W46149   8.287   2.169   6.003  0.0807  0.1767  0.4689
30076W        W46150   1.335   3.636  13.608 -0.1070 -0.1055 -0.0447
30077W        W46151   3.515  12.494  15.849  0.2298 -0.1471  0.0876
30078W        W46152   3.866   6.166  14.035 -0.1229  0.1445 -0.2407
30079W        W46153   2.563  15.797   4.204 -0.2860  0.2436  0.0312
30080W        W46154  12.533  14.899  16.392  0.1645 -0.2420  0.1580
30081W        W46155   0.901  10.236  12.939 -0.3358 -0.1360  0.0766
30082W        W46156   9.598  14.934   2.234 -0.1248  0.0399 -0.1261
30083W        W46157   9.068  14.901   2.364 -0.0281 -0.0370 -0.0211
30084W        W46158   8.291  15.493  14.724  0.0304  0.1894  0.0159
30085W        W46159   0.579   7.923  16.314  0.0234 -0.0772 -0.2184
30086W        W46160   5.668   2.129   5.304 -0.0683 -0.3390  0.2378
30087W        W46161  18.120   3.753   5.233 -0.2421 -0.2176 -0.3891
30088W        W46162   0.209   1.688  13.982  0.0819 -0.0571 -0.1073
30089W        W46163   2.371   5.248   4.747  0.1450  0.1503  0.1327
30090W        W46164   4.518   1.056   4.975 -0.2646 -0.2241  0.1758
30091W        W46165   7.328   2.155  14.520  0.1128  0.2899  0.2040
30092W        W46166   9.008  15.829  12.211 -0.3194 -0.0940 -0.0181
30093W        W46167  14.623   5.135   5.413  0.3057 -0.1000  0.1034
30094W        W46168  12.271   4.820   3.967  0.0346 -0.0091  0.0227
30095W        W46169  13.819  12.298   4.205  0.1214  0.4068 -0.2642
30096W        W46170  14.838  13.644  16.007 -0.0604 -0.2296 -0.1475
30097W        W46171   1.781  11.140   2.504 -0.1073  0.2221 -0.2210
30098W        W46172   2.042  10.291   1.320  0.2743  0.1397 -0.1431
30099W        W46173   7.664  11.254  15.449  0.1473 -0.1559 -0.3086
30100W        W46174  15.431   0.244  15.489  0.1680  0.0079 -0.0598
30101W        W46175   4.688   5.032   4.772  0.2353  0.0196 -0.0256
30102W        W46176  14.523   7.745  13.466 -0.0991  0.0740  0.0030
30103W        W46177  11.995  15.813   0.658  0.1268  0.1585 -0.4046
30104W        W46178  12.605  11.393   0.564 -0.2885 -0.0922 -0.1578
30105W        W46179   2.403   7.052  11.668 -0.0364  0.1194 -0.1356
30106W        W46180  13.904   2.844  12.867 -0.2059 -0.2776 -0.2312
30107W        W46181   4.451   4.413   2.488  0.1855 -0.1237  0.3570
30108W        W46182   5.837   4.404  14.173  0.0780  0.1223 -0.0595
30109W        W46183   6.696  11.498   5.324  0.0424 -0.2067  0.2611
30110W        W46184  16.988   4.058   5.317 -0.1562  0.1702  0.0440
30111W        W46185   7.975   6.411  12.113  0.3638  0.0080 -0.1404
30112W        W46186  11.007   4.095   0.998 -0.1197 -0.0119 -0.2317
30113W        W46187  15.154   8.679   2.298 -0.1121 -0.1046 -0.0298
30114W        W46188   4.952  17.058  14.791  0.0870  0.0644 -0.1915
30115W        W46189   0.364   5.402  13.556  0.0542  0.1925  0.3861
30116W        W46190   7.861   3.669   1.330  0.1280 -0.0114 -0.1838
30117W        W46191   4.407   1.506   5.810 -0.2193  0.4152  0.0565
30118W        W46192   1.477   2.096   2.770 -0.0591  0.0817  0.0770
30119W        W46193   5.397  14.258   0.698 -0.1928 -0.1645 -0.0582
30120W        W46194  13.991   0.959   6.276 -0.2733  0.2995  0.3001
30121W        W46195   7.999   5.169  10.844 -0.2845 -0.0430  0.2932
30122W        W46196   3.418   9.825  14.815 -0.1505 -0.0307 -0.1467
30123W        W46197  15.070  12.369  11.755  0.3675  0.1172  0.0712
30124W        W46198  17.415   3.336  14.452  0.0526  0.2507  0.3439
30125W        W46199   7.993   8.610   5.473 -0.2835  0.0054 -0.1147
30126W        W46200   7.182  15.615  13.628 -0.0968 -0.1161 -0.1544
30127W        W46201   9.355   7.738   1.989  0.6108 -0.0555  0.1062
30128W        W46202   8.798  12.706   5.193 -0.0247 -0.4650 -0.0989
30129W        W46203  17.915  14.881  11.667  0.1474 -0.2590 -0.0313
30130W        W46204   7.897   0.626   4.906 -0.1991 -0.2787 -0.0684
30131W        W46205  17.108   5.495   2.271 -0.0345  0.2949  0.0545
30132W        W46206   0.190   9.677   4.973  0.1198 -0.1921  0.1767
30133W        W46207  15.843  12.340  13.429 -0.0895 -0.0003 -0.1343
30134W        W46208   1.299   0.344  13.168 -0.3319 -0.1907  0.0188
30135W        W46209  10.879   5.045   4.664  0.1780  0.0017 -0.1162
30136W        W46210   1.000  17.043   2.508  0.1320  0.3457 -0.0076
30137W        W46211  13.944  14.665  15.580 -0.2427  0.2757  0.0054
30138W        W46212   9.699  12.462   3.007 -0.2741  0.0075 -0.0614
30139W        W46213  12.039  14.724  13.650  0.1911 -0.0532 -0.0349
30140W        W46214   3.825  16.059  12.139  0.1624  0.0603  0.2012
30141W        W46215  11.172   5.893   5.302 -0.0899  0.0165  0.1952
30142W        W46216   7.834  12.300   4.627  0.1360  0.0866 -0.2181
30143W        W46217   8.677   7.107   6.007 -0.1003  0.2384 -0.0567
30144W        W46218   9.887   1.268   1.103  0.1639 -0.1043 -0.1272
30145W        W46219   0.323   3.364  13.678  0.1106 -0.3726 -0.0897
30146W        W46220  10.466  11.559   0.793  0.1518 -0.2056  0.1481
30147W        W46221   4.885   1.406  11.393  0.3339 -0.0950  0.0193
30148W        W46222   0.164   3.684  11.046  0.1282 -0.1010 -0.2976
30149W        W46223   5.300  15.385  12.325  0.1018  0.1804  0.1850
30150W        W46224   5.626  14.962   4.906  0.0360 -0.1469  0.1071
30151W        W46225   9.810   3.393  13.486 -0.2044  0.1162 -0.1315
30152W        W46226  11.683   1.441   2.517  0.0941 -0.2086 -0.1126
30153W        W46227   3.663   2.127   4.186  0.2847  0.1314  0.0024
30154W        W46228   7.083   9.351   2.954  0.0596 -0.3173  0.1625
30155W        W46229   1.064  11.383  13.413  0.0726  0.0877  0.3203
30156W        W46230   4.354   5.775   2.120 -0.2547 -0.0739  0.2008
30157W        W46231  14.307   2.018  12.224  0.0911  0.1585  0.1412
30158W        W46232  12.371  14.986  11.656  0.3424 -0.1395  0.0682
30159W        W46233  14.312   5.073   4.957  0.4594  0.4524  0.1414
30160W        W46234  16.178   4.901  15.754  0.1112  0.1379  0.1111
30161W        W46235   7.589   0.945   4.031 -0.0473 -0.1105 -0.3511
30162W        W46236   5.323   7.656   0.416 -0.1253  0.1722  0.0285
30163W        W46237  11.070   4.236   4.449 -0.2459  0.1242  0.1434
30164W        W46238   2.040  16.368   1.747 -0.0148  0.0571  0.3503
30165W        W46239   9.524   0.327   5.874 -0.2337  0.1950  0.0117
30166W        W46240   4.490   3.009   3.425  0.1650  0.1355  0.1141
30167W        W46241  17.249  10.060  16.412  0.0637 -0.1272 -0.0485
30168W        W46242   2.962   5.413   2.757 -0.0496 -0.1708 -0.3544
30169W        W46243   8.009   8.193   3.487  0.0976  0.2010  0.2049
30170W        W46244   2.992  13.884   4.936 -0.5510  0.1641  0.1132
30171W        W46245   0.144   4.286   1.840  0.0911  0.0493 -0.1897
30172W        W46246   7.759  15.923   2.329 -0.0112 -0.1508 -0.1959
30173W        W46247  17.440   3.793  13.627  0.0182 -0.0838  0.1441
30174W        W46248   5.566  11.209  13.934 -0.2004  0.0315 -0.0946
30175W        W46249   2.754   2.253   3.658  0.1166 -0.0605  0.0757
30176W        W46250   6.331  16.926   1.445  0.1189  0.1464  0.0100
30177W        W46251  15.242   4.273   6.099 -0.0040  0.1922  0.1234
30178W        W46252   6.677   6.280   3.031  0.0265 -0.0560  0.0514
30179W        W46253  16.527   9.979   2.157  0.3942 -0.3325 -0.0527
30180W        W46254   3.612  17.267  13.198 -0.1505  0.2395 -0.4203
30181W        W46255  13.086   8.506   1.481 -0.0778 -0.0073 -0.2751
30182W        W46256   5.178   8.276  15.719 -0.0990  0.2724 -0.0875
30183W        W46257  10.562   8.692  11.876  0.1225  0.0717  0.1744
30184W        W46258   0.806  15.652  15.149 -0.4684 -0.0680 -0.0655
30185W        W46259   2.481  11.097   0.359  0.0062  0.1987  0.1387
30186W        W46260   0.679   0.192  15.384 -0.4187  0.1636 -0.3004
30187W        W46261   4.785   0.393   1.666  0.1464  0.1272 -0.1305
30188W        W46262  17.254   8.324   6.222  0.3145  0.0228  0.0218
30189W        W46263   3.275  12.871   0.797  0.1452 -0.0632  0.2323
30190W        W46264   3.725   8.367  15.697 -0.0998  0.1414 -0.0690
30191W        W46265  10.980   4.553   3.877  0.2894 -0.2961 -0.1517
30192W        W46266  10.491  17.650   1.456 -0.1267 -0.2190  0.0538
30193W        W46267  10.597  13.924   1.011 -0.0252  0.1445  0.1128
30194W        W46268   3.371   9.710   4.009  0.2386 -0.3047  0.3303
30195W        W46269  10.050  11.866   1.128  0.0502 -0.0840  0.1045
30196W        W46270  16.323   8.822  15.113  0.2118  0.1235 -0.2460
30197W        W46271   0.755   5.220   5.392  0.1343 -0.0539 -0.1005
30198W        W46272  14.221  13.352  12.560  0.0647 -0.0070 -0.1330
30199W        W46273   2.628  15.752   2.328  0.0113 -0.1956 -0.0250
30200W        W46274   0.815  14.915   3.359 -0.0666 -0.1057  0.0642
30201W        W46275   9.619   3.971   5.256 -0.0647 -0.1881  0.1908
30202W        W46276   0.645  14.741   1.235 -0.2676 -0.0184 -0.0586
30203W        W46277  16.761   3.916   6.290 -0.0717 -0.1816 -0.3583
30204W        W46278  10.945  17.348  16.138  0.1080 -0.1262 -0.1283
30205W        W46279   0.758   3.162   1.207  0.2553 -0.0545 -0.0274
30206W        W46280   1.484   4.533   4.609 -0.1530  0.0060  0.0188
30207W        W46281   1.196  13.717   4.395 -0.2282  0.0977  0.1494
30208W        W46282   3.340   3.724  16.028  0.1335 -0.3445 -0.0351
30209W        W46283   4.269   9.577  14.630  0.0922  0.0168 -0.2145
30210W        W46284  14.892   5.818  14.375 -0.1513 -0.0851  0.1935
30211W        W46285   0.813   0.450  13.401  0.0867 -0.0412 -0.1105
30212W        W46286  13.447  16.516   2.327 -0.1197  0.1135  0.0501
30213W        W46287   0.483  12.293  15.674 -0.2508 -0.1598  0.0232
30214W        W46288  16.101   2.981   0.061 -0.1703  0.1527 -0.2788
30215W        W46289   9.791  17.528   5.102  0.0464 -0.1595 -0.1202
30216W        W46290  16.000   5.441  15.594  0.3033 -0.4246 -0.3623
30217W        W46291   1.673  17.327   3.340  0.1157 -0.1989 -0.1936
30218W        W46292   2.007   2.579  16.196  0.0732 -0.0525  0.3250
30219W        W46293  15.922  12.120   5.521  0.0719 -0.3567 -0.0734
30220W        W46294  11.236   9.362   0.153 -0.1687  0.1439  0.1211
30221W        W46295   9.805   1.290   3.137  0.2593  0.2465 -0.1681
30222W        W46296   8.216  14.343   0.898 -0.0361 -0.2000 -0.1420
30223W        W46297   4.336  10.710   2.601 -0.0679  0.0427 -0.2169
30224W        W46298   4.113  17.754   5.056  0.0259 -0.3079 -0.1526
30225W        W46299   7.837   2.852   0.355  0.2135  0.1045 -0.0493
30226W        W46300   5.015  17.259  13.979  0.0183  0.0545  0.0190
30227W        W46301   6.676  12.876  12.143  0.0443  0.0105  0.0980
30228W        W46302  13.054   3.160   3.156 -0.0746 -0.3104 -0.2146
30229W        W46303   0.786   4.672  12.902 -0.1610 -0.2542 -0.3686
30230W        W46304  11.354  11.887   1.577 -0.1175  0.3848 -0.1654
30231W        W46305   9.524   8.397   0.316  0.1100  0.0524 -0.4700
30232W        W46306   3.596  17.455  16.154  0.4639 -0.1419 -0.3130
30233W        W46307  13.137  12.950  16.282  0.2513  0.0932 -0.0405
30234W        W46308   9.376  15.917   1.200  0.2175  0.1532  0.3446
30235W        W46309  17.957   8.602   1.148 -0.0817  0.0861  0.2351
30236W        W46310   2.648  14.920  12.008 -0.2362 -0.1810  0.1119
30237W        W46311  11.076  12.088  12.857 -0.0481 -0.1436 -0.0728
30238W        W46312  14.287   9.823  13.401 -0.1142  0.0095  0.0706
30239W        W46313   6.983  13.559  11.078  0.0061  0.0433 -0.2880
30240W        W46314  16.246  17.211  15.858  0.1513  0.4182  0.2102
30241W        W46315  18.217  14.390   2.726  0.1007  0.1204  0.1959
30242W        W46316  11.645   7.330   5.090 -0.1847  0.3329 -0.3064
30243W        W46317  11.000  13.559  13.046 -0.2322 -0.0824  0.0819
30244W        W46318  13.137  10.223   0.264  0.0642 -0.2311  0.2241
30245W        W46319   2.809  15.577   3.328 -0.1337 -0.2957  0.3241
30246W        W46320   9.711  17.838   3.564 -0.3135  0.1913 -0.0883
30247W        W46321  17.309   8.131   4.220 -0.0085  0.1562 -0.2467
30248W        W46322   1.087  16.071   0.757  0.1857  0.2255  0.3502
30249W        W46323  13.306  17.643   1.931 -0.1568  0.3625 -0.0764
30250W        W46324  16.600   5.037  11.522  0.2246  0.3154 -0.2163
30251W        W46325  13.282  16.704  13.622 -0.1648  0.2309  0.2601
30252W        W46326  12.480  14.489   3.457  0.1292 -0.1196  0.2273
30253W        W46327   7.663  17.030   4.460  0.0255  0.1572  0.1616
30254W        W46328  11.711  10.484   4.797 -0.1287 -0.3537 -0.1045
30255W        W46329   1.295  15.128  13.267  0.2239  0.0336  0.1944
30256W        W46330  11.766   7.225   2.914 -0.1136 -0.1729 -0.2600
30257W        W46331   9.681   5.433   2.728 -0.2794  0.0594 -0.0593
30258W        W46332  17.039   0.244   5.153 -0.1773  0.1154 -0.3228
30259W        W46333   3.173  15.949  11.416 -0.0790 -0.1679  0.3119
30260W        W46334   1.618  15.261  15.182 -0.0841  0.1690  0.2438
30261W        W46335  15.827   7.992  12.915  0.1600  0.2629 -0.0950
30262W        W46336  13.041  17.340  16.479  0.0529  0.0606  0.1879
30263W        W46337  15.088  16.061   3.362 -0.4212  0.0437  0.0760
30264W        W46338  12.049   4.300   4.802  0.0933 -0.0906  0.2353
30265W        W46339   8.111   3.584   3.165 -0.1796  0.3247  0.0414
30266W        W46340  10.643  16.257  15.960  0.1004 -0.0114 -0.0402
30267W        W46341   6.493   1.605  13.296 -0.1973  0.1897  0.1356
30268W        W46342  14.049   2.819  16.063  0.1545  0.1386 -0.2438
30269W        W46343   0.384  15.575   5.443  0.1140  0.0336 -0.4837
30270W        W46344  14.078   1.323  14.330  0.1219  0.2135 -0.0410
30271W        W46345   7.517   9.603   5.458  0.0066 -0.1716  0.1073
30272W        W46346  11.417  15.822  16.538 -0.2105 -0.0958  0.0838
30273W        W46347   4.719   2.560  11.963 -0.0665 -0.0372 -0.1101
30274W        W46348   1.957  10.992   1.638 -0.1077 -0.3602 -0.2521
30275W        W46349  14.801   8.981   4.526  0.0552  0.1988 -0.0966
30276W        W46350  13.783   1.187  15.979  0.0029  0.1276  0.1013
30277W        W46351  15.197   9.389   3.538  0.4277  0.0598  0.0718
30278W        W46352   7.316  11.594  16.328 -0.0424 -0.0188 -0.0459
30279W        W46353  17.425   2.387   5.602 -0.0331 -0.0834  0.1258
30280W        W46354   7.691   1.208   2.381  0.1694  0.1139  0.0736
30281W        W46355  18.085   8.928   2.250 -0.1034  0.1108  0.1366
30282W        W46356  10.058  15.190   4.504  0.1816 -0.2548 -0.1309
30283W        W46357   9.441  10.706  16.181 -0.3038 -0.2433  0.0298
30284W        W46358   3.454   6.954   4.210 -0.1585  0.1618 -0.0744
30285W        W46359  15.652   1.613  14.901 -0.0713  0.1077  0.0796
30286W        W46360  14.592   6.026  13.278 -0.1746  0.1675 -0.0909
30287W        W46361  15.176   2.877   1.261 -0.1300 -0.0470 -0.2175
30288W        W46362   3.731  15.633  14.582  0.2865 -0.0810  0.2312
30289W        W46363  14.282   6.568   4.644 -0.0849 -0.1188 -0.0240
30290W        W46364   3.963  11.591  16.308 -0.1212 -0.2592  0.3067
30291W        W46365   8.174   7.066  14.664 -0.0102  0.1139  0.0876
30292W        W46366   0.752  18.132   4.761 -0.2490 -0.0027  0.2699
30293W        W46367   0.812   5.715   2.778  0.0510 -0.0202 -0.0235
30294W        W46368   5.571   5.393   4.723  0.1285 -0.1044  0.0773
30295W        W46369  17.525   5.065  12.587 -0.1046  0.1138  0.0069
30296W        W46370  17.973   4.895   5.076 -0.1352  0.1107  0.0750
30297W        W46371  16.666  12.096   1.560  0.2471  0.2176  0.1493
30298W        W46372  14.426  18.008   1.600  0.2363 -0.6062  0.3021
30299W        W46373   6.755   9.132  13.437  0.1575 -0.0383  0.1373
30300W        W46374  16.773   7.043  11.647  0.1099 -0.2098  0.0934
30301W        W46375  10.382   1.527  15.536 -0.0020  0.0896 -0.2120
30302W        W46376  16.689  15.853  14.738  0.0162 -0.0450 -0.0709
30303W        W46377   9.561   4.594   5.145  0.2261 -0.0201 -0.1605
30304W        W46378   1.089   7.840  14.076 -0.0635  0.0094 -0.0148
30305W        W46379   1.273   4.095  10.567 -0.0994 -0.0983  0.3787
30306W        W46380   2.371  18.141   4.705  0.1443 -0.3784  0.0274
30307W        W46381  12.452  12.680  14.965  0.1313 -0.0980 -0.2752
30308W        W46382   8.354   5.928   4.724 -0.1025 -0.0941 -0.0840
30309W        W46383   2.591   4.965   0.819  0.3147 -0.3084  0.1554
30310W        W46384   4.333   7.055   6.199  0.0344  0.1710 -0.0764
30311W        W46385  12.286  15.524  15.622  0.2256 -0.2471  0.4978
30312W        W46386   1.768   1.316  11.446 -0.0081  0.1032  0.0043
30313W        W46387   6.799  13.342   3.454 -0.0283 -0.0656 -0.0637
30314W        W46388  10.798   4.621  14.756 -0.2437  0.0029 -0.2834
30315W        W46389  14.022   0.388  16.307  0.3074 -0.1326  0.0481
30316W        W46390  14.803  11.809   0.131 -0.3490 -0.0763  0.4906
30317W        W46391   3.604  13.270  12.709  0.1803  0.1599 -0.1604
30318W        W46392   6.002   8.770  15.805 -0.3116 -0.0595  0.0181
30319W        W46393   8.581  15.433  13.605  0.0809 -0.2029  0.0811
30320W        W46394   0.523  14.037  12.564  0.3023 -0.3478 -0.1346
30321W        W46395   7.283   8.208  14.252 -0.1053  0.3255  0.0562
30322W        W46396  13.330   0.561  14.426 -0.0892  0.3415 -0.1615
30323W        W46397   0.712  11.979   0.673  0.2210  0.1286  0.1131
30324W        W46398   3.521   7.422   2.850 -0.0331 -0.1387 -0.1363
30325W        W46399  14.191   7.619  15.973  0.3089  0.2041  0.2035
30326W        W46400  16.648  17.183   5.876  0.2825  0.1766 -0.0000
30327W        W46401   3.396  10.829   3.279 -0.0482 -0.2114  0.2168
30328W        W46402   9.980  17.319  13.494 -0.0571 -0.2071  0.4124
30329W        W46403  12.346  16.499   2.837 -0.3616 -0.0030  0.0481
30330W        W46404   6.580  10.621   3.757 -0.0502 -0.0200 -0.3278
30331W        W46405   1.773   3.847  14.814  0.1717  0.1882  0.4794
30332W        W46406   9.645   1.437   1.557  0.3328 -0.0931 -0.0263
30333W        W46407   7.983   7.492  12.946  0.1676  0.1608  0.4825
30334W        W46408   4.168  10.295   1.444 -0.3966 -0.0670 -0.0008
30335W        W46409   9.959  10.386   2.978  0.1082 -0.0683  0.0995
30336W        W46410  16.482  11.019   0.610  0.0745 -0.1743  0.1296
30337W        W46411   2.900  17.131   4.958 -0.1338  0.2030  0.2581
30338W        W46412  10.497  17.322   3.769 -0.0381  0.0484 -0.0240
30339W        W46413  13.918  10.641   2.297  0.0855  0.3256  0.0101
30340W        W46414  17.713   6.667  11.362  0.0353  0.2619  0.0131
30341W        W46415  13.957   7.914   5.589 -0.1099  0.2168 -0.0190
30342W        W46416  15.186  11.265   0.309  0.1840  0.4111  0.1448
30343W        W46417  16.233  16.879   4.111  0.1504  0.0505 -0.0932
30344W        W46418   3.374   2.982   6.383  0.3870  0.1742  0.0042
30345W        W46419  16.982   5.134  12.436  0.1679 -0.2953  0.0998
30346W        W46420   9.620  10.306  13.907 -0.0575 -0.1971 -0.1185
30347W        W46421  10.798  17.376   2.004 -0.1201 -0.3267 -0.0800
30348W        W46422   6.023   0.462  16.290  0.1501  0.1032  0.3950
30349W        W46423  16.350  14.378   3.649  0.1901  0.2680  0.1730
30350W        W46424   1.904  14.669   5.234  0.2093  0.1249  0.1180
30351W        W46425  15.670   6.659   3.389  0.1385 -0.0540 -0.2687
30352W        W46426  14.521   6.513   4.178 -0.0786 -0.2309 -0.2263
30353W        W46427   1.785   3.938  16.280 -0.1208  0.1562  0.2687
30354W        W46428   9.060   4.692  14.844  0.0606  0.0500  0.1187
30355W        W46429   6.432   1.375  12.218  0.0529 -0.0826 -0.0798
30356W        W46430   5.259  12.383  16.351 -0.0086 -0.4030  0.0671
30357W        W46431  16.960   0.477  14.368 -0.1824  0.0739  0.0285
30358W        W46432   8.312   4.140  15.058 -0.0834  0.2344 -0.0738
30359W        W46433   6.604   1.815   3.404  0.3501  0.2002  0.1145
30360W        W46434  14.541   7.168   6.076  0.1737 -0.2752  0.1723
30361W        W46435   8.506   8.729   1.019 -0.4513  0.3063 -0.0176
30362W        W46436  10.462  18.113  15.797  0.3408 -0.0566 -0.1595
30363W        W46437   1.491   9.663   2.878 -0.1695 -0.0803 -0.0411
30364W        W46438  16.439  14.983   0.057  0.2671  0.3796 -0.1671
30365W        W46439  13.608  16.683   1.922  0.1475  0.0897  0.0398
30366W        W46440  16.765   4.936   5.793 -0.1922 -0.2638 -0.0590
30367W        W46441   3.282  10.672   1.319  0.0306 -0.0339  0.0550
30368W        W46442  17.100  12.074  14.588 -0.0810  0.1292  0.0682
30369W        W46443  10.035   2.040  14.244  0.2621  0.0858  0.2559
30370W        W46444   3.346   8.601  16.191 -0.0522  0.0680  0.2438
30371W        W46445   1.008   4.785  15.822 -0.3255 -0.0767 -0.1127
30372W        W46446  16.315   1.282   0.181 -0.0362 -0.0078 -0.1401
30373W        W46447  13.350  12.990   2.685  0.2888  0.0109  0.2226
30374W        W46448   1.185   3.899  12.150 -0.4483  0.0141  0.2874
30375W        W46449   3.141   5.525   0.886  0.0330 -0.0752  0.2174
30376W        W46450  10.682   5.788   2.987  0.2718  0.1650  0.1368
30377W        W46451  14.875   6.748  13.779  0.0231 -0.1550  0.1253
30378W        W46452   2.909   9.658   0.078 -0.1271 -0.0929  0.0369
30379W        W46453  15.160  13.353   0.835 -0.1721  0.2919 -0.0024
30380W        W46454   5.816   0.466  15.250  0.1176  0.2619  0.0029
30381W        W46455  15.339   5.415  16.219  0.2128  0.1713 -0.3122
30382W        W46456  15.055   6.319  16.337 -0.0640 -0.2180 -0.0384
30383W        W46457  10.270  15.773  11.648 -0.0372 -0.0622  0.0130
30384W        W46458  13.542  11.907   4.420 -0.0375 -0.1363  0.1990
30385W        W46459   1.057  10.579  14.980  0.2640 -0.0517  0.1528
30386W        W46460  15.844  12.743   3.651  0.1507 -0.0692 -0.0776
30387W        W46461  10.213   6.083   2.929  0.0736  0.0981  0.2330
30388W        W46462   6.457  17.698  13.168 -0.2821  0.0317 -0.0155
30389W        W46463   4.820   3.382  11.523 -0.0918 -0.1206  0.0563
30390W        W46464   8.252  10.469  13.524 -0.0318 -0.0150  0.0495
30391W        W46465   2.699   5.232  11.817  0.0192 -0.1053 -0.0099
30392W        W46466   9.388   8.217  16.411 -0.0142  0.0497  0.2458
30393W        W46467   9.071   8.108   1.751 -0.1650 -0.2844  0.2366
30394W        W46468   7.078   4.076  14.534  0.0209  0.1674  0.0410
30395W        W46469   4.250   6.182  11.431 -0.0658 -0.0348 -0.0274
30396W        W46470  11.524  15.723  12.048  0.3903  0.1913 -0.0346
30397W        W46471   7.245   4.726  13.244 -0.2012  0.1505  0.1164
30398W        W46472  13.805  14.218  15.629  0.0568 -0.2965 -0.1274
30399W        W46473   9.577   2.084  16.040  0.1175  0.3920 -0.2574
30400W        W46474   5.769  12.729   3.367 -0.0227  0.3132  0.0660
30401W        W46475   4.576   1.606   1.076 -0.2229 -0.1341 -0.0502
30402W        W46476   2.655  12.081   2.860  0.4795 -0.0745  0.1421
30403W        W46477  15.350  11.347   4.549  0.0413 -0.2173 -0.0172
30404W        W46478  10.058   0.265   0.361  0.0598 -0.2997  0.0301
30405W        W46479   8.262  14.084  13.253 -0.1346  0.1587 -0.1175
30406W        W46480   3.101  17.145  12.479 -0.1490  0.3468  0.0275
30407W        W46481   9.717   4.190  11.541 -0.1167  0.2214  0.0221
30408W        W46482   3.376  13.120   3.544 -0.1134 -0.0987 -0.0035
30409W        W46483  15.543   8.608   0.331 -0.3430 -0.1564  0.1063
30410W        W46484  11.016  13.991  14.118  0.1666 -0.2741 -0.0093
30411W        W46485   9.383   7.160  12.374  0.1154  0.0328  0.3320
30412W        W46486   5.218   2.338   5.170  0.1919 -0.0782  0.0468
30413W        W46487   9.107  10.355  16.060  0.0522 -0.0492  0.0355
30414W        W46488   6.416   1.795  14.305 -0.0743 -0.0861 -0.1900
30415W        W46489   7.037  14.153  16.396  0.3198 -0.2574  0.1578
30416W        W46490  11.684   0.895  12.599  0.0683 -0.1910 -0.1046
30417W        W46491   3.775   6.369  13.449  0.1255 -0.0275 -0.1449
30418W        W46492  17.017  15.879   6.018 -0.3891  0.3253  0.4037
30419W        W46493  18.095   6.073  15.806  0.1088 -0.1230  0.0781
30420W        W46494   7.096  13.461   4.271 -0.0313  0.3378 -0.0031
30421W        W46495  15.258  15.395   1.487  0.0073  0.0624  0.1165
30422W        W46496  17.620   6.412   1.399  0.1196  0.3082  0.3248
30423W        W46497  13.316  13.519  15.570  0.1110  0.0879 -0.1277
30424W        W46498   2.786   3.491   0.379  0.0220 -0.1841 -0.0894
30425W        W46499  17.772   3.052  13.145 -0.1578 -0.0394 -0.0462
30426W        W46500  13.715  17.092   1.038 -0.0830 -0.1008 -0.0605
30427W        W46501   4.812   6.614  14.347 -0.1418  0.0275 -0.1709
30428W        W46502   6.632  12.358  11.919 -0.1176 -0.2656  0.0876
30429W        W46503  16.165   7.062   2.052 -0.0249 -0.1459 -0.2803
30430W        W46504  17.824   2.560   2.051  0.0562  0.0196 -0.0173
30431W        W46505  11.817  15.414   1.412 -0.0949  0.1189  0.1442
30432W        W46506   7.519   0.057   1.480  0.0175  0.0700 -0.1639
30433W        W46507   0.686   4.063   1.007 -0.0107  0.2879  0.1365
30434W        W46508   4.257  10.410   3.612 -0.2821  0.1865  0.1089
30435W        W46509   9.391  13.037   5.954  0.0317  0.1883 -0.1990
30436W        W46510  13.724  12.941  16.287  0.1432  0.0187 -0.0178
30437W        W46511   8.896   2.417   2.918  0.1479 -0.0296  0.0437
30438W        W46512   7.868   4.230  12.463 -0.4616  0.1656 -0.2176
30439W        W46513   5.427   0.395  15.517  0.1062  0.1127  0.0597
30440W        W46514   2.821  11.203   1.669  0.0977 -0.3246 -0.0466
30441W        W46515  13.251  15.105   0.488 -0.0873 -0.1286  0.1620
30442W        W46516   3.948  12.122  11.859 -0.4849 -0.0418 -0.1265
30443W        W46517  18.194   4.707   2.572  0.1209 -0.0905 -0.4543
30444W        W46518   2.322   9.095   3.138 -0.1646 -0.0537  0.0375
30445W        W46519  11.088   4.325  13.390 -0.1795 -0.1566  0.1462
30446W        W46520   9.159  12.434   2.841  0.4479 -0.3009  0.0533
30447W        W46521  12.652  14.966   1.849  0.0408  0.0308 -0.1205
30448W        W46522   9.118  11.872   6.049  0.2492 -0.0274 -0.0895
30449W        W46523  10.600   9.164   6.005 -0.0810  0.1127 -0.0919
30450W        W46524   6.941  11.517  14.575 -0.1517  0.1090 -0.1512
30451W        W46525   9.954  11.032   0.346 -0.2795  0.0208 -0.2565
30452W        W46526   3.296  14.247   5.103 -0.1560 -0.0854  0.2560
30453W        W46527   7.781  13.127  16.303 -0.1249  0.2714  0.1402
30454W        W46528   9.772   3.013  12.379 -0.0456 -0.2686 -0.0094
30455W        W46529  17.693   7.942   4.475  0.1313  0.1890  0.1988
30456W        W46530   1.024  10.415   3.190 -0.0162  0.0764  0.1959
30457W        W46531   5.679   0.581   5.317  0.0843 -0.3115 -0.1435
30458W        W46532  11.731  13.849  14.922  0.2147  0.2290  0.0034
30459W        W46533  12.843   6.336   4.513  0.0866  0.0481  0.0752
30460W        W46534  10.003  17.705  14.729 -0.1313 -0.0736  0.2256
30461W        W46535   6.301  10.398  13.941 -0.0431  0.0162  0.0378
30462W        W46536   8.442   5.817  14.914 -0.2794 -0.0609  0.0799
30463W        W46537  14.887  15.564   3.427 -0.0023  0.0191 -0.1526
30464W        W46538   8.113   7.422   3.646  0.1336  0.2468 -0.1084
30465W        W46539  12.279   2.355  14.068 -0.1205  0.1496  0.1905
30466W        W46540   5.989   3.898   2.673 -0.0201 -0.0323 -0.3799
30467W        W46541  17.848   9.099  14.295 -0.2578 -0.0277 -0.0542
30468W        W46542   1.869   1.185   3.487  0.2082 -0.0203  0.2153
30469W        W46543   4.047   4.328  16.286  0.1750  0.1386 -0.1110
30470W        W46544  16.575  17.738   0.154  0.0788 -0.0853 -0.1836
30471W        W46545  13.599   1.024  14.500 -0.2363 -0.2297  0.0335
30472W        W46546  11.654  15.867  15.417  0.1048  0.1273 -0.2655
30473W        W46547  13.751   3.613  11.789  0.1233  0.2868  0.0350
30474W        W46548  15.080  15.158   3.172  0.2257 -0.3035 -0.2366
30475W        W46549   5.615  15.448  13.676  0.1139  0.0890 -0.3011
30476W        W46550  12.252   7.529  15.829  0.0505  0.0664  0.1500
30477W        W46551   1.100   8.267   3.685 -0.2444  0.2554  0.1299
30478W        W46552   7.319  14.544   1.674  0.1539 -0.4782  0.1022
30479W        W46553  17.796   8.417   4.275 -0.0323  0.2009  0.0131
30480W        W46554  10.525   8.825   5.166 -0.2003 -0.1749 -0.0389
30481W        W46555   8.124   0.502  12.782 -0.1016 -0.1084 -0.0747
30482W        W46556  17.013   2.479   1.736  0.1496 -0.0404  0.1590
30483W        W46557  18.113   5.895  11.572 -0.1556  0.1037  0.1260
30484W        W46558   9.346   3.619  14.038 -0.3905  0.0589  0.0367
30485W        W46559   8.516  12.337   0.000 -0.2789 -0.1636 -0.2202
30486W        W46560  16.611  13.829  14.211  0.0914 -0.2114 -0.0472
30487W        W46561   1.404   1.707   4.363 -0.0227  0.1042  0.0788
30488W        W46562  11.478   6.014   6.171 -0.5776 -0.0031  0.0468
30489W        W46563   1.020  13.871  13.332 -0.0357 -0.1696  0.0063
30490W        W46564  13.780   3.694   3.557  0.1371 -0.0558 -0.2365
30491W        W46565   7.584  11.736  14.101 -0.2510 -0.0719 -0.3003
30492W        W46566  11.855   2.469   3.178 -0.2887 -0.1511  0.2539
30493W        W46567   2.938   4.480  12.105 -0.1059  0.0400 -0.2016
30494W        W46568   2.347   0.304   3.453 -0.0439 -0.1845  0.0586
30495W        W46569   2.171   2.703   1.304  0.2234 -0.1230 -0.0623
30496W        W46570   0.431   1.161  10.569  0.0535  0.1446  0.0404
30497W        W46571   3.867   1.180  16.485  0.2377  0.0607 -0.0268
30498W        W46572   8.614   7.972   3.253 -0.1950  0.0189  0.1055
30499W        W46573   7.501  11.294   2.534 -0.0237  0.2784 -0.0931
30500W        W46574   0.506  11.107   1.710 -0.3261 -0.0250  0.0053
30501W        W46575   1.451   0.802  14.173  0.1083 -0.2189  0.1454
30502W        W46576   0.797  10.173   5.448  0.0838  0.0056  0.0289
30503W        W46577   4.834  12.139   5.522 -0.0032  0.0725  0.0234
30504W        W46578  12.425   7.640  12.291 -0.2388  0.2139  0.2577
30505W        W46579  15.493  16.619  15.926  0.0956 -0.4198 -0.1807
30506W        W46580  13.021   3.486  11.788  0.0285 -0.1263 -0.1798
30507W        W46581  11.141   0.677   3.440 -0.1973 -0.1845  0.1041
30508W        W46582  12.684   1.533  13.583 -0.1936 -0.0101  0.3856
30509W        W46583  13.909  15.498   3.875  0.0117  0.0437  0.0407
30510W        W46584   4.788  11.396   2.031  0.0047  0.3324 -0.1484
30511W        W46585  13.746   7.811  11.258  0.1319  0.1977  0.2053
30512W        W46586  14.978   8.936   1.779 -0.3961  0.1785 -0.2003
30513W        W46587  16.597   2.073   3.782 -0.0606  0.2626 -0.2838
30514W        W46588  12.043   9.716   6.403 -0.0414 -0.0179 -0.0939
30515W        W46589   4.760  15.960   1.872 -0.2243  0.1329  0.2923
30516W        W46590  13.390  14.892  15.771 -0.0316 -0.0266 -0.2175
30517W        W46591   5.015   8.067  11.541  0.3624  0.2268  0.3180
30518W        W46592  13.602  12.821   3.523  0.0915  0.0848  0.1321
30519W        W46593   8.023   1.525  11.546 -0.1044 -0.0417 -0.3116
30520W        W46594   3.205  11.363   3.065  0.0092 -0.3795 -0.1721
30521W        W46595   6.085   8.432  12.562  0.0658 -0.0672 -0.0726
30522W        W46596  18.188   5.742  13.804  0.0812  0.2789  0.1584
30523W        W46597   2.317   0.000   0.467 -0.2432 -0.0428 -0.3330
30524W        W46598  13.595  16.698   6.007 -0.0985  0.0416  0.2057
30525W        W46599   2.277   9.080  11.906  0.1128  0.0952 -0.0918
30526W        W46600  12.815   3.169  15.523 -0.2154 -0.0048  0.1845
30527W        W46601   9.106  14.314  15.305  0.2496 -0.0161  0.1110
30528W        W46602  13.701  15.654   4.698  0.1625  0.2879 -0.2967
30529W        W46603  16.179   4.202  13.310 -0.0031  0.0836 -0.2508
30530W        W46604  10.464   2.782   0.501 -0.2965  0.2418 -0.0466
30531W        W46605   5.336   0.248  15.010  0.1288  0.0886  0.0644
30532W        W46606   5.409  15.489   3.621  0.4099 -0.1223  0.0147
30533W        W46607   3.061   8.730  14.176  0.0098 -0.1678 -0.0940
30534W        W46608   8.715   1.465   4.358 -0.0586 -0.0590 -0.0590
30535W        W46609   5.481  12.207   5.293 -0.0497  0.2147 -0.1271
30536W        W46610   1.250   0.872   1.810  0.2422 -0.1345 -0.1746
30537W        W46611   2.100  12.767   2.221 -0.0745  0.3139  0.0445
30538W        W46612  17.633   2.377  12.465  0.4727 -0.0085  0.5792
30539W        W46613   9.801   9.655   5.135  0.0802 -0.0745  0.0343
30540W        W46614   1.875   3.105   1.391  0.0481  0.1700 -0.0944
30541W        W46615  18.219  10.949   4.544  0.0901 -0.1707 -0.1580
30542W        W46616   6.992   5.286   2.521  0.0986 -0.0910  0.1942
30543W        W46617   3.969  12.859   3.836 -0.1382  0.1570 -0.0341
30544W        W46618   1.363  11.218  12.667  0.2009  0.0203  0.0700
30545W        W46619  17.051  13.638  16.475 -0.1378  0.1157  0.0882
30546W        W46620   8.334   8.855  12.707 -0.1242  0.0619  0.1770
30547W        W46621  10.341   0.270   2.354  0.0636 -0.0117  0.0357
30548W        W46622  14.549   0.575   1.689 -0.1032  0.2036 -0.0617
30549W        W46623  10.879  15.599   2.342  0.0451  0.1511 -0.1406
30550W        W46624  17.406   9.463  13.040 -0.0429  0.1196 -0.1332
30551W        W46625   2.767   7.888   3.564  0.0632 -0.2901 -0.2264
30552W        W46626  15.543  16.128   3.780  0.3253 -0.1409  0.0181
30553W        W46627  10.099  15.445  14.745 -0.2977 -0.0386  0.0733
30554W        W46628  13.568  13.838   3.204  0.2102  0.0739  0.1883
30555W        W46629   1.208  14.597  15.594  0.2359  0.2408 -0.0475
30556W        W46630   7.785  10.666  14.345  0.1070  0.1859 -0.1395
30557W        W46631   1.458   7.249  10.711  0.0150 -0.1664 -0.3697
30558W        W46632  13.883  17.536   0.012 -0.2054  0.0784 -0.2019
30559W        W46633   9.030   7.206  13.910  0.0796  0.0806 -0.2414
30560W        W46634  11.509  15.384   4.838 -0.2650  0.1296 -0.0040
30561W        W46635   4.974   6.649   4.670 -0.2438 -0.4079  0.1027
30562W        W46636  10.677   4.802   3.581 -0.2647 -0.2039 -0.0045
30563W        W46637   5.336  16.438   2.462 -0.0215 -0.1334  0.0287
30564W        W46638   8.482   6.041   4.073 -0.0903  0.2816 -0.3601
30565W        W46639  11.015  10.342  15.009  0.0400 -0.1114  0.0426
30566W        W46640  16.168   5.709   1.980  0.1771  0.0717 -0.2599
30567W        W46641   2.493   2.940  13.470  0.0625  0.0594 -0.1193
30568W        W46642  12.978  13.091  15.303  0.3969 -0.0252 -0.0044
30569W        W46643  17.123  13.125  16.226  0.1171  0.0816  0.3261
30570W        W46644   7.310   8.625   3.590  0.0711 -0.0304 -0.0567
30571W        W46645  12.523   1.046   1.872 -0.0437 -0.0085 -0.1789
30572W        W46646   1.642   2.352  15.316 -0.4161  0.0734 -0.2251
30573W        W46647   0.152   8.774  15.395 -0.0285 -0.0860 -0.0520
30574W        W46648   1.197  13.681  11.406 -0.1620 -0.2685  0.0296
30575W        W46649   2.601   8.429  15.229  0.1260  0.1423  0.2326
30576W        W46650   7.110   9.555  13.712  0.1798  0.3289 -0.0508
30577W        W46651  15.341   0.579  16.393  0.1130  0.4476  0.1152
30578W        W46652  12.019  12.620   0.869  0.0439  0.1137 -0.1172
30579W        W46653   1.829  17.694   2.306 -0.1526 -0.3057  0.3023
30580W        W46654  13.812   9.710   3.840 -0.3154  0.2501  0.0813
30581W        W46655   6.337  12.578   1.039 -0.1900  0.0211  0.2830
30582W        W46656  18.113  15.403  15.103 -0.0202  0.2312 -0.1746
30583W        W46657   1.515   4.916  15.976  0.1062  0.0870  0.0156
30584W        W46658  18.175   1.091   4.995 -0.0179 -0.0989 -0.0312
30585W        W46659  11.316   7.473  12.971  0.0174 -0.0152  0.0535
30586W        W46660   7.275  10.698   5.037 -0.1117 -0.0336 -0.4361
30587W        W46661   0.030   7.723   0.092 -0.1487  0.0994  0.0155
30588W        W46662  15.643  12.362  16.201  0.0428  0.3125 -0.0582
30589W        W46663   2.169   7.942  16.002 -0.2465 -0.2071  0.1970
30590W        W46664   5.851   9.861   1.233  0.0046 -0.0488 -0.0094
30591W        W46665  13.003  13.030  13.066  0.2398  0.2628 -0.1652
30592W        W46666   4.922   2.813  11.601 -0.2571 -0.1002 -0.0807
30593W        W46667   8.083  10.892   3.818 -0.1639 -0.1725  0.0363
30594W        W46668  17.418   4.212   3.595  0.0809 -0.2439  0.2362
30595W        W46669  12.977   7.658  16.424 -0.0024  0.1646  0.3620
30596W        W46670  14.555  15.131  14.494  0.0823  0.1516  0.1956
30597W        W46671  12.060   0.880  15.291 -0.0499  0.0285  0.1032
30598W        W46672   6.584   8.853  13.978  0.0026  0.1113 -0.0574
30599W        W46673   1.277  17.226   4.200  0.2713  0.4723  0.1128
30600W        W46674  15.161   1.701   2.043 -0.1435 -0.3594  0.0229
30601W        W46675  10.681   2.883  13.160  0.4970  0.0073  0.1423
30602W        W46676   6.473  11.717  14.648  0.0364 -0.0243  0.1284
30603W        W46677   3.431   7.011  14.101 -0.3395 -0.0691 -0.0686
30604W        W46678  17.608  17.447   2.579 -0.1128  0.0244 -0.1004
30605W        W46679   2.060   1.093   5.535 -0.0954  0.2134 -0.0167
30606W        W46680  13.254   9.208   2.647  0.2140  0.0942 -0.3075
30607W        W46681  14.961  14.201   5.602 -0.0702  0.2306  0.1024
30608W        W46682  13.736   2.429  13.942 -0.1200  0.0832  0.2798
30609W        W46683   1.266   5.316  13.643  0.1014  0.3790 -0.2048
30610W        W46684   4.992   7.376   3.698 -0.1948 -0.0616  0.2872
30611W        W46685   0.442   8.584  12.661 -0.0775  0.0077 -0.2965
30612W        W46686   6.247  15.029   3.845 -0.1645  0.2167 -0.1758
30613W        W46687   3.123   8.987  13.120 -0.0332  0.0438 -0.1920
30614W        W46688   6.646   6.133   2.176 -0.1550  0.0436  0.1990
30615W        W46689   1.819  11.367   1.971 -0.3017  0.2178 -0.3097
30616W        W46690  12.864   3.278  15.031  0.1917  0.0474  0.1290
30617W        W46691  17.469   1.413  14.693 -0.0666 -0.0001  0.0424
30618W        W46692   1.536  10.090  12.198 -0.1331  0.1114  0.4427
30619W        W46693   2.816  10.991   4.343 -0.1143 -0.0410 -0.2060
30620W        W46694  11.624   5.771  15.853 -0.2531 -0.0923 -0.0444
30621W        W46695   9.092   4.983  14.356  0.0007 -0.3259  0.4331
30622W        W46696   6.878   9.472   4.405 -0.0266  0.3389  0.0120
30623W        W46697   8.034   8.448  11.888  0.1651 -0.0359 -0.2996
30624W        W46698   4.266   9.158   1.605 -0.1968 -0.0177 -0.0326
30625W        W46699  12.504   5.236  14.618 -0.0188  0.1462 -0.0108
30626W        W46700  15.946  15.414   2.148  0.2585 -0.2894 -0.0117
30627W        W46701  12.830   9.943  12.622 -0.0601 -0.2865  0.4039
30628W        W46702  16.482   9.418   1.996 -0.2793 -0.0756  0.1193
30629W        W46703   1.988   2.523   4.521 -0.0679 -0.2503 -0.1778
30630W        W46704  15.867   8.076  14.660  0.1762 -0.2188  0.0623
30631W        W46705   8.769  10.142   1.543 -0.2452 -0.2026 -0.0082
30632W        W46706  14.799  17.591  13.500  0.1604 -0.1551  0.1774
30633W        W46707   7.068   4.089   5.998  0.0017  0.1138 -0.1388
30634W        W46708   5.722  17.627  15.274  0.1592 -0.1984  0.4545
30635W        W46709   0.041  11.537   3.460  0.1488 -0.0335  0.3589
30636W        W46710   6.009   4.039  13.923 -0.1616 -0.0091  0.0144
30637W        W46711  17.769   0.494   1.509  0.0591 -0.2097 -0.0679
30638W        W46712  14.916   6.325   3.519  0.0089 -0.0960  0.0967
30639W        W46713   9.717  13.536  12.339  0.2233  0.2319 -0.1338
30640W        W46714  14.298  12.004   3.885 -0.3272 -0.0757  0.3089
30641W        W46715   4.741  14.102   2.903  0.1002  0.0571  0.1084
30642W        W46716   0.838   4.399  11.389  0.2779  0.2736  0.1823
30643W        W46717   5.114   1.088   0.588  0.0237  0.3394  0.0983
30644W        W46718  16.836  16.443  13.711  0.2903 -0.0383  0.0162
30645W        W46719   0.698   2.486  12.695 -0.0266  0.2297  0.0439
30646W        W46720   5.696   3.601  12.937 -0.2347 -0.1615  0.1497
30647W        W46721   6.394  14.933   1.327 -0.0597 -0.0318 -0.0901
30648W        W46722  10.716   7.690  12.794 -0.1810  0.1168  0.3091
30649W        W46723   2.490   0.196  14.801 -0.1578  0.1841 -0.0298
30650W        W46724   3.738   3.391  11.959 -0.0120 -0.3558 -0.1643
30651W        W46725  10.277  15.664   1.092 -0.0429  0.1185  0.2005
30652W        W46726   4.530   7.954  13.320  0.1118  0.1165 -0.0250
30653W        W46727  17.639   1.611  13.511 -0.0564 -0.2570 -0.0460
30654W        W46728  16.415   9.311  13.781  0.0607  0.0463  0.0090
30655W        W46729  17.345   7.671   3.689  0.0032  0.1850 -0.0266
30656W        W46730  15.134  11.870   4.847  0.0340 -0.1801  0.2009
30657W        W46731   2.127   4.796  15.215  0.0455  0.2107  0.1160
30658W        W46732   6.478  10.710  15.393  0.1405  0.2541 -0.0332
30659W        W46733   3.918   3.803   0.141 -0.0791  0.1654 -0.1356
30660W        W46734  13.157  12.619  14.353 -0.0059  0.0094  0.0571
30661W        W46735  17.895   9.373  13.754  0.0284 -0.2200  0.0089
30662W        W46736  15.914  16.416   1.324 -0.0932  0.0126 -0.2838
30663W        W46737  14.480   9.749   5.992  0.1124  0.0902  0.2721
30664W        W46738  14.460   0.755  14.886  0.0859  0.1835 -0.4389
30665W        W46739   5.640  12.236   0.219 -0.3725  0.0764 -0.0498
30666W        W46740  17.011   7.799   3.346  0.2337 -0.1939 -0.0111
30667W        W46741  14.199  12.989   5.816  0.0647 -0.2335 -0.1183
30668W        W46742  12.316  13.119  14.102 -0.0209  0.3350 -0.3358
30669W        W46743  17.035   1.231  15.888  0.3719 -0.0990  0.3784
30670W        W46744  14.738  13.238  16.396  0.1508  0.0830  0.0559
30671W        W46745  13.336  16.620  12.101  0.2181  0.1559  0.1113
30672W        W46746   9.713   5.259  12.024 -0.2273 -0.0275  0.0523
30673W        W46747  16.198  17.328   4.937  0.0600 -0.2431 -0.3348
30674W        W46748   6.520  13.388  13.362 -0.2643 -0.0501  0.1616
30675W        W46749  11.041  13.080   1.093  0.0974  0.3766  0.0659
30676W        W46750   9.941   6.663  14.936  0.1309 -0.0721 -0.3722
30677W        W46751   1.988  15.977   6.020  0.1046  0.1613  0.1430
30678W        W46752  15.355  14.837  15.589  0.0512  0.1338  0.0347
30679W        W46753   1.506   1.413   3.859  0.1617  0.1885 -0.0845
30680W        W46754   6.693  14.230   1.800 -0.0096  0.0952 -0.0551
30681W        W46755   6.536   8.122  14.594  0.0339 -0.2015 -0.0752
30682W        W46756   4.389  13.979  15.581 -0.2260 -0.0983  0.2946
30683W        W46757   7.277  14.561  15.212  0.0540  0.0886 -0.0101
30684W        W46758   7.326   8.647   4.933  0.0069  0.2112 -0.1490
30685W        W46759  11.587  18.218  11.976 -0.1387 -0.5509  0.1594
30686W        W46760  14.464  17.670   2.507 -0.1086 -0.0661  0.2180
30687W        W46761   1.953  16.813   2.650  0.0085 -0.0972  0.1633
30688W        W46762  16.774   1.016  11.291 -0.1594  0.0274 -0.1553
30689W        W46763   3.359   6.724   0.115  0.1956  0.3521  0.1044
30690W        W46764   1.293  12.129   2.798  0.2672  0.0263 -0.0108
30691W        W46765  13.319   3.391  15.140  0.0879  0.0695  0.2012
30692W        W46766   6.956   7.948   3.371 -0.4724  0.0442  0.3639
30693W        W46767   0.732  16.625   1.354  0.2793  0.1404 -0.1374
30694W        W46768   9.753  14.049   4.099  0.0550 -0.0530  0.0015
30695W        W46769   2.963   9.225   0.283  0.1423  0.0329 -0.0275
30696W        W46770  13.857  17.011   2.987 -0.0621  0.5020  0.1444
30697W        W46771  17.379  13.118  15.095  0.2314  0.1189 -0.2770
30698W        W46772   3.603   8.178  11.624 -0.3202 -0.1181  0.2576
30699W        W46773  15.427  14.195   5.463  0.3409  0.0479  0.2444
30700W        W46774   3.759  14.525  12.540 -0.1953 -0.1151 -0.0672
30701W        W46775   2.183   7.859   1.668  0.0285 -0.2628 -0.4558
30702W        W46776   5.598  16.235   2.830 -0.2172 -0.0946 -0.0706
30703W        W46777   3.997  17.386  14.523 -0.1025  0.3512 -0.0197
30704W        W46778  15.296  14.367  14.326 -0.0633 -0.0152  0.0239
30705W        W46779   8.348   2.938   3.853  0.0510  0.1077  0.2979
30706W        W46780   1.600  12.534   2.012  0.0232 -0.1418  0.0052
30707W        W46781   0.521   6.234  16.267  0.1104 -0.2534  0.2686
30708W        W46782   7.737  15.397   5.665  0.1701 -0.2373 -0.1669
30709W        W46783  18.180   3.805  14.263 -0.0565  0.0825  0.3986
30710W        W46784   6.965   3.970   1.486 -0.0309  0.1945  0.1478
30711W        W46785   7.332   1.687   1.006  0.0248 -0.0686 -0.2769
30712W        W46786   5.413  14.492   1.556  0.0138  0.1368  0.4433
30713W        W46787  10.323   7.784  13.946  0.2897  0.0594  0.2473
30714W        W46788   6.393   0.284  15.934 -0.0274 -0.1384 -0.0102
30715W        W46789  14.096   9.479   0.147 -0.1604 -0.0395 -0.3222
30716W        W46790   5.763  15.428  12.037 -0.0640 -0.0683  0.2098
30717W        W46791   6.686   7.255  13.441  0.0813  0.2449  0.0560
30718W        W46792   3.676   0.764  11.799 -0.3582  0.1675  0.2327
30719W        W46793  12.229   0.354   4.657  0.3229  0.3426 -0.1760
30720W        W46794  13.204  16.131   2.974 -0.0341  0.0438 -0.4154
30721W        W46795   0.603  12.756  15.659 -0.1680 -0.0169  0.0878
30722W        W46796   2.977  14.901  13.449  0.2442 -0.4305 -0.3065
30723W        W46797  10.859  15.418   5.389 -0.3445  0.2334 -0.0684
30724W        W46798   6.011  14.081  13.591 -0.2950  0.2394  0.0025
30725W        W46799   1.519  16.028  15.542  0.3266  0.0356  0.3027
30726W        W46800  13.529  10.254   2.115 -0.0181  0.1129 -0.0913
30727W        W46801  12.585  15.316   1.046 -0.4320  0.0206 -0.5176
30728W        W46802   3.345  10.251  13.732  0.1514  0.0663 -0.2053
30729W        W46803   4.025   3.273   3.488  0.1750  0.1917  0.1485
30730W        W46804  17.148   2.708  13.900 -0.4199 -0.1176 -0.3060
30731W        W46805   6.527  17.295   2.063 -0.1695 -0.0232 -0.0604
30732W        W46806   2.585   9.266  12.615  0.1065 -0.1377 -0.4134
30733W        W46807  13.527   7.125   5.984  0.1400 -0.0885  0.1634
30734W        W46808   1.151  10.925  11.694  0.1080  0.3524  0.0460
30735W        W46809   8.735   3.382  12.108  0.0331  0.2293  0.2149
30736W        W46810   9.676  11.716   2.309  0.0725 -0.2966 -0.0030
30737W        W46811   5.237  12.778  14.306  0.2764 -0.1131 -0.2101
30738W        W46812   6.179  18.124   3.124 -0.0983 -0.1167 -0.3023
30739W        W46813  10.664   1.009   6.170 -0.3963 -0.4960 -0.0976
30740W        W46814   2.625   0.486   3.883  0.0587 -0.1157  0.1666
30741W        W46815   4.529   3.921   5.336  0.1990  0.0760  0.0438
30742W        W46816   2.771   7.219  11.991  0.0487 -0.0727 -0.0855
30743W        W46817  10.850  16.018  10.489 -0.1672 -0.0344  0.0113
30744W        W46818  15.530   8.250   5.920  0.1253 -0.0845 -0.3269
30745W        W46819   8.182   9.413  12.282 -0.0394  0.1847 -0.0475
30746W        W46820   6.037   3.271   1.202  0.4043  0.0233  0.0024
30747W        W46821  14.996   4.032   0.309  0.0573 -0.3784  0.0081
30748W        W46822  12.327   0.480  14.542  0.0448 -0.1329  0.0760
30749W        W46823   0.338  16.406   4.228  0.0327  0.0291 -0.1551
30750W        W46824   9.356  15.985   1.919 -0.3418 -0.0083 -0.3136
30751W        W46825  13.307   6.204  13.779 -0.0957  0.0078 -0.0566
30752W        W46826   3.603   5.625   3.965 -0.0473 -0.0869  0.1577
30753W        W46827   4.253  14.905   0.454  0.1015 -0.0627 -0.0168
30754W        W46828  12.859   1.877  12.509  0.0617 -0.0434 -0.1485
30755W        W46829  10.092   9.160  14.763  0.0149 -0.2168 -0.0332
30756W        W46830   3.027  17.797   3.586  0.1183  0.0418 -0.2360
30757W        W46831  17.218   2.573   5.105  0.0488  0.0237  0.1423
30758W        W46832  16.747   3.107  13.737 -0.1264  0.3219 -0.0330
30759W        W46833  12.370   7.282  11.957  0.2812 -0.2105  0.0523
30760W        W46834  15.290   1.217  13.531 -0.2609 -0.1696 -0.0806
30761W        W46835  12.924  11.119   3.174  0.0125  0.0491  0.2457
30762W        W46836   0.830  14.448   3.129  0.2284  0.3628  0.0410
30763W        W46837  14.382   0.818  14.329  0.4102  0.2719  0.0066
30764W        W46838   1.439   2.982  11.525 -0.0113  0.2648  0.1187
30765W        W46839   8.810  11.053   3.226  0.4089 -0.0665  0.1505
30766W        W46840   6.314   8.875   2.019  0.1593  0.0550 -0.2473
30767W        W46841  12.290   3.061  16.097 -0.0713  0.0256  0.5188
30768W        W46842   6.440   4.719   2.958  0.0859 -0.3134 -0.0779
30769W        W46843   9.056   7.340   5.282 -0.4254  0.1226 -0.0141
30770W        W46844  11.127   2.710   1.342  0.1618  0.0900  0.3544
30771W        W46845  12.929   3.203  16.044 -0.3322  0.0243 -0.2270
30772W        W46846  13.026  15.094   3.263  0.1431  0.0955 -0.0145
30773W        W46847   1.456   8.391  16.217 -0.0754 -0.0683  0.2313
30774W        W46848   1.948  15.137  12.585  0.0648  0.0651 -0.3546
30775W        W46849   5.769  10.186  16.495 -0.2957 -0.0568  0.0826
30776W        W46850  16.540   8.292   5.706 -0.3578  0.0806 -0.1288
30777W        W46851   3.652  12.590  10.791  0.0302  0.1151 -0.0978
30778W        W46852   3.301  10.576   1.812  0.3623 -0.3329  0.0267
30779W        W46853   5.810  13.878  13.196 -0.0191 -0.0545  0.0648
30780W        W46854   6.793   2.491   3.415  0.0944  0.0614  0.2192
30781W        W46855  16.931  12.461   1.784  0.4104 -0.1023  0.0904
30782W        W46856  13.147  12.984   3.305 -0.0207 -0.3973  0.1214
30783W        W46857   1.914  12.284  14.167 -0.0051  0.1175  0.1741
30784W        W46858   1.602   6.220   0.728  0.1949  0.2351 -0.0460
30785W        W46859  10.866   3.131  15.834  0.0252 -0.0437  0.1038
30786W        W46860  14.539  14.617   2.962  0.0033 -0.0326  0.4721
30787W        W46861  15.373  14.158   3.233 -0.1523  0.4234 -0.2175
30788W        W46862   6.877  13.868   2.337 -0.1260 -0.1245  0.3307
30789W        W46863   9.693  16.170   4.064  0.0754  0.2753 -0.1651
30790W        W46864   1.465   4.460  13.534 -0.1331  0.0207  0.2934
30791W        W46865  16.040   7.140  15.902 -0.3202 -0.1912 -0.0948
30792W        W46866   1.667  14.649   1.243  0.2101  0.1130 -0.2123
30793W        W46867   7.708   5.655  11.290 -0.1958  0.1594  0.1100
30794W        W46868   8.634   2.527  14.091 -0.0499 -0.1131  0.0037
30795W        W46869   7.328  16.541   3.411  0.0917 -0.0589  0.1109
30796W        W46870  11.365   5.845   2.943  0.0165  0.0164  0.1011
30797W        W46871  13.440  17.346   1.493 -0.1423 -0.0335  0.0936
30798W        W46872  14.283  10.980   2.307  0.0673 -0.1689  0.1596
30799W        W46873  11.117   1.490  15.108 -0.0386 -0.0240  0.0564
30800W        W46874  17.267   6.388  11.249 -0.1050 -0.2610 -0.0322
30801W        W46875  16.074  14.646   4.018  0.2506  0.0776  0.0425
30802W        W46876   1.623  17.181   2.370  0.2302 -0.0406 -0.0335
30803W        W46877   0.008   9.473  16.176 -0.1748 -0.0398 -0.0528
30804W        W46878   3.413  10.733   3.785 -0.0396 -0.1100 -0.0752
30805W        W46879  12.214   8.732  12.960 -0.2021  0.1576 -0.1959
30806W        W46880  13.283   4.399   3.547 -0.0981  0.2567  0.1425
30807W        W46881   4.172   9.025   5.093 -0.2798 -0.0534  0.0617
30808W        W46882  10.282  12.291   4.673  0.0446  0.1009  0.1731
30809W        W46883  12.127  13.570   1.146  0.0043  0.0540 -0.0261
30810W        W46884   6.468  12.817  12.704  0.0083  0.1643  0.3023
30811W        W46885   6.098  17.767  15.601 -0.0782 -0.0635  0.0611
30812W        W46886  13.001  17.491   3.404 -0.1835  0.0213 -0.3558
30813W        W46887   8.797   2.141  15.008 -0.2089 -0.0554  0.0712
30814W        W46888  11.694   0.797  14.748 -0.1933 -0.1784 -0.0265
30815W        W46889  10.871  14.742  15.659 -0.2765 -0.0635 -0.1718
30816W        W46890   9.531   5.943   1.270  0.1642 -0.0277 -0.0962
30817W        W46891   4.162  16.460  12.238  0.1348  0.5483 -0.0681
30818W        W46892  10.781   3.812   2.001  0.0863  0.0311  0.3138
30819W        W46893   0.243  16.356   1.440  0.0390  0.0079  0.1318
30820W        W46894   4.884   7.064  15.884  0.1669 -0.0694  0.0947
30821W        W46895   0.360   7.320   1.861  0.0325 -0.0188 -0.0257
30822W        W46896  11.614  16.612   5.203 -0.2769 -0.2395  0.0333
30823W        W46897   9.623   0.730   5.098 -0.0615 -0.0700 -0.1000
30824W        W46898   7.735   1.470   6.359 -0.1044  0.4539 -0.0273
30825W        W46899   7.575   7.847  16.257  0.2703  0.4460 -0.1820
30826W        W46900   9.056   2.402  15.786  0.0275  0.2297 -0.1751
30827W        W46901   5.895  16.545   3.208 -0.2225 -0.0873  0.4364
30828W        W46902   8.658  10.397  15.758  0.1963 -0.0713 -0.1889
30829W        W46903  16.971  17.929  13.889 -0.0356  0.0277 -0.0639
30830W        W46904  13.933   3.754   5.904 -0.1320 -0.1159 -0.0610
30831W        W46905  10.508   2.038  16.339 -0.3595  0.2948 -0.0328
30832W        W46906  15.091   1.238  12.587 -0.2585  0.1805  0.1587
30833W        W46907  10.132  17.537  15.207  0.1705 -0.0696 -0.1384
30834W        W46908   1.201  17.560  12.830 -0.0914  0.0845 -0.0846
30835W        W46909   1.167  11.397  15.275  0.0513  0.0935 -0.0563
30836W        W46910   7.324  11.333   3.336 -0.2025  0.0990  0.3135
30837W        W46911   8.239  11.728  15.882 -0.2759 -0.0659 -0.2041
30838W        W46912  17.834   4.721   4.384  0.1826 -0.1687 -0.0490
30839W        W46913  10.582   8.636   4.708  0.0016  0.4969 -0.2700
30840W        W46914   2.032   8.490   4.280 -0.2445  0.0151  0.0836
30841W        W46915  10.362   9.823  14.195 -0.1515  0.1303  0.0732
30842W        W46916   0.899  13.212  15.620  0.0187  0.1914 -0.2033
30843W        W46917  13.710  12.527  13.440  0.0681 -0.4638  0.0529
30844W        W46918  12.766   2.942   0.448 -0.3443 -0.0965 -0.4212
30845W        W46919   0.090   8.239   4.515 -0.4797 -0.2136 -0.0279
30846W        W46920  10.962  13.345  16.364  0.0006 -0.2384  0.0266
30847W        W46921   0.813  13.967   0.222  0.4248 -0.0259 -0.2403
30848W        W46922  15.438   0.093   3.718  0.1366  0.2568 -0.3504
30849W        W46923   6.991  10.677   1.771 -0.0096 -0.0307  0.0007
30850W        W46924  10.770  10.903  12.356  0.2647 -0.0804  0.2020
30851W        W46925   6.933  17.594   0.441 -0.0072  0.0174 -0.2191
30852W        W46926  15.078  15.481   0.664  0.1445  0.0434  0.2315
30853W        W46927  15.369  12.722   3.798 -0.1727  0.0406 -0.0221
30854W        W46928   9.375   3.897   2.834  0.0263 -0.0586  0.3264
30855W        W46929   6.504   6.357  11.608  0.1290  0.3278 -0.1251
30856W        W46930   3.172  11.011  11.921  0.2213 -0.3405  0.0426
30857W        W46931  16.371   7.986  14.521  0.2585 -0.1107 -0.0707
30858W        W46932   8.889   9.665  15.463 -0.2232 -0.1547  0.0405
30859W        W46933   8.678  11.939   4.909  0.0101  0.0772 -0.1528
30860W        W46934   8.104   7.495  16.390 -0.1775 -0.1436 -0.2648
30861W        W46935  12.728  11.127   1.812 -0.0370 -0.0883  0.1279
30862W        W46936  10.043  10.182  15.683  0.0386  0.0405  0.0115
30863W        W46937  10.470   4.949  14.893 -0.1157  0.2710 -0.1447
30864W        W46938   9.567   4.019  12.051 -0.0415 -0.1854 -0.1987
30865W        W46939  17.471   9.808  12.350 -0.2970  0.2727 -0.3089
30866W        W46940  18.035   2.889  14.482 -0.0157  0.1501 -0.1840
30867W        W46941   9.896   0.113   3.619  0.0326 -0.2731  0.0172
30868W        W46942  15.821  10.276  13.986 -0.1121  0.0069 -0.0795
30869W        W46943   7.057  15.614   2.584  0.2505  0.1144  0.1224
30870W        W46944   0.702   2.451   2.702  0.1016  0.3489 -0.4672
30871W        W46945   9.023   2.565   3.399  0.0124  0.0580 -0.1028
30872W        W46946   4.970   4.823  12.365  0.1941 -0.0082 -0.0806
30873W        W46947  16.702  14.143  13.280 -0.2276 -0.1456  0.0894
30874W        W46948  13.943  14.397  15.142 -0.0484  0.1966 -0.0879
30875W        W46949   7.803   2.246   0.343  0.0688 -0.0481 -0.1576
30876W        W46950  15.214  16.180  13.858 -0.3103  0.0715  0.2825
30877W        W46951   5.042   0.790  14.934  0.0416 -0.1895  0.0900
30878W        W46952   0.096  10.528  12.871  0.1980  0.2633 -0.0260
30879W        W46953  14.194  17.155  13.984 -0.0103  0.3168  0.4378
30880W        W46954   3.036   1.355  12.167  0.3949 -0.1707  0.2099
30881W        W46955   5.011   4.868   3.607  0.0475 -0.2227  0.0306
30882W        W46956   3.525   9.689   4.454  0.1453  0.1981 -0.2908
30883W        W46957   7.921   0.047  15.267 -0.1358 -0.2338 -0.2965
30884W        W46958   9.143   5.545  14.451 -0.0278  0.0842 -0.2586
30885W        W46959  15.519   3.579  14.344  0.0446 -0.5584  0.2293
30886W        W46960  14.609  14.653   0.304  0.0130  0.1140  0.3004
30887W        W46961   2.569  12.025  13.955  0.3003  0.1633  0.1975
30888W        W46962   7.656  11.614   1.555  0.1020 -0.2362  0.2889
30889W        W46963   4.852  15.615  13.737 -0.0312  0.1303 -0.0986
30890W        W46964  14.001  13.025   3.774 -0.0443 -0.1836 -0.4228
30891W        W46965   8.948   4.116  13.657 -0.0509  0.1889 -0.2088
30892W        W46966   0.952  10.607   5.597 -0.3135 -0.1798 -0.0976
30893W        W46967   1.252  15.557  12.962 -0.4369  0.2084 -0.3926
30894W        W46968  11.226   6.973   4.288 -0.0480  0.0865 -0.0254
30895W        W46969   0.596  16.014   3.743  0.1297 -0.3515  0.1283
30896W        W46970   0.431  16.935   4.207  0.2270  0.1119 -0.1928
30897W        W46971  11.581  13.968  16.068  0.0242 -0.0673  0.1746
30898W        W46972   4.434   7.377   5.754 -0.2247  0.0458 -0.3122
30899W        W46973   6.856  16.559  14.730 -0.0001  0.1517 -0.2465
30900W        W46974   1.697  17.855  13.973 -0.0672  0.3110 -0.0178
30901W        W46975   5.710   0.222   0.333 -0.0315 -0.1659  0.0918
30902W        W46976  12.563  11.610  13.137 -0.2094 -0.0407  0.4216
30903W        W46977   2.649  15.774  14.167 -0.1539 -0.4554  0.3922
30904W        W46978   5.690   3.915  11.626  0.0127 -0.1301  0.2364
30905W        W46979  18.037   9.154   4.519  0.0344  0.2405  0.1925
30906W        W46980   0.178  13.956  11.663 -0.1754  0.0240  0.0273
30907W        W46981   5.266   6.744  12.018 -0.0692 -0.1306 -0.0479
30908W        W46982   9.168  13.991  12.022 -0.2204  0.0818 -0.1221
30909W        W46983   2.405   6.268   1.932 -0.1855 -0.0565 -0.1003
30910W        W46984   2.505  10.965   3.531 -0.0945  0.1667 -0.0899
30911W        W46985   7.860   9.584   3.378 -0.2628  0.1370  0.0346
30912W        W46986  16.464   5.200  12.443 -0.6263  0.1099 -0.0568
30913W        W46987   9.332   8.781  11.891  0.0277 -0.2308  0.1041
30914W        W46988   7.060  17.507  16.017 -0.1580  0.0332 -0.2139
30915W        W46989   0.506   9.314   0.730  0.4662  0.0268 -0.0429
30916W        W46990  12.888  11.989   2.076  0.1743  0.3327 -0.0886
30917W        W46991   5.327   8.109   5.409 -0.0186 -0.3867  0.2374
30918W        W46992   5.382  11.142  12.800  0.2759 -0.1110 -0.2228
30919W        W46993  15.911  10.446   1.184 -0.1568 -0.0565 -0.1835
30920W        W46994  16.912  12.532  14.610  0.0604 -0.1083  0.2510
30921W        W46995   0.760   7.000  14.489 -0.2851 -0.0685  0.1512
30922W        W46996   4.616   3.148  15.584  0.0568 -0.2108 -0.1033
30923W        W46997   2.686   3.820  12.849 -0.0617  0.2901  0.4251
30924W        W46998   3.847  17.407  12.045 -0.2123  0.1302 -0.3186
30925W        W46999   1.344  13.144   5.487  0.2373  0.5476 -0.2829
30926W        W47000  16.957   7.155   4.303 -0.1362  0.1387  0.1902
30927W        W47001  14.924  13.108   2.081  0.0586 -0.1019  0.0707
30928W        W47002   0.079  16.810  13.318  0.0843 -0.0105 -0.2942
30929W        W47003   8.967   3.095   1.180 -0.3349  0.0182 -0.1398
30930W        W47004   2.773  18.079   3.900 -0.3618  0.0556 -0.0552
30931W        W47005  14.518   2.351  13.464 -0.1915 -0.0405  0.1752
30932W        W47006  16.594   4.337   1.907 -0.0874 -0.0703 -0.1877
30933W        W47007  10.795   2.386   1.095 -0.2413  0.1520  0.0843
30934W        W47008  12.849   3.639  15.376  0.1257  0.0422  0.1621
30935W        W47009  13.824   6.143  15.117  0.4634  0.0930 -0.2801
30936W        W47010   4.001  10.983  12.233  0.1240 -0.1312 -0.1131
30937W        W47011  16.466   7.003   5.325  0.3230  0.2039 -0.1005
30938W        W47012  15.780   0.745   4.505  0.1099 -0.1362 -0.0809
30939W        W47013  11.088  16.261   1.706  0.0492 -0.3573  0.0387
30940W        W47014   8.317  10.325   2.823 -0.1806 -0.0527 -0.0344
30941W        W47015   5.604   7.250   5.803  0.1067 -0.0625  0.0566
30942W        W47016  11.122   8.433   2.509  0.0539  0.3880  0.2001
30943W        W47017   9.244   1.381  11.549  0.1386  0.0100  0.3616
30944W        W47018  10.824   0.693   5.832 -0.4302  0.1270 -0.2490
30945W        W47019  12.253   1.598   0.900  0.2730 -0.2744 -0.1639
30946W        W47020  11.220   0.023   0.884  0.0038 -0.1986 -0.1349
30947W        W47021   5.209   1.761  14.786  0.3681 -0.0910 -0.0894
30948W        W47022  13.925   6.012  14.291  0.4053  0.0811  0.0560
30949W        W47023  15.127  14.052  15.264  0.1667  0.0670 -0.2710
30950W        W47024   2.417  12.177  15.112 -0.0445 -0.1656  0.0303
30951W        W47025  17.499   5.034   3.133 -0.2126  0.4572  0.2708
30952W        W47026   9.179   2.927  15.923  0.0988  0.1528  0.5156
30953W        W47027  18.111   6.175   0.177  0.0861 -0.3875 -0.0272
30954W        W47028   7.612  17.284   2.789 -0.1996 -0.3281 -0.2157
30955W        W47029   5.338   4.345  11.654 -0.0889 -0.0235  0.2612
30956W        W47030  14.084  17.769   4.935  0.2401 -0.3262  0.1342
30957W        W47031  14.233   9.495  16.238 -0.0784  0.0580 -0.2306
30958W        W47032  17.379   1.588   5.187 -0.1706  0.0737 -0.0836
30959W        W47033   7.399   5.380  14.907 -0.0737  0.1933  0.0464
30960W        W47034  12.872   8.337  15.873  0.3369 -0.3840 -0.1729
30961W        W47035   8.337  10.730   3.342  0.0518 -0.1905 -0.2083
30962W        W47036  14.877   5.089  14.317 -0.1779  0.2578  0.1496
30963W        W47037   8.001   2.557  13.590  0.1507 -0.2704 -0.0829
30964W        W47038   9.913  18.031   4.791 -0.1049  0.2417  0.1310
30965W        W47039   6.696  11.089  15.229  0.0943 -0.1696  0.0024
30966W        W47040  16.210   5.676   5.709  0.1187  0.1323 -0.1392
30967W        W47041  16.796  10.860   5.520  0.1024  0.1238 -0.0714
30968W        W47042  15.679  13.675  14.553 -0.0414 -0.0530  0.2787
30969W        W47043  14.588  14.358   4.210  0.1250 -0.0315 -0.4483
30970W        W47044  12.166   8.415   2.364  0.1569  0.0458 -0.3774
30971W        W47045  13.254   5.394   4.612  0.0274  0.0756  0.1468
30972W        W47046   1.388   2.492  14.145 -0.0622 -0.0645 -0.2817
30973W        W47047  15.351  14.465  12.846  0.2310 -0.1774  0.2988
30974W        W47048  11.497   6.847  14.755  0.1705 -0.0398  0.3461
30975W        W47049  11.941  16.933  14.620 -0.1497  0.1390  0.0854
30976W        W47050   6.347   8.916  11.491 -0.3134 -0.1038 -0.0023
30977W        W47051  12.307   8.126  13.737  0.0025 -0.0290  0.0009
30978W        W47052  13.060   5.336   0.814 -0.0584 -0.3324 -0.1544
30979W        W47053   0.973  14.637  14.580  0.1274  0.0502  0.0940
30980W        W47054  16.581   9.364   0.132  0.2118 -0.0043  0.0890
30981W        W47055   2.734   8.911   3.415 -0.1320 -0.2207  0.2690
30982W        W47056  18.016   8.672   3.935 -0.0368 -0.0826  0.0999
30983W        W47057   4.145   5.665  11.222 -0.4977 -0.2842 -0.1348
30984W        W47058  13.126  12.072   4.636  0.1631 -0.0899 -0.2053
30985W        W47059   6.698   9.423   0.849 -0.1460  0.1448  0.0193
30986W        W47060  17.305  13.306   0.864 -0.0515 -0.3711 -0.2054
30987W        W47061  15.752  11.961  12.494 -0.0584 -0.0284 -0.0389
30988W        W47062  13.686   8.398   3.635  0.2392 -0.0076  0.0189
30989W        W47063  13.853  14.675   2.192 -0.0585 -0.1365  0.0522
30990W        W47064   7.985  15.406   2.980  0.1223 -0.3965 -0.0230
30991W        W47065  17.749   4.919  11.667 -0.1837 -0.0551 -0.2003
30992W        W47066  17.918  11.812   3.242 -0.1339 -0.2467 -0.2290
30993W        W47067  11.193  16.678   4.790 -0.0948  0.0740 -0.2323
30994W        W47068   3.912   8.800  14.070 -0.2186  0.1790  0.0669
30995W        W47069   7.816   0.073   3.064 -0.4562  0.1301 -0.3281
30996W        W47070   8.100  13.999   0.588  0.2289 -0.2050 -0.1823
30997W        W47071   4.707   5.302   2.766 -0.1998  0.1637  0.0545
30998W        W47072  13.855  17.940  11.847 -0.0549  0.0278  0.2617
30999W        W47073  17.471  16.420  14.142  0.1345 -0.2042  0.0312
31000W        W47074  11.791  13.948   2.871  0.2120 -0.0963  0.2002
31001W        W47075   6.827  11.442   1.310  0.1815 -0.1318  0.2537
31002W        W47076  16.383  16.686   5.065  0.4224  0.1727  0.0716
31003W        W47077   6.827  15.884   2.093  0.0894  0.2900  0.1589
31004W        W47078   0.619   5.323   1.859  0.1831 -0.0942 -0.0889
31005W        W47079   7.784   6.534   5.235 -0.1184  0.0235 -0.1222
31006W        W47080   0.366  11.449   1.351  0.2658 -0.3186  0.1372
31007W        W47081   4.035  12.967  15.134  0.0150  0.1757  0.0212
31008W        W47082  17.007  17.311   5.416 -0.1518  0.0215  0.0429
31009W        W47083   5.640   3.425   3.839  0.1536 -0.1145 -0.0858
31010W        W47084   3.772   2.514   3.761 -0.2389 -0.2609  0.0130
31011W        W47085   1.071  14.770  12.807  0.0147 -0.0416 -0.1732
31012W        W47086  17.145   4.042   4.418  0.0682 -0.1657  0.1448
31013W        W47087  17.039  11.769  14.142  0.0738  0.1384  0.1602
31014W        W47088   3.279   2.423  13.828 -0.1974 -0.0169 -0.0258
31015W        W47089  14.750   4.320   3.832 -0.1038 -0.1557 -0.1075
31016W        W47090  15.844  16.180   0.560 -0.0739  0.1184  0.0928
31017W        W47091  17.606   6.226   0.705 -0.1668  0.0119  0.2959
31018W        W47092  13.094  14.007  15.552  0.0144  0.0315 -0.0804
31019W        W47093   9.411   2.902  13.456  0.1421 -0.1251 -0.0883
31020W        W47094   5.578   9.937   3.688  0.0333 -0.0275  0.0520
31021W        W47095   4.265  17.020   4.315 -0.0286  0.1589 -0.0863
31022W        W47096  10.128   8.546   5.385 -0.2790 -0.1346 -0.0610
31023W        W47097  17.744  10.353  12.142  0.1151 -0.0320  0.0238
31024W        W47098   9.044   6.262   3.789 -0.0992 -0.0023 -0.1499
31025W        W47099   6.085  16.796  11.811  0.2338  0.0032  0.0489
31026W        W47100   7.423   7.797  15.130  0.2256  0.2567  0.1450
31027W        W47101   5.783   5.950  15.466  0.0269  0.0020  0.2337
31028W        W47102  11.176   8.782   1.185 -0.2086 -0.1903  0.2367
31029W        W47103   9.945   0.320  14.607 -0.1673  0.3557 -0.0305
31030W        W47104  14.948  14.043  14.446 -0.2435 -0.1426  0.0435
31031W        W47105   2.403  10.381   4.848  0.0432 -0.2502 -0.1848
31032W        W47106  15.500  17.890  12.666  0.1976 -0.0675 -0.2239
31033W        W47107  12.223  15.944   5.392  0.0757 -0.1532  0.1568
31034W        W47108  14.793  14.762   3.370 -0.0742 -0.0359  0.0943
31035W        W47109  11.887   7.281  12.917 -0.0351  0.1576  0.0937
31036W        W47110   0.026   9.367  11.349 -0.0504  0.0408 -0.1429
31037W        W47111   3.638   9.328  15.486 -0.1099 -0.4080  0.1644
31038W        W47112  12.218  14.221   1.513  0.1088 -0.0012 -0.3167
31039W        W47113   4.575   2.826   2.950  0.0485  0.1767 -0.0793
31040W        W47114  16.862  11.338  12.385  0.1066  0.0924  0.1325
31041W        W47115  17.996   3.545   4.488 -0.3175  0.1098 -0.4429
31042W        W47116  10.543  13.085  12.622 -0.1551  0.2520  0.0802
31043W        W47117   9.483  15.111   0.859  0.0972 -0.1077  0.0708
31044W        W47118   3.946  10.713  11.739 -0.0190  0.2604 -0.3691
31045W        W47119  17.788   3.997  15.674 -0.1136 -0.0205  0.1998
31046W        W47120  15.153  16.026   4.093  0.0113  0.2312 -0.0117
31047W        W47121  10.622   6.401   0.479  0.3995 -0.1470  0.1564
31048W        W47122   4.616   3.520  11.999  0.1111  0.2086 -0.1237
31049W        W47123  10.180  14.262   6.483 -0.1958  0.1651 -0.1172
31050W        W47124   1.283   1.724   2.519 -0.1013  0.3045 -0.2088
31051W        W47125   0.128   5.830   5.541  0.0460  0.4270 -0.2800
31052W        W47126   7.347  17.869   4.607 -0.1794 -0.2477  0.4415
31053W        W47127   7.882   0.980  16.262  0.1503  0.0433 -0.2424
31054W        W47128   1.930   4.849   0.994 -0.2862  0.2708 -0.0212
31055W        W47129  14.234   0.841   3.619 -0.2112 -0.1670  0.0924
31056W        W47130  17.745  10.802  15.834  0.2654  0.0262  0.1868
31057W        W47131  14.447  12.725  15.126  0.1429  0.1405  0.0480
31058W        W47132   0.074  12.818  15.491 -0.1007  0.2121 -0.0807
31059W        W47133   0.258  13.413  14.507 -0.3253  0.1630 -0.0991
31060W        W47134   6.884  10.152   0.426 -0.2026  0.1159  0.2644
31061W        W47135   6.936  16.750  12.218  0.3388 -0.2727  0.1052
31062W        W47136  11.861   3.709   0.945  0.0634  0.1870 -0.0042
31063W        W47137  15.360   9.095  12.536  0.0843 -0.1341  0.0523
31064W        W47138  17.497   2.679  15.151 -0.0489 -0.0000  0.0012
31065W        W47139  11.937  14.543   2.123  0.1421 -0.0717  0.1781
31066W        W47140   8.049   2.214   3.472  0.0453  0.1835  0.1838
31067W        W47141   8.069   2.667  14.804 -0.1756 -0.1501  0.2311
31068W        W47142   1.035   1.331   4.448  0.0116 -0.1190  0.1896
31069W        W47143   4.985  11.666   3.372  0.2154  0.1517  0.2267
31070W        W47144  14.323  14.671  14.613 -0.1922  0.1439 -0.1393
31071W        W47145  16.004  16.809  11.707  0.2228  0.0839 -0.2477
31072W        W47146  11.668   2.094   3.002 -0.2342 -0.0869 -0.2368
31073W        W47147  16.409  15.284  14.777 -0.1423 -0.0442  0.1475
31074W        W47148  16.464  12.534  14.172  0.2175  0.1622 -0.0955
31075W        W47149   2.125  10.025   0.012  0.2188  0.0678 -0.0440
31076W        W47150   7.323   1.385  15.566  0.0966 -0.0115 -0.0561
31077W        W47151   0.233  11.659  12.566  0.1907  0.3194 -0.1365
31078W        W47152   3.574  11.738  15.894 -0.0876 -0.0551 -0.0248
31079W        W47153  11.052  15.552   4.606  0.2030  0.2285 -0.1933
31080W        W47154   1.094  13.017   5.917  0.2284 -0.1737  0.2979
31081W        W47155  12.369  11.536  14.187 -0.1925  0.0047  0.1263
31082W        W47156   5.825  15.804   2.620  0.0987  0.1717 -0.0829
31083W        W47157  17.364   5.530   5.650 -0.1175  0.3507 -0.2522
31084W        W47158   2.863  11.653   3.106 -0.3103 -0.0918 -0.0566
31085W        W47159  15.957  15.478  14.662 -0.1613  0.3273  0.3028
31086W        W47160   0.409   0.959   2.899  0.1490  0.2321 -0.3846
31087W        W47161  11.910   4.047  16.273  0.0922  0.0035 -0.0545
31088W        W47162  17.112   0.137  11.287 -0.0849  0.1853  0.7869
31089W        W47163   8.896   9.416  16.317  0.1680 -0.0855 -0.1341
31090W        W47164  13.189  11.504   5.496  0.1778 -0.0121  0.0432
31091W        W47165   6.028  12.114   4.538 -0.0749 -0.3360 -0.0833
31092W        W47166   6.039   7.422   1.784 -0.1934 -0.3842  0.1624
31093W        W47167   6.606   3.507   2.277 -0.0795 -0.0113 -0.2837
31094W        W47168  15.362  17.576  15.927 -0.0231  0.2332  0.1611
31095W        W47169   4.209  15.419   1.435  0.0994  0.2363 -0.1759
31096W        W47170   5.709  17.774  11.750  0.1973  0.2095 -0.2457
31097W        W47171  14.869   0.881  14.553  0.0952  0.0259  0.3603
31098W        W47172  10.183  16.177  15.991  0.0795  0.2446  0.4413
31099W        W47173   0.283   7.766   3.972 -0.0328 -0.1162 -0.0317
31100W        W47174  15.229  15.470  13.426  0.2749  0.2133 -0.1249
31101W        W47175   9.243  11.904   2.176  0.1205  0.2264 -0.0903
31102W        W47176  11.025   6.302   3.143 -0.1110  0.1905  0.3040
31103W        W47177  11.272  17.600   3.687 -0.0135  0.0810  0.2921
31104W        W47178   3.638  15.157   0.952  0.1791 -0.2042  0.1125
31105W        W47179   7.681  11.650   0.164  0.1510  0.1838  0.0815
31106W        W47180  14.514  10.505  11.629  0.1344  0.2292  0.4348
31107W        W47181   9.100  14.917   0.354 -0.3895 -0.0389 -0.2792
31108W        W47182   9.921   0.234   1.150 -0.1077  0.5132  0.2300
31109W        W47183   1.774  18.031   3.954  0.0131 -0.0584 -0.2066
31110W        W47184  16.447   8.759   4.167  0.3312 -0.0597  0.2854
31111W        W47185   2.266  12.683   5.649 -0.1551  0.1610  0.0287
31112W        W47186  10.973  15.012  11.791  0.3364  0.0698  0.1796
31113W        W47187   9.674   1.694   0.231  0.1020 -0.0776  0.1366
31114W        W47188  14.203   1.450   3.572  0.1672  0.2637 -0.0794
31115W        W47189   0.251   4.555  11.106 -0.1764  0.1321  0.0537
31116W        W47190  10.106  15.699  16.140 -0.6320 -0.0782  0.1205
31117W        W47191   7.479   3.436   3.735 -0.0639  0.0756  0.1226
31118W        W47192  13.754   4.928   1.121  0.0300 -0.3325 -0.0039
31119W        W47193   6.054  14.590  10.702  0.1245 -0.1049 -0.0571
31120W        W47194   9.866   2.106   3.600 -0.0123  0.1692 -0.0645
31121W        W47195   5.985  17.262   0.019 -0.4482  0.3448 -0.0572
31122W        W47196   7.784  17.108  12.678 -0.2167  0.0836 -0.2275
31123W        W47197   5.503   9.278  14.213 -0.1885 -0.2652 -0.0672
31124W        W47198   1.544   3.383   0.892  0.0574 -0.3632 -0.4601
31125W        W47199   1.681  14.229  16.182  0.2426 -0.1643 -0.2183
31126W        W47200   8.458   7.493   3.007  0.0729 -0.0820  0.0858
31127W        W47201  13.797   0.871  14.102 -0.1791 -0.2021  0.1183
31128W        W47202   0.835  15.506  15.740  0.3451 -0.1323 -0.0683
31129W        W47203   0.983  18.191  11.493 -0.1315 -0.0326  0.2270
31130W        W47204  13.554   5.996   0.268 -0.1688  0.0530  0.3259
31131W        W47205   7.939  10.258   0.468 -0.2136  0.2105  0.2142
31132W        W47206  13.241   8.055   3.669 -0.0110  0.0862  0.2379
31133W        W47207  13.815   0.805  15.556  0.1205  0.4284  0.0885
31134W        W47208  10.424  16.706  15.704  0.1903 -0.3003 -0.3272
31135W        W47209  12.423   4.324  15.739 -0.0090 -0.0799 -0.1968
31136W        W47210  17.097  11.749  16.356  0.0427 -0.1746  0.1122
31137W        W47211   9.598   3.057   2.965  0.2038 -0.1117 -0.2425
31138W        W47212  10.439   9.672   0.385  0.0630 -0.0653 -0.1227
31139W        W47213   5.986   7.339   3.054  0.0932  0.0506  0.0073
31140W        W47214  17.403   4.470  14.436 -0.1462 -0.1437 -0.0483
31141W        W47215  16.203   7.427   5.465 -0.4165 -0.1577 -0.3700
31142W        W47216  17.941   4.067   0.533 -0.1928 -0.2153  0.1320
31143W        W47217  17.623   4.536   0.360  0.0684 -0.2816 -0.1261
31144W        W47218   0.599   8.281   0.747  0.1040  0.0413  0.0465
31145W        W47219  12.388   8.876   3.180 -0.0380  0.2404  0.2416
31146W        W47220   0.109  16.806   0.275 -0.0681 -0.2203  0.1962
31147W        W47221  16.014  10.739   2.271 -0.0965 -0.1099 -0.1892
31148W        W47222   5.576  13.085  11.413 -0.0543 -0.0670  0.0106
31149W        W47223   5.491   9.945   2.545 -0.0664 -0.1420  0.1559
31150W        W47224  10.074   6.329  14.521 -0.2334  0.2671  0.1536
31151W        W47225   2.391   2.837   0.873 -0.3032  0.0441 -0.0194
31152W        W47226   5.057  16.362   2.028 -0.0149 -0.1867 -0.2973
31153W        W47227  15.694   3.372  11.566  0.0763 -0.2604 -0.1946
31154W        W47228  15.016   2.252  15.298 -0.0729  0.1016 -0.0290
31155W        W47229  11.551  17.526  13.505  0.1391 -0.1299 -0.0342
31156W        W47230   9.471  16.816   5.548  0.1317  0.3746 -0.0372
31157W        W47231  12.206   9.340  15.509  0.0044 -0.0565 -0.3590
31158W        W47232  12.347  13.216  16.398  0.1049 -0.0665  0.1673
31159W        W47233  11.004   5.451   4.400 -0.0408  0.0930 -0.4604
31160W        W47234   1.858   9.362   2.550  0.2817  0.1220  0.1208
31161W        W47235   6.721   8.053   5.727 -0.2060 -0.2183  0.1304
31162W        W47236   3.133   5.801   1.881 -0.0331  0.0513  0.1439
31163W        W47237   9.471  13.251  15.667 -0.3429 -0.2255 -0.6525
31164W        W47238  16.821  12.068   5.213 -0.1142 -0.0055 -0.0711
31165W        W47239  15.683   9.149  13.814 -0.0065 -0.4037 -0.4592
31166W        W47240   4.083   1.725  16.432 -0.0412 -0.1925  0.0843
31167W        W47241   8.785   2.376  16.412 -0.3047  0.0649 -0.3705
31168W        W47242  17.627   2.678   1.169 -0.2840 -0.2476  0.0423
31169W        W47243   3.483   4.769   1.065 -0.0391 -0.2149  0.1076
31170W        W47244   1.057  16.704  14.873  0.1123 -0.0214 -0.2740
31171W        W47245   9.678   0.097  13.539 -0.1760 -0.1832  0.0459
31172W        W47246  14.298  10.031  12.745  0.0125 -0.0202 -0.0398
31173W        W47247   1.007   6.019  16.104 -0.1776 -0.0477 -0.0067
31174W        W47248   3.740  12.468  13.856  0.3132 -0.0506 -0.1386
31175W        W47249   9.103  16.712  13.784  0.2678  0.0851 -0.1569
31176W        W47250   9.851  17.744  14.113  0.3836 -0.0585  0.1684
31177W        W47251   4.003   5.447   2.276 -0.0622  0.0198  0.0509
31178W        W47252   9.854   7.134   1.897 -0.0816  0.1054 -0.0109
31179W        W47253  10.628  15.636  13.068 -0.2583 -0.0282  0.2206
31180W        W47254   4.985  10.745   4.731  0.1930  0.0711  0.1793
31181W        W47255   1.342   3.514  16.222 -0.5061 -0.2333 -0.0917
31182W        W47256  14.902  16.137  15.102 -0.1120 -0.2433 -0.0909
31183W        W47257  12.173  16.656  15.567  0.0979 -0.4309 -0.0446
31184W        W47258   0.237   0.694   3.370 -0.1086  0.2760  0.0983
31185W        W47259   6.156   3.245   3.611  0.1879  0.0291  0.1783
31186W        W47260   3.627  11.931   1.528  0.0929 -0.0280  0.0133
31187W        W47261   0.791   6.411   1.643 -0.2069 -0.2214  0.1280
31188W        W47262   4.263   7.223  13.015  0.1096  0.0379 -0.2039
31189W        W47263   6.137   4.443   5.664 -0.1166  0.0905  0.1218
31190W        W47264  17.767  13.098  15.575 -0.0818  0.0306 -0.0550
31191W        W47265   3.366   2.537  12.380  0.0664 -0.2417  0.1562
31192W        W47266  13.947   3.931   1.828 -0.3089 -0.0837 -0.2929
31193W        W47267  11.059   9.040  14.522  0.1717 -0.1674 -0.1296
31194W        W47268   9.435   4.206  13.999 -0.0599  0.0319  0.4495
31195W        W47269   3.800  13.872  14.820  0.0179 -0.0781  0.2104
31196W        W47270   5.127  15.413  11.420  0.2918 -0.0677 -0.1655
31197W        W47271  17.714   9.516   4.656 -0.2459 -0.2883  0.2227
31198W        W47272  13.291   1.682   2.299 -0.1027 -0.0491  0.0736
31199W        W47273   3.867   5.963  13.001  0.2342  0.0786 -0.2632
31200W        W47274  16.228   9.894   5.149  0.1280  0.2321 -0.0282
31201W        W47275   9.426   5.179   1.883 -0.1925 -0.0013  0.1651
31202W        W47276  15.008  10.695  11.724  0.1258 -0.1035 -0.0275
31203W        W47277   7.429   9.825  12.398  0.0209  0.2251  0.0501
31204W        W47278   8.456   3.830   0.413 -0.0076  0.2793  0.2422
31205W        W47279  16.886   7.954  16.370  0.0657 -0.1639  0.0342
31206W        W47280   5.318  10.130  13.386  0.0003 -0.2500  0.0451
31207W        W47281   5.450   2.562   1.433 -0.0946  0.0148 -0.0992
31208W        W47282  13.492   0.937  12.150  0.1339  0.3399  0.0059
31209W        W47283  16.039   8.608   0.561 -0.1276  0.0995  0.1277
31210W        W47284   5.806   3.735   5.043  0.0886  0.0852 -0.1596
31211W        W47285   8.474   7.383  13.064  0.3995  0.0562  0.2833
31212W        W47286  15.654  16.293   4.574  0.1891 -0.1765 -0.0982
31213W        W47287  13.104  13.920  10.818 -0.0593  0.0264  0.2043
31214W        W47288   8.447   3.195  13.432  0.0936  0.1052  0.0883
31215W        W47289   0.928   9.083  12.904  0.3217  0.0388  0.1926
31216W        W47290   5.648  12.646   5.220 -0.1725  0.1394  0.1597
31217W        W47291  15.396  17.469   1.436  0.3322 -0.3262  0.1204
31218W        W47292  11.297  13.245  13.835 -0.0984 -0.0700 -0.0106
31219W        W47293   3.587   1.213  12.152 -0.0951  0.0506 -0.4090
31220W        W47294  17.559  11.474  13.263 -0.2082  0.2268  0.2224
31221W        W47295  15.627   5.705  14.859 -0.1439 -0.3024 -0.1204
31222W        W47296   0.148   1.250  15.934  0.2904 -0.0851 -0.0010
31223W        W47297   8.189   8.942  11.616 -0.0425 -0.0848  0.1296
31224W        W47298  14.414  11.738   6.074 -0.1451 -0.1311  0.0217
31225W        W47299   7.848  11.507   5.762 -0.0729  0.1628 -0.3136
31226W        W47300   5.754   9.390   1.009 -0.2271  0.0674  0.0849
31227W        W47301   2.723  10.982   6.333  0.2070  0.1523  0.0100
31228W        W47302  16.688  13.755   5.323  0.1371 -0.0517 -0.1777
31229W        W47303   7.691  12.223   1.039  0.2908  0.2955  0.2799
31230W        W47304  12.567   2.396   1.985  0.0181 -0.2726 -0.1584
31231W        W47305  16.309   6.508   1.993 -0.1128  0.0707 -0.1976
31232W        W47306  12.304  13.377   5.258  0.0443  0.0952  0.1389
31233W        W47307  11.433  13.573  16.514 -0.3032 -0.1484 -0.1322
31234W        W47308   7.909  16.691  12.498  0.1639  0.3091 -0.0329
31235W        W47309  16.854   3.861   1.381 -0.0625 -0.1880 -0.0730
31236W        W47310   2.412  14.732   3.462 -0.1216 -0.2011  0.0719
31237W        W47311   1.450   9.631   5.365  0.1402  0.3418  0.1180
31238W        W47312  10.433  14.683  13.609 -0.3161 -0.3182  0.0507
31239W        W47313  16.459  17.820  12.413 -0.2343  0.1967  0.2145
31240W        W47314   2.193  15.076   2.081  0.0644 -0.1341 -0.2351
31241W        W47315   3.419  11.299   4.517  0.4644  0.0563 -0.1321
31242W        W47316   0.842   3.671   0.109 -0.0236  0.0487 -0.0693
31243W        W47317   8.355   6.471   1.675  0.2811 -0.0536 -0.0769
31244W        W47318   7.930   4.322   4.353  0.0219  0.2883 -0.2995
31245W        W47319   6.827  15.442   3.341 -0.0880 -0.0044  0.0653
31246W        W47320   6.670   5.690  15.884 -0.0155 -0.2529 -0.1841
31247W        W47321  14.684   5.982  11.739  0.2461 -0.0433 -0.1285
31248W        W47322   2.728   8.665   0.316 -0.1096 -0.0981  0.2399
31249W        W47323  14.539  17.305   6.181  0.1202  0.0419  0.0369
31250W        W47324  11.942  16.766   6.459 -0.1668 -0.1439  0.1758
31251W        W47325  14.908  13.564  14.211 -0.2395 -0.1681  0.0327
31252W        W47326   2.053  15.413  10.792 -0.1241  0.1089  0.1657
31253W        W47327   9.630  13.314   4.756  0.0976 -0.0247  0.1190
31254W        W47328  16.958  17.884   1.926 -0.0775 -0.1964  0.0870
31255W        W47329  13.262   4.758  13.193  0.0302  0.1633 -0.1085
31256W        W47330   2.883  10.348  14.367  0.1921 -0.2976 -0.0552
31257W        W47331   7.051  10.605   4.009  0.0464 -0.3839 -0.0433
31258W        W47332  17.620  14.413  11.617  0.0239  0.2413  0.1298
31259W        W47333   1.822   1.413   1.156  0.0667  0.0275  0.0940
31260W        W47334  11.838   2.269  13.880  0.5266 -0.3034  0.0943
31261W        W47335  16.497  10.100  15.668 -0.0257  0.0148 -0.0766
31262W        W47336   5.661   5.941   0.205  0.0794 -0.0434  0.1360
31263W        W47337   4.230  12.842   5.152 -0.0092 -0.0692  0.1996
31264W        W47338   0.114   1.417  15.445 -0.0128  0.2434 -0.1550
31265W        W47339  10.690  13.781   2.361  0.0904  0.0092 -0.0351
31266W        W47340  18.019   2.966   1.119 -0.2925  0.2211 -0.1316
31267W        W47341  15.675   5.017  16.550 -0.4433 -0.1688 -0.3985
31268W        W47342   0.410  17.647  16.471  0.1435  0.1471  0.0636
31269W        W47343  17.329  15.453  14.359 -0.1184  0.0870 -0.2195
31270W        W47344   9.498   1.196   0.451 -0.0916 -0.0253  0.2124
31271W        W47345   3.439  17.946  11.359 -0.0282  0.1002 -0.1789
31272W        W47346   4.536   0.720   1.341  0.0898 -0.2152  0.0159
31273W        W47347   4.269  17.185  15.583 -0.4094  0.0811 -0.0514
31274W        W47348  14.646   3.667   0.471 -0.3011 -0.0338  0.0850
31275W        W47349  10.561   1.782   3.001 -0.0287  0.1222  0.0196
31276W        W47350  10.776   1.323  12.553  0.2950 -0.0084 -0.0056
31277W        W47351  14.832  11.238   1.498  0.1764 -0.0694  0.1551
31278W        W47352   2.367   6.682  15.745 -0.0112  0.0686 -0.0976
31279W        W47353   4.477   5.624   3.144  0.0307 -0.1134  0.3201
31280W        W47354   1.590  15.539  13.424  0.1112  0.2255  0.0573
31281W        W47355  12.921  16.121   4.493 -0.2779 -0.0646 -0.1387
31282W        W47356  10.232   8.065   2.882  0.1777 -0.1688  0.2949
31283W        W47357   3.910   2.910  14.155 -0.1803  0.0636  0.3212
31284W        W47358  16.259  11.974   0.286  0.1041  0.0393  0.1162
31285W        W47359   2.585   4.135  13.182  0.0329 -0.2405  0.0134
31286W        W47360  16.425  11.055   3.313  0.0521  0.0455  0.0558
31287W        W47361  13.063  13.792  15.029  0.0546 -0.0367  0.0446
31288W        W47362   1.443  10.259   2.811 -0.1051  0.0158 -0.0145
31289W        W47363   6.477  16.349   3.094 -0.2920  0.1964  0.4441
31290W        W47364   6.632   0.011  10.584 -0.3212 -0.2007  0.0255
31291W        W47365  11.396   8.522   5.027 -0.0891 -0.2846 -0.0828
31292W        W47366  15.567  14.063   2.330  0.2977 -0.0625  0.0538
31293W        W47367  12.403  16.948  13.866  0.2224  0.3239 -0.3516
31294W        W47368   4.125  16.940  12.036  0.2304  0.1068  0.0718
31295W        W47369  10.314   7.431  11.995 -0.1333 -0.1285  0.1528
31296W        W47370   9.678   6.424   2.752  0.3374 -0.1125  0.1565
31297W        W47371   5.974  11.765  16.545  0.1549 -0.3620  0.2330
31298W        W47372   6.452   1.270  14.304 -0.0914  0.1587  0.3029
31299W        W47373  14.906  11.609   3.122  0.2582  0.0211 -0.3497
31300W        W47374   9.600  15.705  16.257  0.0714 -0.1553  0.0778
31301W        W47375   5.353  16.524  11.366  0.0369  0.0429  0.1267
31302W        W47376  17.325  12.975   3.467 -0.0684 -0.1116  0.1337
31303W        W47377   0.704  16.828  15.193 -0.2544  0.0727 -0.1135
31304W        W47378   8.618   9.467   0.655 -0.2144  0.0450 -0.1550
31305W        W47379   8.787   9.157   3.065  0.1026 -0.0211 -0.0146
31306W        W47380   7.554  12.011  16.283  0.0514 -0.1734 -0.0655
31307W        W47381  17.920  14.346   5.353  0.2176 -0.1354 -0.0628
31308W        W47382   3.863  15.604  11.308 -0.3236  0.0636  0.0325
31309W        W47383   7.690   6.873  14.875 -0.2109 -0.1697  0.1940
31310W        W47384   9.511   0.249  14.842 -0.0718 -0.1426 -0.0629
31311W        W47385  16.862   2.282   4.970 -0.5608  0.3358  0.0205
31312W        W47386   0.570  18.057   0.913 -0.1679 -0.1111 -0.0189
31313W        W47387  10.355   1.373   0.379 -0.1892 -0.0671 -0.3270
31314W        W47388  14.159   2.953   2.829 -0.2186  0.2594  0.1151
31315W        W47389  14.222  15.866  15.833 -0.0233 -0.0744 -0.0961
31316W        W47390  15.091   2.060   3.288 -0.0004  0.1178  0.0446
31317W        W47391  17.589  10.405  13.475  0.1040  0.0261 -0.0100
31318W        W47392  17.897   7.342  11.556  0.2731 -0.2401 -0.1434
31319W        W47393  15.670   3.088  14.528 -0.0180  0.1827 -0.0812
31320W        W47394  15.983  13.088   3.978 -0.0933  0.0597 -0.0524
31321W        W47395  12.739   0.346  16.378 -0.0982  0.0874 -0.0004
31322W        W47396  14.866   7.845   2.160 -0.1358 -0.0638 -0.0303
31323W        W47397   1.197   0.086  15.488 -0.2544  0.4556  0.4439
31324W        W47398  11.091   2.555   3.785  0.0794  0.0758 -0.2970
31325W        W47399  12.410  14.336  16.405 -0.1021  0.0337  0.0818
31326W        W47400  11.403   0.302   4.763  0.1155  0.1217  0.2535
31327W        W47401   1.368  12.184  14.928 -0.3212 -0.1907  0.0484
31328W        W47402   2.940   9.426   0.920  0.1488  0.2132  0.2329
31329W        W47403   2.908  15.032  14.808 -0.1194 -0.1023  0.0919
31330W        W47404  12.975  16.542   0.571  0.3855  0.0650 -0.1264
31331W        W47405   2.788   1.553  13.569 -0.1302 -0.1481  0.1065
31332W        W47406  15.942  16.177  15.120  0.0964 -0.0406 -0.2994
31333W        W47407  17.258   0.416   0.316  0.0267 -0.1384  0.0486
31334W        W47408  11.465  15.918   4.650 -0.1586 -0.2160  0.3157
31335W        W47409  13.194  11.119  14.661  0.1270 -0.0419 -0.2190
31336W        W47410  10.484   7.704   3.219  0.1313  0.0906  0.0948
31337W        W47411   7.597  12.513   1.475  0.1152 -0.4366  0.0569
31338W        W47412   1.992  10.538  11.434  0.0644  0.1984  0.2654
31339W        W47413  10.778  16.286  11.875  0.1733  0.0815 -0.4039
31340W        W47414   0.425   8.439  15.065 -0.2686  0.1685  0.2257
31341W        W47415  14.120   0.806   5.796 -0.0474 -0.1556  0.1567
31342W        W47416   6.490  16.776   0.125  0.1930 -0.0689 -0.1476
31343W        W47417   2.798  16.290  12.140 -0.1120 -0.2750  0.2286
31344W        W47418  12.004  10.883   2.080  0.0663  0.3385  0.1293
31345W        W47419  12.910   4.379  15.906 -0.0148 -0.0002 -0.0664
31346W        W47420   6.856  15.469   4.326 -0.0828  0.1279 -0.0322
31347W        W47421   1.367  12.343  10.705  0.0787  0.0147 -0.1546
31348W        W47422   2.095  17.183   3.506 -0.0846  0.4927  0.0748
31349W        W47423   8.022  13.901   1.835  0.0551 -0.1028 -0.0698
31350W        W47424   2.495  17.646   2.402 -0.0310  0.0128 -0.0428
31351W        W47425  11.814   1.965  15.470 -0.2346 -0.0498  0.2291
31352W        W47426   4.014   8.281  14.731 -0.2437  0.2788 -0.0407
31353W        W47427  14.188   7.935   3.855  0.1647 -0.3243 -0.1107
31354W        W47428   0.200   4.203  11.742 -0.1136  0.2065  0.2705
31355W        W47429  18.010  17.532   3.934 -0.0046  0.1368 -0.0534
31356W        W47430   7.748  16.124   5.239 -0.0840 -0.1754  0.4027
31357W        W47431   6.387  10.511  15.885  0.0551 -0.0885 -0.0307
31358W        W47432   6.491   1.529   3.040  0.0197 -0.0600  0.1686
31359W        W47433  10.036  11.601  14.400 -0.3880 -0.0118 -0.2841
31360W        W47434   1.392  17.758  11.410 -0.1592  0.0753  0.1628
31361W        W47435   8.442  13.874  16.424  0.1259  0.0118 -0.0051
31362W        W47436   8.186  12.071  11.598 -0.0700  0.1413 -0.0287
31363W        W47437  14.387   3.141  15.831 -0.1292  0.0395  0.4163
31364W        W47438  11.900  10.588   1.632  0.0173 -0.2151  0.0053
31365W        W47439   5.934   8.677  12.103 -0.0209 -0.0197 -0.4100
31366W        W47440   5.738   6.448   2.080 -0.1929 -0.0138  0.3069
31367W        W47441   8.093  12.555   0.238  0.0640 -0.1438 -0.1045
31368W        W47442  13.837   1.178   3.390  0.0063  0.3526 -0.1300
31369W        W47443  10.245   9.251   0.681 -0.5000  0.0313  0.2940
31370W        W47444   4.144   1.202  13.902  0.0708 -0.1271  0.0515
31371W        W47445   5.095   6.210  14.719 -0.3223 -0.0147 -0.0899
31372W        W47446   8.897   4.006   3.714  0.0219  0.1508 -0.0434
31373W        W47447   9.922   1.563  14.198 -0.2331  0.1948  0.0244
31374W        W47448   1.720  14.670  15.907  0.4157  0.2937  0.2678
31375W        W47449  17.661   2.148  15.231 -0.0254 -0.1620  0.0260
31376W        W47450  11.397   0.569   0.796 -0.0148  0.1296 -0.2251
31377W        W47451  14.045  11.017   3.330 -0.2541 -0.0032 -0.3985
31378W        W47452   1.009  14.305  11.932 -0.0264  0.1766 -0.0701
31379W        W47453  16.424   6.001  12.613 -0.0377  0.1198 -0.0648
31380W        W47454  14.246   9.385  13.029 -0.2035  0.0993  0.3002
31381W        W47455  10.874  12.815  16.215  0.0211 -0.0542  0.0754
31382W        W47456  16.718  17.618   2.827  0.0682  0.0451 -0.3249
31383W        W47457  13.157  14.849  15.250  0.2121 -0.0746 -0.1948
31384W        W47458  17.552  10.952  13.476  0.2572  0.1367 -0.3283
31385W        W47459   2.396   9.858   4.879  0.0611 -0.0719 -0.0837
31386W        W47460   6.658  17.112  15.277  0.2158 -0.1287  0.0826
31387W        W47461  14.952  11.677  14.653 -0.0520  0.1388 -0.1254
31388W        W47462  14.060   2.671   3.326 -0.1848  0.2802  0.1373
31389W        W47463  13.107  17.210  12.603 -0.1736  0.1956 -0.1391
31390W        W47464  15.758  13.484   4.243  0.1128 -0.0000  0.0236
31391W        W47465   6.047   4.443  14.616  0.2190 -0.1051  0.1726
31392W        W47466   9.872  10.900  15.849 -0.0695  0.0509  0.0203
31393W        W47467  16.265  15.438  15.422 -0.1029  0.3174  0.1212
31394W        W47468   1.079   9.883  13.685 -0.1418 -0.0144  0.3324
31395W        W47469   2.179  17.054  11.075 -0.0676 -0.3512 -0.0830
31396W        W47470  12.471  11.016   4.285 -0.0083 -0.1827  0.3574
31397W        W47471  15.166   5.749   1.595  0.0575  0.2604  0.1015
31398W        W47472  10.927   2.407   4.363  0.0528 -0.0200  0.0140
31399W        W47473   9.736  14.306   4.538  0.0490  0.0421  0.0084
31400W        W47474   7.477  15.083   1.571 -0.1697 -0.0372  0.2695
31401W        W47475   6.858  17.275  14.059 -0.0169 -0.0355 -0.0973
31402W        W47476  12.606   7.128   5.061  0.0328 -0.1122 -0.2541
31403W        W47477   7.956  15.208  16.513  0.0942  0.0217  0.3608
31404W        W47478  11.041   6.717   0.827  0.1670  0.0293 -0.2553
31405W        W47479  16.028  14.215   5.432 -0.0830 -0.2267 -0.0880
31406W        W47480   2.279   4.866  11.982 -0.0827  0.0549  0.0004
31407W        W47481   6.835   5.030  13.139  0.3093 -0.0709 -0.0135
31408W        W47482   9.030   9.477  12.527  0.1604  0.1014 -0.1961
31409W        W47483  17.824   1.327  15.522 -0.1048 -0.3144  0.1250
31410W        W47484  13.706  17.310  14.172 -0.1161  0.1924 -0.5326
31411W        W47485  14.486   6.689  14.426  0.0022  0.0773 -0.2841
31412W        W47486   0.972  15.565  12.430 -0.2110  0.0082 -0.1262
31413W        W47487  14.014   7.393   2.679 -0.2161  0.4284 -0.0410
31414W        W47488   6.314   8.195   1.243 -0.1362 -0.0113 -0.3676
31415W        W47489   3.114   9.234  12.544  0.2524 -0.2731 -0.3984
31416W        W47490  10.999  17.733  14.657 -0.1168  0.2126  0.0124
31417W        W47491  15.522   5.386  15.374 -0.0065 -0.1465  0.0584
31418W        W47492   0.177  14.394  15.970  0.1107 -0.0412 -0.1899
31419W        W47493  13.184  17.443   4.542  0.0453  0.1502  0.2513
31420W        W47494  11.863   9.148  14.244 -0.2023  0.1922  0.2103
31421W        W47495   6.343  15.640   0.469 -0.1979 -0.2047  0.1717
31422W        W47496   0.047   2.211   3.913  0.1494 -0.0824  0.1143
31423W        W47497   4.352  17.553  15.223 -0.2489  0.0260  0.0091
31424W        W47498  13.860  10.319   0.712  0.1642  0.4210 -0.3764
31425W        W47499  11.287   2.848   5.543 -0.0170  0.2547 -0.1241
31426W        W47500   7.339   0.025  12.468  0.3051  0.1210 -0.1343
31427W        W47501   5.797   4.006   0.662 -0.2922 -0.5547  0.1434
31428W        W47502  12.032   2.832   0.885 -0.2756 -0.5057  0.4345
31429W        W47503  15.360  11.776  15.041 -0.0515 -0.3207  0.2687
31430W        W47504   2.766  11.507   1.224  0.1171  0.1149  0.2189
31431W        W47505   2.675   3.921  16.100 -0.3268  0.2311  0.2726
31432W        W47506   3.026   1.204  14.931 -0.2010 -0.3217  0.1835
31433W        W47507  14.427  16.462  14.369  0.3484  0.0737  0.1878
31434W        W47508  11.218   2.316   3.353  0.2786  0.0105  0.0168
31435W        W47509  18.046   2.202  14.898  0.0182  0.1063 -0.3134
31436W        W47510  10.270  16.233   3.123  0.0451  0.1525  0.1403
31437W        W47511  14.690   3.971  15.713  0.2959  0.0242  0.0301
31438W        W47512   3.521  17.206  14.252  0.0162 -0.0276  0.0179
31439W        W47513   8.677  13.222   2.828  0.3032 -0.0274  0.0199
31440W        W47514  15.481   0.588  15.879  0.1562 -0.2213  0.0123
31441W        W47515  17.926   8.793   3.118  0.3399 -0.1608 -0.1566
31442W        W47516  13.458   8.518  11.555  0.3846  0.2723 -0.2623
31443W        W47517   4.708   3.246  13.963 -0.0657  0.0806  0.0728
31444W        W47518  10.183   1.213   4.870 -0.2129 -0.3203 -0.0971
31445W        W47519  16.854  17.984   3.202  0.1167  0.0215 -0.1314
31446W        W47520   6.392  15.983  15.101  0.1027  0.1416 -0.1045
31447W        W47521  14.519  10.243  13.126 -0.0223  0.1830 -0.3426
31448W        W47522   2.337   3.253   0.512  0.0431 -0.1086  0.1186
31449W        W47523   9.099   9.837  12.205  0.0749 -0.2328  0.4236
31450W        W47524   7.495   1.901   2.316  0.1166 -0.0011  0.0845
31451W        W47525   0.339   0.782  14.002  0.0683 -0.1745  0.0244
31452W        W47526  11.874   7.660   2.669 -0.0072  0.1272  0.1264
31453W        W47527  12.240   5.520   4.543 -0.0282  0.0596 -0.0122
31454W        W47528   8.878  17.974  14.403 -0.0452  0.1891 -0.3544
31455W        W47529   1.555   9.852  13.827  0.2829 -0.1630  0.0325
31456W        W47530  10.957   5.063   4.094  0.1002 -0.3681 -0.0408
31457W        W47531   2.804   2.334   3.023  0.0429 -0.1088  0.4966
31458W        W47532  13.483  11.598   0.447  0.0941  0.0820 -0.0757
31459W        W47533  14.712   0.190   1.366  0.3906  0.1369  0.1833
31460W        W47534   2.127  15.335   3.673 -0.1899 -0.2802 -0.0733
31461W        W47535  15.380   6.688  15.619 -0.1008  0.1170  0.1254
31462W        W47536  17.366  11.686   4.654 -0.3989  0.1749  0.0019
31463W        W47537  11.258   7.587   5.273  0.2094  0.0150  0.0451
31464W        W47538   9.961  13.511  14.029 -0.1207  0.0953 -0.1884
31465W        W47539   9.876   9.540   5.596 -0.1045 -0.0389  0.4107
31466W        W47540   2.088   4.867  14.693 -0.1762  0.2526  0.2384
31467W        W47541   1.378  14.184   3.007 -0.1546  0.1665  0.1451
31468W        W47542   9.841   7.989   4.867 -0.2515 -0.2792  0.0313
31469W        W47543  12.633   0.060  12.695  0.2119 -0.0172  0.0134
31470W        W47544   9.911   8.030   4.370 -0.1457  0.0905 -0.2289
31471W        W47545  11.104   3.046   3.629  0.0914  0.2255  0.1402
31472W        W47546  13.466   2.650   4.708 -0.3561 -0.3190  0.0818
31473W        W47547   4.702   2.261  14.568  0.0046  0.1314  0.0033
31474W        W47548  10.334  15.700   2.919 -0.0697 -0.2721 -0.1113
31475W        W47549   4.941  14.610   2.562 -0.3465 -0.1705  0.4297
31476W        W47550  14.215   2.646   0.138  0.1284 -0.1367 -0.1710
31477W        W47551  12.475  13.145  11.970 -0.0390 -0.0684  0.0934
31478W        W47552  13.113  11.579   3.287 -0.3271  0.1263 -0.3664
31479W        W47553   8.998  15.840   4.816 -0.1950 -0.6364 -0.1942
31480W        W47554   7.571   2.218  12.112 -0.1502 -0.3950  0.0311
31481W        W47555  17.776  18.139  12.344 -0.1461 -0.0058  0.0740
31482W        W47556   1.781  12.500   3.135  0.3796  0.0334 -0.3005
31483W        W47557  12.665   8.820  14.708 -0.0009 -0.0389  0.0426
31484W        W47558   9.015  16.332  15.457  0.3325  0.0819  0.0504
31485W        W47559   2.566  10.997  11.683 -0.0202 -0.0217  0.3200
31486W        W47560   6.782  17.110   4.687 -0.0449  0.1395  0.2706
31487W        W47561   9.472   1.949  11.804  0.4772 -0.0071 -0.0916
31488W        W47562   6.673   9.993  12.123  0.2091  0.1216 -0.1852
31489W        W47563  17.526   3.295  12.514  0.1287  0.1108  0.0504
31490W        W47564   9.114  15.131  11.600 -0.1517 -0.1521  0.2447
31491W        W47565   5.644  10.093  15.353  0.0074  0.2212  0.1784
31492W        W47566  13.490   2.936   3.951 -0.2428 -0.1240  0.0556
31493W        W47567  10.675  15.922   2.027  0.0777  0.1684  0.0858
31494W        W47568   5.166   5.350  13.437 -0.0824  0.1262 -0.3713
31495W        W47569  10.088  11.429  13.083 -0.2284  0.0247  0.0680
31496W        W47570  14.810  16.808  11.479  0.1761 -0.1911  0.1228
31497W        W47571  10.827   4.832   0.133  0.1164 -0.2109  0.1570
31498W        W47572   0.539  16.640   0.045 -0.0243 -0.1557  0.2858
31499W        W47573   6.363   5.888   2.715 -0.1164 -0.0012 -0.2221
31500W        W47574  13.689  11.487   4.737 -0.0582 -0.0945 -0.1321
31501W        W47575   2.498   8.580  11.845  0.0535  0.0746  0.1737
31502W        W47576   3.490   1.888  11.565 -0.2558 -0.0630  0.3051
31503W        W47577  16.516   0.569   3.394 -0.0338 -0.2326  0.1576
31504W        W47578  11.902   6.835  12.629 -0.0603 -0.2093 -0.0074
31505W        W47579  16.140   0.747  14.301  0.0005 -0.0651  0.0677
31506W        W47580   0.116   5.028  11.404  0.1613  0.1572 -0.2254
31507W        W47581   4.165   0.804  11.607 -0.4332  0.1663  0.0010
31508W        W47582   8.006  10.121   6.653 -0.1184  0.3486  0.1555
31509W        W47583  12.481   6.162  12.228 -0.2455  0.0661 -0.1689
31510W        W47584  15.164  13.337   4.050 -0.1272 -0.1666  0.0679
31511W        W47585  14.841   5.261  16.210 -0.1276  0.3575  0.2115
31512W        W47586   7.537  12.824   0.332  0.1721 -0.0300  0.1956
31513W        W47587   7.042   1.558   4.287  0.0193  0.2165 -0.0062
31514W        W47588   2.086  11.347  12.235  0.0216 -0.1917  0.0046
31515W        W47589  12.972  13.195  15.837  0.2203 -0.1020  0.0237
31516W        W47590  15.141   4.405  13.783  0.2668  0.2396  0.0277
31517W        W47591   9.259   1.101  13.052 -0.3263 -0.0771 -0.1028
31518W        W47592   7.902   8.772   4.359 -0.1272  0.1485 -0.3058
31519W        W47593   4.664  15.371  15.323 -0.1868 -0.3981 -0.0516
31520W        W47594  15.750   2.309  11.367  0.1093  0.1001 -0.0086
31521W        W47595  17.300  12.958  15.725 -0.0022 -0.1732 -0.1847
31522W        W47596  11.306   2.614  11.958 -0.2996  0.0942 -0.1640
31523W        W47597   9.002   5.284  12.819  0.0880 -0.1210 -0.2498
31524W        W47598   6.003  11.256   0.170 -0.0718 -0.0179  0.2407
31525W        W47599  13.051  15.583   2.762 -0.3158  0.1292 -0.1844
31526W        W47600  14.725   4.251   3.293  0.2323 -0.2767 -0.0910
31527W        W47601   8.360   0.993  16.490 -0.1151  0.0972  0.0680
31528W        W47602  15.533  11.732  15.518 -0.1637  0.1860 -0.2538
31529W        W47603   0.238  16.099  11.281 -0.4240  0.0722 -0.0077
31530W        W47604  17.312  17.308  15.166 -0.4605 -0.0752  0.2519
31531W        W47605   2.758  14.994  13.907  0.0608 -0.1361  0.1146
31532W        W47606   8.969   1.485  12.203  0.0650 -0.0215  0.0543
31533W        W47607   4.313  12.261   1.347 -0.0991  0.2035 -0.1846
31534W        W47608  13.969   7.276   2.193 -0.1395 -0.0555  0.0185
31535W        W47609   0.482  15.724   4.512 -0.1712 -0.0565  0.0652
31536W        W47610  15.532  10.821  15.329 -0.1632 -0.3113  0.0214
31537W        W47611  15.164   6.689   3.357 -0.0623 -0.0160 -0.0549
31538W        W47612   9.016   8.579   2.841 -0.2457  0.2128  0.2812
31539W        W47613  17.566   5.723   0.620 -0.2835 -0.0942  0.1714
31540W        W47614  12.096   9.683  13.891 -0.1119 -0.4782  0.0698
31541W        W47615   6.149   8.495   5.365  0.2473  0.1228 -0.0241
31542W        W47616   4.120  16.691  15.006 -0.0113  0.0636  0.0949
31543W        W47617   7.341   6.418   1.354  0.0294  0.0033  0.0437
31544W        W47618  13.966   1.903   1.173 -0.2131 -0.0543  0.1514
31545W        W47619   6.705   4.102   4.698 -0.0189  0.0049 -0.2752
31546W        W47620   5.002   0.832   1.505  0.3460  0.1016  0.3380
31547W        W47621   1.952   3.595   0.719  0.1526 -0.0168 -0.1436
31548W        W47622   2.423  16.564   1.427 -0.0013 -0.0374 -0.1027
31549W        W47623   3.015  17.112  14.221 -0.1347  0.0084  0.0575
31550W        W47624  15.055   0.405   2.953 -0.3628 -0.2490 -0.0574
31551W        W47625  13.339   9.819  13.173 -0.2070 -0.0447 -0.3209
31552W        W47626   9.538  13.288   2.197  0.0676  0.0657 -0.0218
31553W        W47627  10.680   3.496  13.169  0.0441  0.0091 -0.0901
31554W        W47628  11.362   5.246   4.750  0.1862  0.1086  0.4027
31555W        W47629   5.228  16.631  14.961  0.2109  0.0683 -0.3094
31556W        W47630  12.769   0.216  11.891  0.1455 -0.0653  0.1761
31557W        W47631   9.372  13.804   3.803 -0.0598 -0.1144  0.3176
31558W        W47632   4.245   8.913   2.799 -0.2633 -0.2397  0.1660
31559W        W47633   0.079   1.360   9.957 -0.1453  0.1037  0.1025
31560W        W47634  17.882  11.747  16.238  0.3650 -0.0524 -0.0644
31561W        W47635  12.980  15.013   0.095 -0.1733 -0.1488  0.3551
31562W        W47636   8.562   5.293  13.637 -0.1270  0.0484  0.3305
31563W        W47637  15.755  10.273   3.501 -0.1493  0.0408 -0.1995
31564W        W47638  11.561   8.189  13.331 -0.0836 -0.0498 -0.0555
31565W        W47639   3.143   1.536  13.899  0.2003  0.1778 -0.0227
31566W        W47640  14.250  15.709   5.623 -0.0712 -0.4862 -0.3007
31567W        W47641   2.741  17.894  13.768  0.1499  0.0035 -0.2132
31568W        W47642   0.850  10.571  14.051  0.2551 -0.0544  0.0240
31569W        W47643  11.777   5.237   4.458 -0.2854 -0.0315 -0.2451
31570W        W47644  10.087  16.122  12.326  0.0944 -0.1038  0.1251
31571W        W47645  13.698   8.505   6.747 -0.0659  0.1864  0.4271
31572W        W47646  15.167  16.332   4.507 -0.2859 -0.0422 -0.0462
31573W        W47647  14.455   3.595   3.279 -0.4214 -0.0066  0.2304
31574W        W47648   4.429  17.733  16.104 -0.1713 -0.0872  0.1770
31575W        W47649   6.112   5.320   0.976  0.1411  0.1605  0.0878
31576W        W47650  12.647   3.235   1.317  0.0102  0.1670  0.2267
31577W        W47651   6.968  14.713   5.327 -0.1636 -0.4038 -0.3166
31578W        W47652   4.678  17.206   2.346 -0.0564 -0.0768 -0.0058
31579W        W47653  14.004  16.603   4.742  0.3811  0.2714 -0.1903
31580W        W47654   9.121  13.225   2.500 -0.0698 -0.0879 -0.2321
31581W        W47655   3.529  17.766   3.496  0.2530 -0.1018  0.1623
31582W        W47656   5.803  11.075  11.860  0.3182 -0.4141  0.2925
31583W        W47657  16.880   2.792   4.745  0.2287 -0.1502  0.4969
31584W        W47658  11.504  14.710  14.963  0.0019 -0.1191  0.1636
31585W        W47659  15.524   2.436   4.934  0.1173 -0.0192  0.0346
31586W        W47660   0.427   4.995   0.960 -0.1410 -0.1413 -0.1392
31587W        W47661   1.772  18.210  12.726  0.2228  0.0103  0.2518
31588W        W47662   6.752   4.333   1.694  0.0411 -0.1875 -0.2655
31589W        W47663  14.387   9.243  14.424 -0.1061  0.3103  0.2926
31590W        W47664   9.851  14.467   3.724  0.3444 -0.0657 -0.0410
31591W        W47665  15.518   9.941  15.684 -0.0279  0.0034 -0.0216
31592W        W47666  17.831  13.722  13.360 -0.1756 -0.1080 -0.0788
31593W        W47667  10.308   3.940  15.875  0.1200 -0.0559  0.0814
31594W        W47668   7.055   0.055   4.756 -0.1816  0.0795 -0.0991
31595W        W47669   4.314  17.168   0.488  0.3175  0.0882 -0.0110
31596W        W47670   3.706  10.511  12.187 -0.1066 -0.0548  0.1057
31597W        W47671   6.438   8.544  15.921  0.2290 -0.0129  0.1922
31598W        W47672  14.831   9.027  15.761  0.1188  0.0927 -0.0061
31599W        W47673  12.504   3.093  12.795 -0.0654  0.2227  0.1995
31600W        W47674   4.373   3.412  13.660 -0.3858  0.0449 -0.0698
31601W        W47675  12.968  10.982  12.995 -0.0246  0.1166  0.0965
31602W        W47676  11.096   6.311  11.987 -0.1378 -0.0955 -0.2147
31603W        W47677  17.627   7.289  15.000  0.0604  0.1349 -0.1392
31604W        W47678   8.948   6.747  11.627 -0.1860 -0.0691 -0.4039
31605W        W47679   7.016   5.975  15.039  0.2313 -0.0590  0.0042
31606W        W47680   9.531   4.810  12.259  0.2489 -0.1315 -0.0736
31607W        W47681   1.490   5.052   1.533  0.2304 -0.0757  0.5821
31608W        W47682   2.876  17.735  12.536 -0.1998  0.0856 -0.0345
31609W        W47683   4.930   7.189  11.489 -0.0687 -0.3533  0.0408
31610W        W47684   5.012  11.586   1.473  0.0443  0.2168 -0.0197
31611W        W47685  11.345  15.777   1.518 -0.2970  0.2141 -0.2203
31612W        W47686  11.151   9.415   3.291 -0.0873  0.0513 -0.0889
31613W        W47687   4.232  13.200  13.763 -0.0408 -0.2957 -0.1470
31614W        W47688  12.523   6.837   3.733  0.3028  0.1158  0.0127
31615W        W47689  10.110  13.592   2.516  0.2082 -0.0305 -0.1226
31616W        W47690   8.192  15.639   0.653  0.0292 -0.4125  0.2750
31617W        W47691  16.877   3.866  15.251 -0.3207  0.2750 -0.0288
31618W        W47692   7.439   4.723  12.731  0.0366 -0.2561  0.0780
31619W        W47693   9.716   3.427  14.608 -0.2493 -0.3103 -0.1888
31620W        W47694  12.252  15.601   1.465 -0.1171 -0.2365 -0.0711
31621W        W47695   9.258  11.639   5.524  0.1754  0.2267  0.1645
31622W        W47696  10.379  11.686   4.995  0.0064 -0.1811  0.1401
31623W        W47697  15.849   7.730  14.105 -0.3100 -0.2116 -0.0874
31624W        W47698   5.275  17.966  12.031 -0.1448  0.2437  0.0711
31625W        W47699  14.877   7.205   4.889 -0.1489 -0.0038 -0.1119
31626W        W47700   1.088  14.188   1.896  0.2642  0.2790 -0.0164
31627W        W47701   9.415   7.355   3.051 -0.0835 -0.1929 -0.2107
31628W        W47702  13.802  12.304   1.773  0.0577 -0.1997 -0.1270
31629W        W47703  11.968   7.352  13.495  0.1654 -0.0996  0.1546
31630W        W47704   2.122   7.612   3.042  0.3351 -0.1556 -0.0245
31631W        W47705  13.651   9.137   1.971 -0.1420  0.1218 -0.0453
31632W        W47706   0.441   7.218  15.875 -0.1001 -0.0053  0.0658
31633W        W47707  11.398  10.827  13.524  0.1138 -0.0693  0.0195
31634W        W47708  12.551   6.279  13.209  0.1193 -0.2846  0.2694
31635W        W47709  17.016   3.615   4.153 -0.0307 -0.0270 -0.0672
31636W        W47710  14.343   6.342   3.784  0.0148 -0.3966  0.0095
31637W        W47711   1.503  10.111   3.836 -0.1115 -0.0889  0.0704
31638W        W47712  11.377   8.170  12.332  0.0649  0.1800 -0.0964
31639W        W47713   0.520   8.516  16.281  0.1874 -0.0903 -0.0022
31640W        W47714   9.714   6.199  15.064 -0.1689 -0.1260 -0.1811
31641W        W47715   1.421  16.027   2.260  0.0835 -0.1984  0.1288
31642W        W47716   0.275  16.709   3.725 -0.0869  0.2475  0.0991
31643W        W47717   0.676   7.545  12.875  0.2010  0.0717  0.2844
31644W        W47718  13.205  12.066   1.184  0.0372  0.0708 -0.6174
31645W        W47719  13.294  11.551  14.419  0.1894  0.0823 -0.1159
31646W        W47720  17.254   0.555  12.077 -0.0906  0.0981  0.1533
31647W        W47721   7.686   8.194   1.773 -0.0611 -0.1064  0.1327
31648W        W47722   5.834  16.271   2.247  0.1663 -0.0822 -0.0545
31649W        W47723  17.421  13.765  12.613 -0.2555  0.0333  0.1032
31650W        W47724  10.087   3.598   0.163 -0.0107  0.2245  0.1462
31651W        W47725   5.968  16.856   5.884 -0.0510  0.0091  0.0674
31652W        W47726   2.715  17.593  12.043  0.1977  0.1209  0.2938
31653W        W47727   5.285  17.968  14.027  0.2953 -0.0087  0.2764
31654W        W47728  12.213   7.793  11.859  0.1491 -0.0810 -0.0203
31655W        W47729   1.678   0.864  13.731  0.2072 -0.0311 -0.0652
31656W        W47730  10.313  11.893  13.314  0.2996  0.0523 -0.0723
31657W        W47731   1.311   1.419   1.181 -0.1783  0.5798 -0.2206
31658W        W47732   7.414   6.190   4.105  0.0232 -0.0828 -0.2839
31659W        W47733   3.065   6.159   2.378 -0.0940  0.1093  0.1800
31660W        W47734   8.688   1.598   2.179  0.0688  0.0101 -0.0583
31661W        W47735  16.324   8.353   2.696 -0.1939 -0.2654 -0.0644
31662W        W47736   3.558   4.804  15.376 -0.0453  0.0519  0.2125
31663W        W47737  17.688  16.567  14.557  0.2288  0.0976  0.0070
31664W        W47738  16.746  17.060  15.972 -0.4600  0.2387  0.0888
31665W        W47739   0.814  15.734   5.316 -0.0124  0.1001 -0.1606
31666W        W47740   4.340   2.018   5.222 -0.1002 -0.0422 -0.0436
31667W        W47741   4.037   7.931  11.856 -0.1779  0.1736 -0.0455
31668W        W47742   4.643   0.389   5.218 -0.0283 -0.2023 -0.1485
31669W        W47743   3.782  11.272  15.781 -0.0863 -0.1105  0.1148
31670W        W47744   1.640  10.084   1.159 -0.0461 -0.2155  0.2406
31671W        W47745  17.510  10.689   1.304  0.0100  0.0717  0.1764
31672W        W47746   7.060   0.284   3.380  0.0884  0.0667  0.0890
31673W        W47747   2.787   4.932  15.564  0.0478  0.0046  0.0101
31674W        W47748  15.986  14.202   1.459 -0.1403  0.2183 -0.0038
31675W        W47749  15.998  16.014   5.499  0.1852  0.0352  0.1939
31676W        W47750   3.190  17.306  16.391  0.0914 -0.0209  0.2203
31677W        W47751  16.281  13.772   3.419  0.3841  0.2622  0.1373
31678W        W47752   4.485   9.655   4.353  0.1648  0.2352 -0.1931
31679W        W47753  15.148  16.576  14.950 -0.3375 -0.2640  0.2420
31680W        W47754   2.158   0.435  13.596 -0.1303 -0.2091 -0.3946
31681W        W47755   4.059   3.307   6.059 -0.0196  0.2861 -0.0166
31682W        W47756   5.035   2.912  15.684 -0.1870  0.2537  0.1808
31683W        W47757   8.399   7.354  16.049  0.0982  0.1545  0.0308
31684W        W47758   6.046   0.878   3.032  0.2447  0.0045 -0.2706
31685W        W47759   4.247   9.820   2.311 -0.1545 -0.3388 -0.2628
31686W        W47760  16.096  16.981   1.899  0.5188 -0.1976 -0.0274
31687W        W47761  11.893   0.496  15.901 -0.1158 -0.1235  0.2760
31688W        W47762   9.575   2.266  12.370 -0.0695  0.3384  0.0423
31689W        W47763  13.024   3.708  14.316 -0.2683 -0.2184  0.3540
31690W        W47764  17.292   4.277  15.836  0.1758 -0.2384 -0.2308
31691W        W47765  16.723   2.194  15.009 -0.0945 -0.0093  0.2241
31692W        W47766  14.008   1.996   1.781 -0.2778 -0.2630  0.3650
31693W        W47767   2.079  17.787   4.500  0.0732  0.0036  0.3662
31694W        W47768   0.507  11.718   4.382  0.1410 -0.1702  0.2982
31695W        W47769  17.921  14.783   2.205 -0.1009 -0.1044 -0.1993
31696W        W47770  15.679  13.414   0.944 -0.0074  0.1341  0.0578
31697W        W47771  10.117  15.780   4.316  0.1648  0.0427  0.2423
31698W        W47772  11.047  14.109   2.291  0.0420 -0.0003 -0.0644
31699W        W47773   2.739  12.138   1.024  0.1691  0.0893  0.1549
31700W        W47774   5.951  13.240   3.294 -0.1776  0.0031 -0.1619
31701W        W47775   4.726  15.529  16.230  0.0960  0.0277 -0.0568
31702W        W47776   3.803   7.244  14.485 -0.0062  0.1006  0.1367
31703W        W47777   5.396   7.535  16.458  0.0315 -0.4856  0.0317
31704W        W47778   7.257   1.740  16.243 -0.1370  0.2024  0.0752
31705W        W47779  12.831   7.017   5.569  0.0601 -0.0582  0.4002
31706W        W47780   8.087   1.658  14.843  0.0424  0.1464 -0.0863
31707W        W47781  10.833   5.642  16.437 -0.1969  0.3485  0.1277
31708W        W47782   5.813  12.002   3.693 -0.0382 -0.0295 -0.0857
31709W        W47783   0.309  16.946  14.313 -0.0125  0.0623 -0.3148
31710W        W47784   4.723  11.751  13.463 -0.0280  0.1204 -0.0409
31711W        W47785   5.447   2.547   3.181 -0.1819  0.0347 -0.0472
31712W        W47786  11.522  17.750  11.612 -0.3807  0.2310  0.1227
31713W        W47787  15.829  10.891  15.851  0.1406 -0.0913 -0.0898
31714W        W47788  12.034   9.225   4.188 -0.0360  0.1005  0.0035
31715W        W47789  16.235   8.558   2.183 -0.0770 -0.1037 -0.2387
31716W        W47790   9.056  13.942   1.063  0.1205  0.0636 -0.0225
31717W        W47791  11.484   0.875   3.796  0.2127  0.0749  0.2968
31718W        W47792   0.752   8.118   4.879 -0.1021  0.0676 -0.3434
31719W        W47793   4.738  11.717   2.950  0.5122  0.0453  0.1059
31720W        W47794  16.030  10.801  11.828  0.0684  0.1203 -0.0575
31721W        W47795   2.277  12.173   5.445  0.1649 -0.0214 -0.1776
31722W        W47796   4.543  17.221   1.837  0.0065 -0.1026  0.0646
31723W        W47797  11.837  15.682  16.293 -0.1120 -0.0715  0.3245
31724W        W47798  16.738  10.904   2.881 -0.1265 -0.0931  0.0034
31725W        W47799   1.708   7.191  14.342 -0.0093 -0.1513  0.0209
31726W        W47800  15.596   1.037  11.765 -0.3495  0.0140  0.1300
31727W        W47801   2.383   4.036   1.121  0.0845 -0.1439  0.1048
31728W        W47802  15.334  16.512  16.453 -0.0654 -0.2190  0.0352
31729W        W47803  16.869   9.605   0.421 -0.1491  0.4324 -0.2695
31730W        W47804  11.695  11.219   0.183  0.0029 -0.1166  0.0105
31731W        W47805   7.709   6.895   0.892 -0.2592  0.3395  0.0499
31732W        W47806  17.459  14.360  14.470  0.2224  0.1322  0.0130
31733W        W47807   9.752  16.719  12.789  0.3480  0.1134 -0.1039
31734W        W47808  14.102   2.731  13.411 -0.0790 -0.0760  0.1609
31735W        W47809  17.268  10.975  12.309  0.1487 -0.1645  0.0181
31736W        W47810   6.992  17.525  16.478  0.1983  0.0702 -0.0658
31737W        W47811   4.533  10.881  12.196 -0.2483  0.2820 -0.2267
31738W        W47812   5.328  12.854  13.089 -0.5399  0.2009 -0.0916
31739W        W47813  15.010   7.088  13.193 -0.1561 -0.1031 -0.4566
31740W        W47814   0.574  17.972   4.331  0.0236 -0.0890 -0.3712
31741W        W47815  13.928  10.868   0.724 -0.0311  0.2465 -0.1154
31742W        W47816   7.925   5.333  14.359  0.1457 -0.1001 -0.1082
31743W        W47817  15.159   9.330  15.431 -0.0386  0.0233  0.1656
31744W        W47818   6.462  17.283   3.841  0.1984  0.2131 -0.2081
31745W        W47819   1.229   9.938   5.047  0.3601 -0.2347 -0.1668
31746W        W47820  14.790   0.147   0.322 -0.2665  0.1673 -0.1114
31747W        W47821  17.863  17.135  11.004 -0.0057  0.1148  0.1528
31748W        W47822   9.139  13.544  12.356 -0.0173 -0.0436 -0.0475
31749W        W47823  13.094   3.300  13.959  0.0970 -0.1069 -0.0470
31750W        W47824  10.005   3.909  14.632  0.3081 -0.1445  0.0238
31751W        W47825   2.025  11.659   6.202  0.0509  0.0763 -0.0893
31752W        W47826   9.737   9.213  15.656 -0.0377 -0.0054  0.1506
31753W        W47827   0.364   2.272   0.748 -0.0541  0.0061  0.1745
31754W        W47828  12.391  10.131   0.391  0.0295 -0.0152  0.0426
31755W        W47829  14.882  13.756   4.834  0.0860 -0.1564 -0.0326
31756W        W47830   7.218  15.915  12.836 -0.2645  0.0608 -0.1834
31757W        W47831  13.199  11.572   0.864 -0.1345 -0.1483 -0.2802
31758W        W47832   8.870  12.767   2.568 -0.1462  0.1377 -0.3415
31759W        W47833   3.861  11.592  11.769  0.1669  0.0168  0.1052
31760W        W47834   8.552   3.758   3.441  0.1847 -0.3596  0.0441
31761W        W47835   6.259   3.935  14.882  0.1177  0.0730 -0.1481
31762W        W47836   5.507  10.720   4.773 -0.0495  0.0472 -0.1795
31763W        W47837   6.461  17.520   1.179 -0.0150  0.1196 -0.0004
31764W        W47838  14.496   8.710   2.254 -0.0606 -0.0223 -0.1628
31765W        W47839   2.745   3.132  10.576  0.0491 -0.0663 -0.1680
31766W        W47840   6.640   1.366  11.463 -0.3045 -0.1133 -0.1257
31767W        W47841  14.803  11.413   3.708 -0.2257 -0.4253  0.1707
31768W        W47842  17.317  11.867   2.606 -0.0611 -0.3195 -0.2224
31769W        W47843   6.454  17.371  16.422  0.2333  0.1104  0.2278
31770W        W47844   2.923  13.600   2.206 -0.1299  0.0060 -0.2852
31771W        W47845  14.907  16.945   3.894  0.1706  0.0696  0.2721
31772W        W47846   9.438   0.757  12.096 -0.0134  0.1913  0.0734
31773W        W47847  13.323  10.115  15.002  0.0487  0.0547 -0.0577
31774W        W47848   1.147  17.146   2.062  0.2957  0.0705  0.0265
31775W        W47849  16.679   5.558  14.939  0.1480  0.0685  0.1281
31776W        W47850   3.401  16.835  16.155 -0.1888  0.1131 -0.0459
31777W        W47851  14.282   6.361  12.547 -0.3237 -0.1464  0.0583
31778W        W47852   8.402   8.708  15.398  0.1614  0.0774  0.0014
31779W        W47853  12.805   9.553   4.128 -0.3670  0.2267 -0.0976
31780W        W47854   4.444  10.811  13.884 -0.0629 -0.2843 -0.0130
31781W        W47855  12.093   5.765  14.393  0.1842  0.2467 -0.0602
31782W        W47856   5.828   1.415   3.676 -0.0196 -0.0639 -0.0849
31783W        W47857   9.404   5.813  13.445 -0.2800 -0.0630  0.2265
31784W        W47858   0.177   6.068  11.927 -0.0599 -0.0029  0.1824
31785W        W47859  13.843  12.662   0.976  0.1764 -0.2310 -0.2167
31786W        W47860  18.169   8.140   2.785  0.1709  0.2368 -0.1258
31787W        W47861   9.965  16.259   4.470 -0.1677  0.3155 -0.1538
31788W        W47862  16.626   3.961   3.042  0.0133  0.1369 -0.1011
31789W        W47863   5.750   7.804  16.117  0.0608  0.2793 -0.1223
31790W        W47864   1.500   9.382  13.594  0.0263 -0.1583 -0.3320
31791W        W47865   2.754  10.142  12.016  0.0697 -0.1869 -0.0712
31792W        W47866   3.292  14.088  11.786 -0.0491 -0.0591 -0.0709
31793W        W47867  11.712  15.483   4.398 -0.0459  0.2142 -0.3292
31794W        W47868  15.493  11.684   5.685 -0.3755 -0.0955  0.1743
31795W        W47869  15.007  12.879   5.423 -0.1050  0.0333 -0.2083
31796W        W47870   5.850   0.787  13.786  0.0936  0.2837 -0.1601
31797W        W47871  10.598   0.854  12.333  0.0718 -0.0476 -0.0765
31798W        W47872  17.228   0.582  15.575  0.0966 -0.0286 -0.2969
31799W        W47873   0.752   1.489  15.068  0.2478 -0.0007 -0.0949
31800W        W47874  11.178   9.366  11.594  0.0832  0.1200 -0.0742
31801W        W47875  16.040  11.213   0.788 -0.1322 -0.1913 -0.1420
31802W        W47876   0.611   7.926   1.092  0.1005  0.2500 -0.0694
31803W        W47877   4.865   3.611   0.767  0.2356  0.2346 -0.3677
31804W        W47878   6.123   4.993  14.731 -0.0747 -0.1649 -0.1210
31805W        W47879  17.368  11.851   5.884 -0.0648 -0.1662  0.0370
31806W        W47880   2.915   1.525  16.193  0.0849  0.0382 -0.1941
31807W        W47881  12.612  12.164  14.991  0.0324 -0.1075  0.2977
31808W        W47882   1.349  11.327  13.906 -0.1921  0.0099  0.1659
31809W        W47883   9.941  11.498   0.108 -0.1672  0.0950 -0.1292
31810W        W47884  11.528  16.679  13.426 -0.0232 -0.2174 -0.0728
31811W        W47885   4.582  10.331  12.488  0.1477  0.2600  0.0138
31812W        W47886   6.953   1.788  12.787 -0.0875  0.2935 -0.0983
31813W        W47887   9.803   9.875  13.716 -0.1015  0.2279 -0.0030
31814W        W47888   8.748  15.355   3.450  0.1138  0.0366 -0.0115
31815W        W47889  11.781  16.899   3.453  0.1342  0.1357  0.0063
31816W        W47890   3.664   3.897  12.080 -0.1661 -0.1102  0.0914
31817W        W47891   0.661   1.653  11.921 -0.0794  0.2110  0.0296
31818W        W47892  14.062   9.854   6.328 -0.3662 -0.1924  0.0264
31819W        W47893  13.851   9.198  16.337 -0.1431  0.1164  0.2631
31820W        W47894   6.390   3.083  15.487 -0.3015  0.1132 -0.1015
31821W        W47895  11.279  14.891  14.471  0.4293 -0.0232 -0.0057
31822W        W47896   4.206   7.108  13.621 -0.2578 -0.1157  0.2664
31823W        W47897   0.285  11.116   2.931  0.0859 -0.1810  0.0610
31824W        W47898   2.990  17.675   2.188  0.3446 -0.2101  0.1674
31825W        W47899   2.098   1.958   0.530  0.1856 -0.1096 -0.1070
31826W        W47900   9.782   8.911   5.508 -0.3321 -0.0245  0.2648
31827W        W47901  11.894  11.705   3.150  0.0756 -0.2065  0.1483
31828W        W47902   0.499  13.686   3.543 -0.2530 -0.1803 -0.1315
31829W        W47903   4.546   0.792  11.919  0.0551  0.0180 -0.0417
31830W        W47904  10.564  12.685  15.201 -0.1778  0.2217  0.2822
31831W        W47905  16.632   3.661  12.702  0.1807 -0.0212 -0.2185
31832W        W47906   6.752   3.973   3.814 -0.0037 -0.0801  0.0015
31833W        W47907  11.182  14.958   1.202  0.0022 -0.1702 -0.0512
31834W        W47908  13.484  15.786   3.743  0.0551 -0.2858  0.0442
31835W        W47909  14.167   0.440   0.826  0.3038  0.3599 -0.2404
31836W        W47910   0.552  11.923  12.878  0.2601  0.0083  0.2533
31837W        W47911   2.599   1.496   2.911  0.2378  0.0291  0.5951
31838W        W47912   6.608   7.812   3.792  0.4287  0.1705  0.0039
31839W        W47913  14.772   5.496   2.054 -0.0472 -0.2646  0.1694
31840W        W47914   8.428   0.053  14.094  0.1842  0.1745  0.3144
31841W        W47915  12.877  14.302  13.381 -0.3804  0.3107  0.2633
31842W        W47916   3.290   4.594   5.841 -0.1095 -0.0301 -0.0031
31843W        W47917   7.770  17.314   3.264  0.2015  0.1574 -0.1305
31844W        W47918   7.617   0.408  13.972  0.0199  0.1179 -0.1329
31845W        W47919  14.118   0.754  15.945  0.0605 -0.0237  0.1772
31846W        W47920  15.651  12.753  16.516  0.2751  0.1546  0.1269
31847W        W47921  14.505  12.047   4.805  0.0479  0.1377 -0.2316
31848W        W47922   5.797   1.835   4.921 -0.1987  0.1769 -0.2827
31849W        W47923   9.594  12.815   3.472 -0.2152 -0.0894 -0.1503
31850W        W47924   9.295   4.460  11.775  0.0235  0.3380 -0.1152
31851W        W47925   9.025  17.609   2.027  0.1700 -0.2797  0.2805
31852W        W47926  14.625  14.629   5.643 -0.2492 -0.1393  0.2581
31853W        W47927  17.084   7.262  14.049 -0.3419  0.2013 -0.3195
31854W        W47928  13.038  11.242   3.945 -0.3580 -0.1732 -0.1033
31855W        W47929   1.450  11.460   4.695 -0.0174  0.3651 -0.1725
31856W        W47930   4.601   6.231   4.672  0.2192  0.1401  0.1072
31857W        W47931  10.868   6.749   4.965  0.0167  0.0212  0.2517
31858W        W47932  10.740  17.157   0.024 -0.0465 -0.2514 -0.1603
31859W        W47933  13.671  11.312   1.735  0.0450  0.0728 -0.0390
31860W        W47934   1.746  15.786  14.329 -0.2065  0.0134 -0.0414
31861W        W47935   2.066   4.146   2.844  0.2524  0.2320  0.0937
31862W        W47936  14.589   0.636   0.488  0.5251 -0.2081 -0.0739
31863W        W47937   0.189   5.100  10.314 -0.0245  0.2053 -0.1694
31864W        W47938   7.880  15.175  11.233 -0.3203 -0.1220 -0.1010
31865W        W47939   3.557  15.991   0.232 -0.1213 -0.0329 -0.0317
31866W        W47940  11.704  18.208  13.467 -0.0228 -0.1319 -0.2245
31867W        W47941   3.180   2.917   5.908  0.2261 -0.0034 -0.0442
31868W        W47942  16.635   5.723   2.256 -0.0945  0.1371  0.3220
31869W        W47943   7.249   0.507  11.511  0.3658  0.0008 -0.3640
31870W        W47944   0.334  17.187   1.295  0.1530 -0.1735 -0.2195
31871W        W47945  14.399   3.188  13.634  0.2968 -0.0121 -0.1084
31872W        W47946   7.169  15.457  12.630  0.0647 -0.3594 -0.0077
31873W        W47947   0.455   6.676   3.392  0.1761  0.0196 -0.1077
31874W        W47948  13.840   1.116  15.191  0.3548  0.0082  0.1350
31875W        W47949   1.526  13.428  14.936 -0.2278 -0.0539  0.2100
31876W        W47950  11.232   0.305  11.808  0.2936 -0.0381 -0.0564
31877W        W47951   8.309   5.086   2.401  0.2436  0.0928  0.2773
31878W        W47952   5.939   5.118   2.124 -0.4582  0.2847  0.0075
31879W        W47953   0.030  11.825  11.355 -0.0942  0.1230  0.3416
31880W        W47954  12.112   2.122  16.376 -0.2407 -0.1145  0.1492
31881W        W47955  16.987  11.907  13.689  0.1734  0.2939 -0.1744
31882W        W47956   8.368   9.915  11.775  0.1140 -0.0073  0.3427
31883W        W47957  14.052  16.719  12.532 -0.2490 -0.0795  0.1551
31884W        W47958  17.063  17.543  13.465 -0.0804  0.1232 -0.0033
31885W        W47959   2.459  10.170  11.559  0.0647 -0.1753 -0.2061
31886W        W47960  14.814   8.254   5.335 -0.3396 -0.1812 -0.3526
31887W        W47961   7.285   2.172   0.389 -0.1069  0.0160 -0.0539
31888W        W47962  16.269   5.011  13.482  0.1658  0.1708 -0.2498
31889W        W47963   1.890  16.046  12.469  0.5921 -0.2308 -0.1418
31890W        W47964   6.826   1.041   5.085  0.1689  0.0192  0.2624
31891W        W47965   7.663   2.843  13.940 -0.2457  0.0592 -0.0746
31892W        W47966   3.927  13.054   2.852 -0.1708  0.1001  0.1274
31893W        W47967   5.778  15.417   3.279  0.1012 -0.0434 -0.0529
31894W        W47968  12.247  10.802   2.556  0.3958  0.1640 -0.0577
31895W        W47969   8.432   1.311  11.394  0.1842  0.4937  0.0511
31896W        W47970   2.118   1.048  13.833  0.2421 -0.2382  0.0517
31897W        W47971  10.906   4.308  14.261 -0.2009  0.2104 -0.0502
31898W        W47972  14.986   7.898  15.446  0.1092 -0.0393 -0.0748
31899W        W47973  11.633   0.058  14.238 -0.1445 -0.2643 -0.0489
31900W        W47974  12.308   4.958   5.196  0.1619 -0.0725 -0.0511
31901W        W47975   2.908   6.135  12.138  0.2881  0.1188 -0.0655
31902W        W47976   9.311   8.023  12.445 -0.0460  0.1759 -0.2606
31903W        W47977   8.026  16.693   4.455 -0.1938  0.2100 -0.0457
31904W        W47978   5.555   3.585   0.492  0.1469 -0.0543 -0.2950
31905W        W47979   1.505  15.799  13.877  0.0240  0.2979  0.1392
31906W        W47980   4.299   1.015   4.465  0.0080  0.1043 -0.0582
31907W        W47981  13.293   3.589   0.516  0.4274  0.2634  0.0206
31908W        W47982  11.780  12.135   4.539  0.0216  0.1529 -0.0663
31909W        W47983   9.328   2.187  13.641 -0.1164  0.2571 -0.4143
31910W        W47984  12.123  14.516   1.103 -0.2325 -0.0619  0.0767
31911W        W47985   7.972  16.575  12.013 -0.1387  0.3734 -0.1640
31912W        W47986   4.195   6.523  13.725  0.4651 -0.0332  0.1887
31913W        W47987   2.523   9.885   3.099 -0.3139 -0.0214 -0.3370
31914W        W47988  16.341   6.012   0.735  0.0500 -0.3607 -0.0848
31915W        W47989  16.735   8.169   4.829 -0.0252 -0.0776 -0.1802
31916W        W47990  17.474  17.384   5.550  0.1549  0.0832 -0.1035
31917W        W47991   0.152  14.841  13.577  0.0780  0.0368 -0.0802
31918W        W47992  10.486  16.355   2.684 -0.0224 -0.3850 -0.0267
31919W        W47993  12.229  11.607  16.177  0.2014  0.0643 -0.1663
31920W        W47994   7.647   7.724   5.505 -0.2865  0.1039  0.0816
31921W        W47995   5.517   5.637   5.577 -0.3208 -0.2691 -0.1353
31922W        W47996   8.342  17.952   3.179 -0.1597  0.2354 -0.1178
31923W        W47997   9.742   6.350  14.098  0.1039  0.1750  0.0184
31924W        W47998  11.634   9.901   4.963  0.1591  0.0225  0.1684
31925W        W47999   3.898   7.228  13.999  0.0448  0.1097 -0.1822
31926W        W48000   5.444   5.448  13.048  0.0886 -0.2509  0.3236
31927W        W48001   4.320  11.322  14.102 -0.4612  0.1638 -0.0696
31928W        W48002   3.291   6.675  15.010 -0.1850  0.1079 -0.2321
31929W        W48003  12.505  15.159  15.962 -0.0357  0.1445  0.1715
31930W        W48004  11.049   7.184  16.468  0.2800 -0.0575  0.1553
31931W        W48005  16.259   8.644  15.645 -0.0171 -0.0482 -0.0109
31932W        W48006   7.883   0.365  11.909  0.0314  0.0252 -0.1979
31933W        W48007  10.804   6.104   1.688 -0.1696  0.0404 -0.1397
31934W        W48008  16.601  14.815  10.848  0.1727 -0.0275  0.0922
31935W        W48009   3.546   3.171  11.536 -0.2760  0.1570 -0.1884
31936W        W48010   4.440   9.285   0.125  0.1914 -0.0269  0.1063
31937W        W48011  14.183   3.570   5.058  0.0537 -0.3275  0.2875
31938W        W48012  13.247   2.559   1.254  0.0450 -0.3101 -0.0625
31939W        W48013   2.392  12.368   6.006  0.0922 -0.0415 -0.0841
31940W        W48014  13.951   3.699  13.062  0.2779 -0.1789  0.1077
31941W        W48015   0.269  12.163   4.249 -0.1864  0.0630 -0.0710
31942W        W48016  12.665  16.523   4.443  0.3859 -0.0961 -0.2856
31943W        W48017  16.501  10.562  11.852 -0.0847 -0.0359 -0.1046
31944W        W48018   2.926   7.905   4.220 -0.1780  0.0860  0.1399
31945W        W48019  17.259   3.145   5.023  0.2812 -0.0463 -0.1872
31946W        W48020   0.392   2.363   1.313 -0.3362  0.2624 -0.2682
31947W        W48021  11.796   7.814   4.797  0.2812 -0.0952 -0.1660
31948W        W48022   3.526   7.953   2.126  0.1312  0.0835 -0.1203
31949W        W48023   2.969  14.067   6.176 -0.1395 -0.0664 -0.0308
31950W        W48024   1.831  13.286  12.042  0.0596 -0.0367  0.1291
31951W        W48025   9.920  17.117   3.024 -0.1634  0.0149  0.1359
31952W        W48026   7.476   9.624  14.185  0.0650 -0.2800 -0.0298
31953W        W48027   7.980  16.077  14.114 -0.3969  0.1652 -0.1628
31954W        W48028   0.132   9.226   1.308  0.0610  0.3602 -0.0528
31955W        W48029   4.755  10.564   0.754  0.0992  0.0847  0.0584
31956W        W48030  17.355  10.056  12.784  0.2712 -0.2602  0.0912
31957W        W48031   9.249  15.627  12.602  0.3609 -0.2545 -0.1285
31958W        W48032  10.598  18.125  13.462  0.4746 -0.0372  0.2206
31959W        W48033   5.691   9.846   0.751 -0.0279 -0.0638 -0.0469
31960W        W48034   0.592  14.340   5.770  0.0640  0.0105 -0.0446
31961W        W48035  11.265   6.025   0.316  0.2696 -0.3058  0.0987
31962W        W48036  14.534  16.218  13.116 -0.1887  0.1731  0.0187
31963W        W48037   2.774  11.082   4.874  0.1619 -0.1371  0.1150
31964W        W48038   5.707  18.123   1.858 -0.0066 -0.0382  0.0284
31965W        W48039  16.845  15.027  13.433  0.0035 -0.1467 -0.0007
31966W        W48040  11.079  14.264  12.505  0.2233  0.3364 -0.3716
31967W        W48041   0.211   6.480  15.775 -0.1568 -0.0625  0.0758
31968W        W48042  11.198  16.765   3.082 -0.0296 -0.0776  0.2690
31969W        W48043   6.283   1.579  11.815 -0.0805 -0.1326 -0.0791
31970W        W48044   9.558   5.476  16.342 -0.0953 -0.1115  0.3396
31971W        W48045   7.723   2.957   6.679  0.0892  0.0231  0.0814
31972W        W48046   7.493  17.062  15.208  0.1309  0.0035 -0.3197
31973W        W48047  14.843   3.933   2.663  0.1477 -0.0591 -0.0425
31974W        W48048   3.816  15.139  14.425 -0.0703  0.1356 -0.1496
31975W        W48049   0.734   1.884   3.770  0.0505  0.1113 -0.0104
31976W        W48050  15.555   1.520  11.273  0.1251  0.1017 -0.0547
31977W        W48051  14.118  15.061  13.307  0.2363 -0.2177 -0.0163
31978W        W48052  17.341  13.535   3.282  0.2666 -0.1381 -0.2776
31979W        W48053   3.493  13.957  12.297 -0.0590  0.0978 -0.0547
31980W        W48054  15.781   2.030   2.839  0.0474  0.1882 -0.0055
31981W        W48055  12.616   4.948   0.222 -0.0722 -0.2717  0.1282
31982W        W48056   5.878   8.381   0.068 -0.0248 -0.2287 -0.2494
31983W        W48057  16.340   9.264   3.628 -0.0791  0.1112 -0.0575
31984W        W48058   3.230   5.059  14.027 -0.1015  0.0304 -0.2123
31985W        W48059  12.690  16.079  12.737 -0.0725  0.0052 -0.1871
31986W        W48060   3.835   9.648   2.772  0.1184  0.1738 -0.3383
31987W        W48061  12.627   0.145   0.680 -0.1838  0.0936  0.0799
31988W        W48062  10.332  16.737   1.864  0.2471 -0.0271 -0.1949
31989W        W48063   5.855  13.873  11.404 -0.1272 -0.0389 -0.0523
31990W        W48064   6.543  10.509   0.042 -0.1495  0.0795  0.0325
31991W        W48065  15.043   5.764  15.942 -0.2494  0.2806 -0.3802
31992W        W48066   5.190   6.805   1.564 -0.2285  0.3603 -0.0139
31993W        W48067   3.306  17.267   2.309  0.0934 -0.0737  0.2596
31994W        W48068  11.595   9.522  15.051 -0.3235  0.1099  0.0269
31995W        W48069  14.019  10.048  14.019 -0.0653 -0.2270  0.2593
31996W        W48070   8.281  13.284   4.611  0.1226 -0.1054  0.0595
31997W        W48071   8.395   5.991  16.263 -0.0094 -0.2641 -0.2102
31998W        W48072   4.346  16.908  16.483 -0.2378  0.0683 -0.0860
31999W        W48073  11.095   0.849  12.008  0.0005 -0.1807  0.2348
32000W        W48074  12.167   1.998   3.672  0.1055  0.0218  0.0799
32001W        W48075  13.359  15.085   5.364  0.1742  0.3922 -0.0553
32002W        W48076   9.191   5.535   4.926  0.1303 -0.0912 -0.3771
32003W        W48077  16.066  14.959   0.877 -0.0341 -0.0893  0.0228
32004W        W48078   5.111   3.410  12.106 -0.1284  0.0833 -0.1833
32005W        W48079   2.978  15.910   4.776 -0.1196 -0.0953  0.2413
32006W        W48080  18.143  15.062   3.081  0.1559 -0.2781  0.1221
32007W        W48081  15.411  11.148  16.111  0.0729  0.3039 -0.0599
32008W        W48082   5.083  15.434  15.039  0.1326  0.2747 -0.1329
32009W        W48083  17.008   9.684   2.755  0.0837  0.1345 -0.3402
32010W        W48084   7.914   5.978  14.501  0.2020 -0.3942  0.0693
32011W        W48085   1.433   7.958   3.461  0.3667 -0.0562  0.0234
32012W        W48086  13.537  13.200   2.237 -0.1151  0.1148  0.0746
32013W        W48087   4.377  15.206   2.960  0.0323  0.2218 -0.1547
32014W        W48088  15.949  11.615  11.877 -0.1436  0.3408  0.1571
32015W        W48089   9.097  13.544  16.343  0.1508  0.1134  0.0690
32016W        W48090  14.568   3.491   4.779 -0.1148 -0.0897 -0.0698
32017W        W48091  15.134   7.533   1.566 -0.0222  0.1120 -0.1139
32018W        W48092   4.380  11.544   4.663  0.0862 -0.0382  0.4197
32019W        W48093   0.631   6.980   0.160  0.2512 -0.3047 -0.2191
32020W        W48094   4.439  13.673  16.410  0.0413  0.5943 -0.1973
32021W        W48095  14.217  15.371   0.148  0.3718  0.1519  0.1230
32022W        W48096  13.336  14.700   2.878 -0.0582 -0.0120 -0.1467
32023W        W48097   6.386  17.325   4.968 -0.2630  0.2613  0.3169
32024W        W48098   6.396  11.048   1.879  0.1861 -0.0624 -0.0733
32025W        W48099  18.208   8.046  12.870 -0.2700  0.2800  0.1602
32026W        W48100   8.539   4.674   4.930  0.0005 -0.3924  0.5055
32027W        W48101  11.639  14.725   5.111 -0.1686  0.0593 -0.0208
32028W        W48102  17.294   2.045   5.185  0.1703 -0.0959  0.1664
32029W        W48103   1.743   0.488   0.423  0.0749 -0.2588  0.1554
32030W        W48104   9.730   0.587  15.958 -0.0788  0.0457  0.0940
32031W        W48105  10.840   6.232   2.635 -0.2274 -0.1912  0.0088
32032W        W48106  15.575  13.002   1.966 -0.0823 -0.0868 -0.1355
32033W        W48107   2.950  16.000  15.058 -0.0647  0.1882  0.0523
32034W        W48108  11.088  17.997   3.290 -0.3100  0.0390  0.0142
32035W        W48109   8.914   9.762  13.993 -0.0112  0.0172  0.2499
32036W        W48110  15.425  14.696   0.913  0.1471 -0.0591 -0.1183
32037W        W48111   7.984   4.599   5.791 -0.0207  0.0932 -0.1103
32038W        W48112  17.379  13.332   9.870  0.0545 -0.1754  0.2177
32039W        W48113  12.465   6.035   4.585  0.1198  0.0126 -0.0796
32040W        W48114  16.694  10.430   3.011  0.2227  0.1477 -0.3652
32041W        W48115  12.364  15.809   1.013 -0.1942  0.0334  0.1961
32042W        W48116  14.938   0.653  13.349  0.2953 -0.0490  0.1896
32043W        W48117   3.492   4.963  13.474 -0.0798  0.0835  0.0624
32044W        W48118   5.616   5.218  14.537 -0.0637 -0.0345  0.0362
32045W        W48119  12.031   8.563   5.877 -0.0093 -0.0198  0.0430
32046W        W48120   0.634   1.619  11.370 -0.0703 -0.1282 -0.0078
32047W        W48121   5.911   4.819  16.239 -0.2035 -0.0543 -0.1058
32048W        W48122  16.170  10.767   0.213  0.2221  0.0422 -0.1314
32049W        W48123  12.473   9.210   4.348 -0.0410  0.1809 -0.1953
32050W        W48124  14.246   4.720  15.560 -0.0341 -0.0009  0.0141
32051W        W48125  15.107   1.385  15.818  0.4571  0.2325  0.2527
32052W        W48126   2.064   5.151   0.155  0.0573  0.1205 -0.2175
32053W        W48127  10.207   5.677  13.783 -0.1891  0.0737  0.1992
32054W        W48128   8.315  14.191   2.084 -0.4010 -0.5197  0.3648
32055W        W48129   8.193   6.067  12.456  0.0107 -0.1766  0.1788
32056W        W48130  17.262  12.208  11.334  0.2037  0.0277  0.0158
32057W        W48131   5.037  15.134  10.966  0.0921 -0.1517  0.3146
32058W        W48132   1.765   1.863   3.069  0.2631  0.0285  0.0264
32059W        W48133   5.811  11.857  12.195 -0.3960  0.0720  0.1032
32060W        W48134   6.954   5.595  14.668  0.1726  0.0333  0.1234
32061W        W48135  12.546  13.894  13.205 -0.1972 -0.2098 -0.0146
32062W        W48136   4.328   6.657   3.728  0.0995  0.1894  0.0187
32063W        W48137  18.207  13.210   1.438  0.0194  0.0369 -0.1097
32064W        W48138   8.162  14.446   3.023 -0.2343  0.1868  0.0265
32065W        W48139  17.467   5.527   1.892 -0.4299 -0.2514 -0.1641
32066W        W48140  14.839  10.781   3.037 -0.1359 -0.2573  0.1898
32067W        W48141   2.960  14.783  15.269  0.1022  0.0557 -0.0070
32068W        W48142  11.869   3.227   4.820 -0.1157  0.3594 -0.1571
32069W        W48143  14.692   6.990   1.853  0.3113  0.0843  0.4560
32070W        W48144  17.880  13.167  12.164  0.0324 -0.1015 -0.3217
32071W        W48145  11.607   9.173  12.495 -0.2318  0.2268 -0.0224
32072W        W48146  18.126   5.085   0.041  0.1461  0.0274 -0.2388
32073W        W48147  14.959  12.994  11.668 -0.0378 -0.1498  0.1339
32074W        W48148  15.500  11.921   1.219 -0.1421  0.0344 -0.0076
32075W        W48149  14.872  17.916   1.167 -0.0821 -0.0693 -0.0921
32076W        W48150   3.948  13.806   3.081  0.1308  0.4545  0.1497
32077W        W48151   6.482   6.534  13.233 -0.0027 -0.1582  0.1537
32078W        W48152   9.724  15.502  13.362 -0.0303  0.0239  0.1765
32079W        W48153  18.127   8.862  13.321  0.0812  0.0131  0.0021
32080W        W48154   7.695  13.586  15.260 -0.1825 -0.0804 -0.0872
32081W        W48155   0.123  16.059  14.258  0.0714 -0.0953  0.1482
32082W        W48156  12.140  13.877  13.466  0.0489  0.0569 -0.0549
32083W        W48157  15.770  10.049   4.551 -0.0971  0.3268 -0.2555
32084W        W48158  14.620   1.670   0.995 -0.3354  0.1336 -0.2742
32085W        W48159   0.416   8.928  11.906 -0.1154 -0.1532  0.0227
32086W        W48160  15.333  10.432  12.049  0.2083  0.0412  0.0921
32087W        W48161   0.578  17.578   3.184 -0.1282 -0.1010  0.1700
32088W        W48162   1.901  17.937   0.883  0.1500  0.0411  0.2602
32089W        W48163   8.553   2.501   4.185  0.2958  0.1847  0.0014
32090W        W48164  13.988   9.756   1.508  0.2242  0.0423 -0.0595
32091W        W48165   6.617  14.402  15.341  0.1229 -0.0862 -0.0598
32092W        W48166  11.339  17.686   4.969  0.0347  0.3716  0.1995
32093W        W48167  10.188  13.399   0.921 -0.1277  0.0489  0.1107
32094W        W48168  16.477   1.141  13.346 -0.1664 -0.2622  0.0567
32095W        W48169  16.515  10.650  15.372  0.2010  0.0403  0.2110
32096W        W48170  15.228   9.675   2.798  0.0550  0.1110  0.2368
32097W        W48171   2.352  14.515   2.881  0.0667 -0.1634  0.1720
32098W        W48172   1.292  15.666  15.910  0.0519  0.0490  0.2480
32099W        W48173   8.755   3.227   2.960 -0.1566 -0.0846  0.1446
32100W        W48174  15.553  14.904  12.496 -0.0192  0.1100  0.0712
32101W        W48175  15.960   7.862  12.107 -0.0055 -0.1632  0.1730
32102W        W48176   6.507   5.166   5.764 -0.1804  0.0069 -0.2121
32103W        W48177  10.348  13.877  13.888  0.4408  0.2193 -0.0044
32104W        W48178   7.822  15.325  11.867 -0.2889 -0.3632  0.1227
32105W        W48179   6.374   0.919   2.256 -0.1175  0.0106  0.1113
32106W        W48180  15.588   1.936  13.398  0.2256  0.1380 -0.0801
32107W        W48181   7.929  11.867   3.191  0.3092  0.0459  0.1112
32108W        W48182  13.090  11.190  16.370  0.1623 -0.5345  0.2128
32109W        W48183   3.223   9.255   5.737 -0.1682  0.1208  0.2104
32110W        W48184   8.755   5.144   2.705 -0.0272 -0.0535 -0.0883
32111W        W48185   5.282  14.979   0.437  0.0310 -0.0349  0.2130
32112W        W48186   2.675   2.808   3.193  0.2701 -0.4171  0.1303
32113W        W48187  12.750  16.974   0.676  0.1998  0.1105 -0.1503
32114W        W48188   0.331  10.555   2.078  0.0970  0.0017  0.3042
32115W        W48189  12.220  17.251  11.646 -0.0759 -0.0381  0.1265
32116W        W48190  10.883  15.415  12.241 -0.3770  0.0251 -0.0221
32117W        W48191  14.236   8.734  13.778 -0.1491  0.0348  0.0082
32118W        W48192  12.701   3.411   1.780 -0.1657  0.0371 -0.0406
32119W        W48193  16.711   1.014   4.750 -0.0193 -0.1937  0.1024
32120W        W48194   0.763  12.953  14.253  0.1945  0.2107 -0.0932
32121W        W48195   4.353  10.060  14.832  0.0306  0.1119 -0.0284
32122W        W48196   2.033   2.332  12.628 -0.1344 -0.3625  0.1884
32123W        W48197   7.910   4.153  13.018  0.2796  0.1782  0.1115
32124W        W48198  16.883  13.188  14.918  0.0808 -0.2572  0.1005
32125W        W48199   1.299  15.480  14.264  0.1461  0.3255  0.0630
32126W        W48200   8.578   9.874  15.772  0.0749 -0.0405  0.2597
32127W        W48201  13.800  12.802  11.649  0.5147 -0.4905 -0.0154
32128W        W48202   6.270   7.514  16.026 -0.2264 -0.0704 -0.1218
32129W        W48203   0.770  14.111   3.729  0.1129 -0.1488 -0.1072
32130W        W48204  11.035   9.817   6.415  0.0046 -0.5212  0.1924
32131W        W48205   6.402   7.187   3.191  0.0905  0.0672 -0.2308
32132W        W48206   1.043  10.382  14.477 -0.2487 -0.1422  0.0633
32133W        W48207  12.924   3.186   3.620 -0.0436  0.0052 -0.1937
32134W        W48208   0.354   2.238  15.156  0.0265  0.5649 -0.1775
32135W        W48209  10.579  12.011   2.749  0.0503  0.0991 -0.1809
32136W        W48210   4.173   7.944   1.076  0.2068 -0.0737  0.0312
32137W        W48211  11.002   5.561  14.474 -0.0397 -0.1092  0.0176
32138W        W48212   1.993  17.853  15.453  0.0211 -0.0497  0.1632
32139W        W48213   5.503  11.346   5.399 -0.1288  0.0716  0.2793
32140W        W48214   9.386   6.158   5.661  0.1989 -0.0844 -0.1646
32141W        W48215   7.917   1.077   1.897  0.2306  0.0092  0.0032
32142W        W48216  16.776  15.356  12.178  0.0176 -0.2182 -0.4234
32143W        W48217   3.263   4.701   5.201 -0.0199  0.1186 -0.0052
32144W        W48218   6.194   9.780   0.598  0.1453  0.1371 -0.0663
32145W        W48219   5.865   1.250  11.583 -0.0028 -0.0656  0.0383
32146W        W48220   0.369   1.038  13.137 -0.1209  0.1538  0.0495
32147W        W48221   7.756   5.336  13.880  0.0483 -0.0069  0.2050
32148W        W48222   8.715   1.606  15.779 -0.0053 -0.0423 -0.0512
32149W        W48223   6.526  15.589  15.444 -0.0006  0.0428 -0.1174
32150W        W48224   2.834   6.410   0.334 -0.0813  0.1593  0.2333
32151W        W48225  15.342   3.183   4.521  0.0267  0.0198 -0.4448
32152W        W48226   1.070  11.399   5.098 -0.0132 -0.0039 -0.1320
32153W        W48227  11.547  17.942  12.585 -0.0988 -0.1583 -0.0717
32154W        W48228   4.359  16.607   0.657 -0.0517  0.0175  0.0349
32155W        W48229   5.403   4.409   5.019  0.0117  0.1902 -0.3255
32156W        W48230   3.174  10.424  16.027 -0.1825 -0.1961 -0.1946
32157W        W48231   8.817   9.596  14.955  0.1026 -0.1864 -0.0299
32158W        W48232   3.054  11.549  15.408  0.0498 -0.3998  0.0705
32159W        W48233   5.292  10.419  16.185 -0.1786 -0.0183  0.0025
32160W        W48234  13.346   9.737   4.694  0.2099  0.2404  0.1825
32161W        W48235   0.948  18.163   5.233  0.2667 -0.2700  0.1656
32162W        W48236  14.744  16.275  15.568  0.0357  0.2949 -0.0914
32163W        W48237  14.658   2.842   0.283 -0.0004 -0.0736  0.1608
32164W        W48238  12.254   7.654  13.175  0.1065 -0.2075  0.1153
32165W        W48239   8.494  10.840  13.751  0.4368 -0.0062  0.0384
32166W        W48240   5.563   8.359  12.509  0.2286  0.0233 -0.4837
32167W        W48241  10.354  10.095   2.050  0.2610  0.0074 -0.0148
32168W        W48242   3.444   6.502   4.056 -0.0987 -0.1982 -0.1727
32169W        W48243   1.154   2.465  13.645  0.1944  0.1430  0.1128
32170W        W48244   7.595   4.050   2.145 -0.0338 -0.2315  0.1346
32171W        W48245   7.803   0.106   0.104 -0.1601 -0.0810 -0.0943
32172W        W48246   7.574  16.890  15.669 -0.2129  0.0989 -0.0152
32173W        W48247  10.981   1.211   3.533 -0.1362  0.2081 -0.3388
32174W        W48248  17.214  14.105   3.299  0.1506  0.0132 -0.2285
32175W        W48249   4.064  12.299   2.507  0.1161  0.2883  0.1344
32176W        W48250   0.549  15.249   0.531 -0.0639  0.0758 -0.2060
32177W        W48251  18.215   4.546  15.839  0.0533  0.2922  0.2276
32178W        W48252  17.935  14.093  15.104  0.2429  0.0955  0.0596
32179W        W48253   0.816   1.267   3.031  0.0440 -0.1784 -0.0929
32180W        W48254  12.260  13.159   0.769 -0.2079 -0.1482  0.1033
32181W        W48255  16.272  17.064   2.390  0.0275  0.0158 -0.2077
32182W        W48256   0.522   8.545  13.705  0.1783 -0.1591 -0.1300
32183W        W48257   2.662   9.466   2.211 -0.1712 -0.0577  0.0666
32184W        W48258   0.475   6.157   5.303 -0.1612 -0.1150 -0.1681
32185W        W48259   9.187  14.924   6.053  0.0672 -0.2001  0.0978
32186W        W48260   9.443   2.219   2.170 -0.0364  0.0294  0.0527
32187W        W48261   1.774   9.637  16.412 -0.0119 -0.1642 -0.2292
32188W        W48262   4.957   2.354   0.309  0.3741 -0.2675  0.0059
32189W        W48263  12.061  12.569   4.674 -0.0890  0.1690  0.0904
32190W        W48264   0.137  17.133  15.214 -0.1364  0.0449 -0.0747
32191W        W48265   1.764  16.831  11.414  0.3024 -0.0478 -0.0573
32192W        W48266  16.244  16.253   6.003  0.1601 -0.2327 -0.0380
32193W        W48267   7.287  13.831  14.556  0.1091 -0.0348  0.1878
32194W        W48268   4.420  17.101  14.711 -0.2418  0.0558  0.0241
32195W        W48269   6.449  16.847  14.245 -0.0241 -0.3943  0.0535
32196W        W48270  10.807   8.641  13.274 -0.2490  0.1868 -0.2169
32197W        W48271   8.809   6.754   0.228  0.1125  0.3325 -0.1687
32198W        W48272  13.617   7.609   2.385 -0.0581 -0.0330  0.0221
32199W        W48273  16.225   6.546  15.016 -0.1400  0.1662 -0.3345
32200W        W48274   7.472  13.941   1.001  0.1445 -0.0209  0.3772
32201W        W48275   6.878  16.286  11.398 -0.0690  0.0287 -0.0471
32202W        W48276  10.364  12.302  14.109  0.3133  0.0005 -0.0921
32203W        W48277   3.199   5.259   4.639 -0.2011 -0.1339  0.1813
32204W        W48278   8.584   6.182   5.738  0.0534 -0.0121 -0.0110
32205W        W48279   8.824  11.498  16.505 -0.2142 -0.0040  0.0204
32206W        W48280   4.153   2.902   3.770  0.2891 -0.0670  0.0547
32207W        W48281  18.058   6.717  16.492 -0.1555  0.0714  0.2346
32208W        W48282   2.977  10.047   0.480  0.0442  0.1925  0.1501
32209W        W48283  17.305  13.090   5.198 -0.1794 -0.2508  0.0511
32210W        W48284  13.094  14.504  10.676 -0.1302  0.1799 -0.1784
32211W        W48285  11.425  13.249   4.944  0.1467  0.0623  0.2581
32212W        W48286  10.876  14.344  11.250 -0.0454  0.2808  0.1077
32213W        W48287   9.567   7.220   0.839  0.1258 -0.2117 -0.2116
32214W        W48288  14.507  16.841   4.161 -0.0383  0.0018  0.0527
32215W        W48289  10.693  11.645   4.038 -0.0005 -0.1394 -0.1016
32216W        W48290   1.733   7.317   2.818  0.4585  0.0273  0.2406
32217W        W48291   1.580   9.501   0.289  0.1918  0.2563 -0.0393
32218W        W48292   7.378   2.302   0.870 -0.1759  0.1681  0.2297
32219W        W48293   9.760  15.535  15.776 -0.2886  0.2282  0.0825
32220W        W48294   6.825   9.947   5.149 -0.0963  0.0120  0.2192
32221W        W48295   1.985  14.465   1.641  0.0492 -0.1259  0.2618
32222W        W48296  13.819  17.133   3.612  0.0078  0.0131  0.0587
32223W        W48297  15.343  12.894   2.797  0.1860 -0.1024 -0.1038
32224W        W48298   9.749   5.816  11.537  0.0757 -0.1501  0.1128
32225W        W48299   3.517   5.028  11.378 -0.1917  0.1210 -0.1818
32226W        W48300   8.028   0.883  14.159  0.1226  0.0742  0.2440
32227W        W48301  11.645   3.062  14.441 -0.0267  0.0106  0.0709
32228W        W48302   7.725  12.747   3.104 -0.3430  0.2136  0.0663
32229W        W48303   4.232  12.630  13.024 -0.0944 -0.1279 -0.1124
32230W        W48304   0.214  11.766   2.368 -0.1310 -0.2378  0.0780
32231W        W48305   2.839  13.162  14.925 -0.1424 -0.0044  0.0942
32232W        W48306   4.459   5.394  14.216  0.0180 -0.0531  0.3710
32233W        W48307  11.355  13.592   1.735 -0.3304 -0.1984  0.0205
32234W        W48308  17.233   3.264  13.541 -0.1698 -0.0235 -0.3276
32235W        W48309   2.823  10.388   3.037  0.0269 -0.0337  0.0309
32236W        W48310   0.520  12.122  12.390  0.1963 -0.0161  0.0093
32237W        W48311  14.666   2.256  14.434  0.0932 -0.0484 -0.0465
32238W        W48312   4.673  14.865   5.166 -0.0505 -0.1145 -0.1046
32239W        W48313  18.055   7.360   0.454  0.0171  0.0260  0.5660
32240W        W48314  15.600  16.955   3.111 -0.0869 -0.0012  0.3173
32241W        W48315  13.357   1.969   3.856 -0.1493  0.1591 -0.3338
32242W        W48316  10.701   1.557  16.490  0.2365  0.2449  0.1503
32243W        W48317   8.254  10.541  14.122 -0.1528 -0.2887  0.3336
32244W        W48318   8.613  16.501   5.431 -0.1229  0.5270 -0.3780
32245W        W48319  17.844  17.829   0.443 -0.0996  0.1447  0.0593
32246W        W48320  13.759   4.473   3.288 -0.2235 -0.0262  0.0252
32247W        W48321  14.281   5.285  13.001 -0.0718  0.1564 -0.0186
32248W        W48322  17.031   9.732  13.341  0.0820  0.1366  0.0711
32249W        W48323   5.809   4.578  15.820  0.2214  0.1362 -0.1814
32250W        W48324  17.588   2.531  14.639 -0.1469 -0.3888  0.1813
32251W        W48325  10.272  11.226  14.132 -0.0227 -0.0056  0.0857
32252W        W48326  15.384  10.553   1.861  0.0597 -0.1500  0.1676
32253W        W48327   6.562   3.129   1.243  0.1603 -0.2237 -0.0554
32254W        W48328  10.438   4.779   2.685  0.0375  0.0774 -0.1169
32255W        W48329  10.790  18.223  11.544 -0.3977  0.2952 -0.2812
32256W        W48330   8.445  15.669  15.297 -0.0480 -0.1338  0.1793
32257W        W48331   3.620   3.777   2.507  0.0368 -0.1298  0.0575
32258W        W48332  13.181   1.493   0.734 -0.0990  0.2324  0.1391
32259W        W48333   3.261  10.063   2.517 -0.1090  0.2164 -0.0991
32260W        W48334   7.866   1.210  14.608  0.0343 -0.0902  0.0998
32261W        W48335   2.882  11.401  11.938 -0.2813 -0.0777 -0.0927
32262W        W48336  16.376   6.756  15.949 -0.2603  0.2298 -0.1404
32263W        W48337   0.457   4.597  15.871  0.0889  0.0511  0.1596
32264W        W48338   1.009   9.328  13.794  0.2638 -0.3037 -0.1573
32265W        W48339   4.030   4.664   1.128 -0.1525 -0.1837  0.4180
32266W        W48340   0.165   8.659   0.203  0.0799  0.1910  0.0385
32267W        W48341   0.041  12.770   1.747  0.2507  0.2138 -0.3388
32268W        W48342   6.793  13.320   5.157 -0.3334  0.0067  0.2452
32269W        W48343  13.499  10.297  14.000 -0.0431 -0.0879  0.0840
32270W        W48344   6.322   8.039   4.294  0.0483 -0.1451  0.1093
32271W        W48345   3.120  17.648   5.098 -0.0281 -0.1800 -0.1097
32272W        W48346   3.187  11.541   3.599  0.2284  0.0069  0.1029
32273W        W48347   7.143   9.490   2.061 -0.1343 -0.0889  0.2181
32274W        W48348  16.251   4.706   1.064  0.0531  0.0120 -0.0567
32275W        W48349  14.344  16.339  12.032 -0.2644  0.1673  0.1107
32276W        W48350  12.747  15.096  11.956 -0.0463  0.0581  0.0589
32277W        W48351   7.712   6.018   5.418 -0.1287  0.1507  0.2229
32278W        W48352  13.606  14.907  11.841 -0.0217 -0.0812  0.4019
32279W        W48353   5.852   6.451  14.345 -0.0836 -0.0840 -0.0595
32280W        W48354   4.709  17.045   4.528  0.0235  0.1827 -0.0590
32281W        W48355  14.929   5.226   2.476 -0.0588  0.3407  0.2009
32282W        W48356   9.894  16.342   3.507 -0.2607 -0.1949 -0.0300
32283W        W48357   4.934   4.932   6.100  0.1111 -0.1130 -0.0856
32284W        W48358   1.292   0.440  15.075 -0.1143  0.0521 -0.2196
32285W        W48359   1.939   7.868   2.612 -0.1086 -0.3538 -0.0969
32286W        W48360  16.465   5.545  14.500  0.8005  0.1406 -0.1872
32287W        W48361   2.328   7.354   4.643 -0.0442  0.2735 -0.4153
32288W        W48362  15.463   0.962   0.106 -0.0828  0.3725  0.0128
32289W        W48363   1.239  14.307   1.414 -0.0122  0.2095 -0.1091
32290W        W48364   3.397  12.420   0.677  0.4164  0.1648  0.2579
32291W        W48365   7.657   6.375   0.905 -0.2809 -0.0326  0.0883
32292W        W48366   9.690   7.927   0.357  0.2839  0.1249  0.0701
32293W        W48367   7.495   6.035  12.102 -0.0050  0.0111 -0.1024
32294W        W48368   8.201   5.945   5.474 -0.2785  0.1250  0.1612
32295W        W48369  11.035   5.699  10.653  0.2427 -0.3524 -0.2048
32296W        W48370  14.221   1.541   1.380  0.0547  0.1860 -0.0564
32297W        W48371   4.929  12.030  16.264  0.1884 -0.0596 -0.0661
32298W        W48372  13.330  12.273   3.661  0.3743  0.3090  0.3892
32299W        W48373   5.484   2.909  14.386  0.0965  0.0763  0.0421
32300W        W48374   9.734  14.680  16.411  0.1462 -0.2828  0.1652
32301W        W48375   4.560   6.149   2.457  0.1656 -0.2158 -0.2719
32302W        W48376  11.715   0.483   2.841  0.1648  0.1174  0.0921
32303W        W48377   8.074   3.716  12.413 -0.0249 -0.0466 -0.1555
32304W        W48378   0.055  16.059  12.142 -0.3240 -0.0310 -0.0058
32305W        W48379   9.419   6.672  15.049  0.1464  0.1524  0.3438
32306W        W48380   7.928  16.074   0.396 -0.3674 -0.1011  0.0392
32307W        W48381   9.101  17.649   4.370  0.1625 -0.4018 -0.1436
32308W        W48382   6.035   6.417  11.509  0.1762 -0.1716  0.3190
32309W        W48383   8.872   4.463   4.658 -0.0239 -0.0239 -0.1098
32310W        W48384  14.267  13.580   1.568 -0.3055  0.1679 -0.2426
32311W        W48385   8.462   1.742  15.156 -0.2278 -0.1411  0.1515
32312W        W48386   2.113  17.791   2.686 -0.0482 -0.3838 -0.0978
32313W        W48387   0.276   7.955  12.313 -0.2900  0.1103  0.0082
32314W        W48388   4.232   0.256  13.494 -0.1116  0.0318  0.1151
32315W        W48389   9.389   1.730   2.939 -0.1549 -0.0145  0.1632
32316W        W48390   9.864   0.230  12.140 -0.2280  0.2159 -0.1174
32317W        W48391   1.435   7.850   0.832  0.0588 -0.1224  0.1355
32318W        W48392  11.471   7.170  16.168  0.0692  0.0087 -0.0847
32319W        W48393   5.696   8.281   3.108  0.2146 -0.1028 -0.0772
32320W        W48394  14.084   8.504   0.269  0.0869 -0.1843  0.0763
32321W        W48395   6.348   0.768   0.037  0.2004  0.1898 -0.1113
32322W        W48396  15.056   9.755   4.740  0.1414 -0.2543  0.1429
32323W        W48397  11.797   5.165   3.181  0.1138  0.2613  0.2634
32324W        W48398  14.654   5.052  15.414 -0.0356  0.0733  0.0213
32325W        W48399   7.023   8.854   5.320  0.0128  0.0829 -0.0372
32326W        W48400   1.411   1.966  12.469  0.0377  0.1055 -0.1734
32327W        W48401   0.765   9.993  12.452 -0.0437 -0.1387 -0.0197
32328W        W48402  11.944  13.504   5.732 -0.1838  0.0135 -0.2639
32329W        W48403   6.635  12.187  15.084 -0.0984  0.2532 -0.1547
32330W        W48404   1.779   9.258  12.631 -0.0182 -0.3121 -0.0279
32331W        W48405  14.402  12.535   5.743  0.3475  0.0501 -0.0296
32332W        W48406  12.732   3.011   5.716 -0.0544  0.3058  0.1410
32333W        W48407   7.679  13.632   2.668 -0.0071 -0.1253  0.0235
32334W        W48408   6.612   9.898   0.948 -0.1585  0.1969 -0.2087
32335W        W48409  10.252   6.123  11.984 -0.0599  0.1550 -0.4225
32336W        W48410  11.062  16.634  16.286 -0.2515 -0.0940 -0.0625
32337W        W48411   6.323   6.613  15.945 -0.0809  0.0658  0.1031
32338W        W48412  12.608  14.133  12.027  0.1823 -0.2090  0.0812
32339W        W48413  11.323   7.189   4.769 -0.2602  0.1962  0.1510
32340W        W48414   0.800   3.965  15.203 -0.3216 -0.0543  0.0081
32341W        W48415   6.316   8.082   5.015  0.0955  0.0203 -0.3047
32342W        W48416   0.519  17.534  11.563  0.0095  0.1465 -0.1216
32343W        W48417   2.178   6.343   0.440 -0.0628  0.1361  0.1189
32344W        W48418   9.353   3.057   5.476  0.2992  0.3245 -0.1739
32345W        W48419   0.513   3.251   1.881 -0.1913  0.1440 -0.1815
32346W        W48420  12.502   0.691   0.624 -0.0299 -0.1002  0.1795
32347W        W48421  17.756   3.654   0.339 -0.4241  0.0362 -0.4256
32348W        W48422  14.853   7.350  13.579 -0.3875 -0.1639 -0.0430
32349W        W48423  17.839  16.973   2.642  0.2238 -0.3962 -0.0876
32350W        W48424   1.148   5.870   3.479 -0.0702  0.0546 -0.1245
32351W        W48425   0.096  14.449   2.220  0.1425  0.4141 -0.1551
32352W        W48426   4.490   3.759  11.574  0.1035  0.0331  0.1002
32353W        W48427   8.031   6.721  12.524 -0.0240 -0.1950  0.0797
32354W        W48428  11.713   8.440  11.329 -0.0250  0.4160  0.0027
32355W        W48429   8.246   2.176   4.307  0.1974 -0.1622 -0.0347
32356W        W48430   1.623   2.200   4.381 -0.0192 -0.0451 -0.0027
32357W        W48431   9.649  10.817   6.515  0.1443  0.1293 -0.0231
32358W        W48432   6.582   7.915  13.915  0.1148 -0.2341 -0.0621
32359W        W48433   0.093   0.050  14.413 -0.2435 -0.1485 -0.1543
32360W        W48434   7.897   1.761   4.470 -0.1964 -0.1179 -0.1453
32361W        W48435   0.372   8.362   5.500  0.0168 -0.0311 -0.4013
32362W        W48436  17.200   4.220  14.807  0.1404 -0.1163 -0.1729
32363W        W48437  11.189  14.367  14.806 -0.0518  0.5920  0.0376
32364W        W48438   4.503   5.323   2.362  0.2227  0.4319 -0.0654
32365W        W48439   4.616  10.840  13.403  0.0043  0.0837  0.1494
32366W        W48440   4.371  17.017  11.478  0.0948  0.2067 -0.2572
32367W        W48441   3.036   8.377  12.362 -0.0946  0.0140  0.1907
32368W        W48442   1.974  10.442  16.014  0.2642  0.1794 -0.0613
32369W        W48443  16.807   8.761  15.484  0.3286  0.0671 -0.1270
32370W        W48444   6.416   0.174   2.496  0.0500 -0.1631  0.1275
32371W        W48445   0.198  16.075  13.693  0.0287 -0.0267 -0.0424
32372W        W48446   7.764   1.960   5.235 -0.3804  0.0189  0.2636
32373W        W48447   1.701   3.621  15.859 -0.1427 -0.0182 -0.1244
32374W        W48448   7.319   5.171   5.062 -0.2048 -0.1229 -0.1388
32375W        W48449  16.662   5.738  11.594  0.1468  0.3241  0.2643
32376W        W48450  15.111  10.850   3.951  0.2116 -0.0825  0.1911
32377W        W48451  11.171  15.901   2.708  0.4085 -0.0620 -0.2345
32378W        W48452   2.682  13.418  16.482  0.4054 -0.0972  0.1579
32379W        W48453  13.987   6.713  15.400  0.1279 -0.1624 -0.1639
32380W        W48454  11.462   8.127   0.760 -0.0468 -0.1014 -0.1859
32381W        W48455  11.616   5.842  14.138 -0.0158 -0.0969  0.2543
32382W        W48456   6.946  17.337   5.116 -0.0965  0.0522  0.1555
32383W        W48457  16.556   0.868  11.809 -0.1438 -0.2670  0.0970
32384W        W48458   1.985   2.864  11.534  0.0430  0.0810  0.1838
32385W        W48459   2.161  17.752   5.043 -0.1457 -0.5450 -0.0909
32386W        W48460  14.040   5.974   0.440 -0.4374 -0.0341  0.0762
32387W        W48461  17.984  11.844  13.581 -0.0852  0.0302 -0.0677
32388W        W48462   5.609   8.968   4.633 -0.3581 -0.3007 -0.2420
32389W        W48463   7.078   6.460  16.513 -0.0108  0.1645  0.1391
32390W        W48464   8.383   6.219   2.129 -0.0703 -0.1506 -0.0849
32391ION     NA48465  14.901  17.773  10.736  0.1690 -0.4472  0.0514
32392ION     NA48466  14.759   2.680   5.933 -0.1217 -0.0622  0.1261
32393ION     NA48467   5.489  16.319  10.441 -0.2641  0.1528 -0.1431
32394ION     NA48468  17.729  14.594   9.983 -0.2208 -0.0854  0.2617
32395ION     NA48469  15.700  13.406   5.783  0.1194  0.2073 -0.1747
32396ION     NA48470   9.452   3.125  10.754 -0.1143 -0.1574 -0.1725
32397ION     NA48471   8.613  16.554  10.656 -0.0472 -0.1794 -0.1099
32398ION     NA48472   4.248  10.288   5.844 -0.0627 -0.0695 -0.0128
32399ION     NA48473   2.072  15.327  10.260  0.1741 -0.1462  0.0183
32400ION     NA48474   9.443   1.486   6.091 -0.0582 -0.0765  0.2396
32401ION     NA48475  11.589   1.951  10.546 -0.0953 -0.0862 -0.2660
32402ION     NA48476  15.819   4.461   6.223 -0.1187  0.2405 -0.4213
32403ION     NA48477  15.663  12.515  11.656 -0.4039 -0.1837  0.0097
32404ION     NA48478  14.828  16.190  10.583  0.1133  0.1785  0.1977
32405ION     NA48479  12.348   6.791  10.690 -0.2223 -0.1179 -0.0932
32406ION     NA48480   6.959  10.757  10.886  0.0303 -0.5473 -0.0348
32407ION     NA48481  14.084  15.948  10.781 -0.1669  0.0045  0.1198
32408ION     NA48482   4.500   9.500   1.334  0.1491 -0.3529  0.0021
32409ION     NA48483  14.670   5.884  10.832 -0.0337 -0.0383 -0.2330
32410ION     NA48484   3.031   9.329  10.828  0.0747 -0.0436  0.2293
32411ION     NA48485   4.491   9.416  10.441  0.5252  0.0866 -0.0522
32412ION     NA48486  13.491  13.328   3.091  0.0980  0.1049 -0.2129
32413ION     NA48487   2.250   8.645  10.350  0.2448  0.1536  0.1639
32414ION     NA48488   0.582  10.716  10.253 -0.2115  0.0368  0.0277
32415ION     NA48489   6.980   2.023   2.427 -0.2257 -0.1593  0.1095
32416ION     NA48490   3.962   5.110   5.677  0.0267  0.2584 -0.0335
32417ION     NA48491  11.570  14.769   1.782 -0.0340  0.1130 -0.0283
32418ION     NA48492   7.835   0.048  10.630 -0.1199  0.0003 -0.0998
32419ION     NA48493   1.252  11.023  10.962  0.0188  0.0807  0.2778
32420ION     NA48494   4.091   5.913  10.310  0.1455 -0.0583  0.0912
32421ION     NA48495   8.857  12.130  14.044  0.0746  0.1167 -0.3436
32422ION     NA48496  16.494  16.001   5.543  0.1548 -0.0632 -0.1416
32423ION     NA48497  14.998   8.755  11.282  0.0227 -0.1393  0.5730
32424ION     NA48498  14.218   9.219  11.267  0.0391  0.0014  0.1163
32425ION     NA48499   3.964  12.939  10.601 -0.1976 -0.1924  0.0705
32426ION     NA48500   0.334  12.907   1.266  0.0678  0.0117 -0.1164
32427ION     NA48501  10.554   8.937  14.587 -0.1693  0.0426 -0.1176
32428ION     NA48502  14.217   6.640  10.523 -0.0060 -0.0064  0.0075
32429ION     NA48503   4.745   3.102   5.879  0.0658  0.3498  0.4044
32430ION     NA48504  17.526   9.222  10.629 -0.1807 -0.0090 -0.1870
32431ION     NA48505   7.500  14.344  10.715  0.0286  0.3735 -0.3480
32432ION     NA48506   6.161   8.483  10.696  0.2434 -0.2363 -0.0646
32433ION     NA48507   3.400  13.856   6.371 -0.0102 -0.1644 -0.1100
32434ION     NA48508   3.897   9.343  16.375  0.2309  0.3691  0.2795
32435ION     NA48509   3.111   0.588   2.081 -0.3159  0.1666  0.0706
32436ION     NA48510   6.544  14.414  10.478 -0.0422  0.0865  0.3376
32437ION     NA48511   6.587   2.040  13.147 -0.0837 -0.1716 -0.0889
32438ION     NA48512   2.533   7.423   5.766 -0.0479 -0.1761  0.2156
32439ION     NA48513  12.572   5.856  10.963 -0.1753 -0.0135  0.0034
32440ION     NA48514  10.492  11.047   4.238  0.0089 -0.3120 -0.2615
32441ION     NA48515  14.876   9.370   6.141 -0.0998  0.0004 -0.1088
32442ION     NA48516   3.709  15.606  16.262  0.0184  0.0688 -0.2389
32443ION     NA48517  10.064   7.564  10.653 -0.1787 -0.3053  0.0794
32444ION     NA48518   5.952   9.352  10.559  0.0636  0.1519  0.2722
32445ION     NA48519   6.984   4.563   6.007 -0.1694 -0.0325 -0.3718
32446ION     NA48520  13.663  15.679  10.905  0.3438  0.0645 -0.3259
32447ION     NA48521   0.883  16.040  10.119  0.1978  0.0630 -0.1241
32448ION     NA48522  12.385  18.069   6.114 -0.0376 -0.2670 -0.0313
32449ION     NA48523   1.683  13.611  14.439  0.0058 -0.1899  0.2181
32450ION     NA48524  10.078   6.362  10.865  0.2738  0.0524 -0.1551
32451ION     NA48525   0.709  17.121   1.821  0.1591  0.2394 -0.0283
32452ION     NA48526   0.408   2.004   5.123 -0.2624 -0.4400  0.0645
32453ION     NA48527   1.341  10.627   1.828 -0.2631 -0.0004  0.1856
32454ION     NA48528   8.615   1.889  10.811 -0.1553  0.2451  0.0071
32455ION     NA48529   5.828  17.391  11.383 -0.1931 -0.1376  0.0238
32456ION     NA48530   5.954   5.315  10.779  0.3202  0.0669 -0.1772
32457ION     NA48531  10.444   8.855  10.812 -0.1812  0.0043 -0.0839
32458ION     NA48532   1.667  16.262  10.295 -0.1031 -0.0527  0.0869
32459ION     NA48533  15.251   9.270  10.789 -0.0970 -0.0322 -0.0518
32460ION     NA48534   5.360  12.192  10.906  0.2821 -0.4184  0.0561
32461ION     NA48535   6.282   4.209   3.006  0.2469 -0.4912 -0.2754
32462ION     NA48536   5.301   8.923  10.818  0.3036  0.0738  0.1882
32463ION     NA48537   9.605   8.511  10.908 -0.0256 -0.2087  0.2697
32464ION     NA48538   0.768  14.973  10.203 -0.2492  0.1129 -0.1361
32465ION     NA48539   1.686   3.021  16.318  0.0987 -0.2637 -0.0921
32466ION     NA48540  16.710   5.792  11.119  0.0339  0.0627 -0.1851
32467ION     NA48541  16.144  16.541   2.325  0.2848  0.1089  0.0447
32468ION     NA48542   3.619  13.732  10.547 -0.0073 -0.0210  0.0898
32469ION     NA48543  12.770  17.584   0.308  0.1411 -0.2574  0.0961
32470ION     NA48544  11.432   1.060  10.691 -0.0114 -0.1143 -0.0712
32471ION     NA48545   3.144   3.464  11.309 -0.2533  0.0517 -0.0055
32472ION     NA48546   1.229  15.105  10.036  0.2030 -0.2277  0.0430
32473ION     NA48547   8.449   1.976   1.905  0.1679  0.0840  0.0323
32474ION     NA48548   4.105  13.305   6.055 -0.0957  0.0110  0.0237
32475ION     NA48549   7.900   9.332  10.714 -0.2847  0.1246 -0.2105
32476ION     NA48550  16.819  17.615  10.214 -0.0888 -0.2918  0.0944
32477ION     NA48551  10.419  11.891  15.360 -0.0345 -0.0196  0.0654
32478ION     NA48552  11.875  16.100  10.908 -0.1682  0.1217  0.1478
32479ION     NA48553   1.854  14.582  10.217  0.2684 -0.1480  0.2631
32480ION     NA48554   9.793  10.266  10.888  0.0468 -0.1868 -0.0289
32481ION     NA48555  15.429   7.989  10.748  0.0446  0.4222 -0.2731
32482ION     NA48556  12.928  16.402   3.338 -0.0393  0.1486  0.0112
32483ION     NA48557   2.126   6.965  12.954  0.3289 -0.0901 -0.0385
32484ION     NA48558   3.619  12.180  10.524 -0.3635 -0.0073  0.0368
32485ION     NA48559   8.674   4.255   3.246 -0.0018 -0.0740  0.3378
32486ION     NA48560   7.543   9.900  13.809 -0.0098 -0.0349  0.0300
32487ION     NA48561  14.008   1.825   5.990 -0.2147 -0.0070  0.0891
32488ION     NA48562  18.018  10.728  12.450  0.0796 -0.2220  0.0325
32489ION     NA48563   7.208  11.418  11.418 -0.0793 -0.1080 -0.0493
32490ION     NA48564  17.024  15.954  10.077 -0.2356  0.1891  0.1382
32491ION     NA48565   1.417   4.410  10.195 -0.0722  0.1642  0.0993
32492ION     NA48566  16.343  11.661  10.505  0.3086  0.2920  0.1081
32493ION     NA48567   6.183   2.093  10.551 -0.1140 -0.2801  0.1225
32494ION     NA48568  11.433   7.164  15.211  0.1887 -0.2016 -0.0480
32495ION     NA48569   7.790   0.181   6.154 -0.1261 -0.2552  0.0285
32496ION     NA48570   5.872   1.280  10.445 -0.1415 -0.0527  0.0110
32497ION     NA48571   7.801  16.603  10.636 -0.1687 -0.0893  0.2869
32498ION     NA48572   8.915  14.434  10.619  0.1014  0.2849  0.0195
32499ION     NA48573   3.887  10.523  11.264 -0.0240 -0.0123 -0.3130
32500ION     NA48574  14.379  13.201  10.699  0.0211 -0.2632 -0.3496
32501ION     NA48575   2.927   7.911  10.294  0.2590 -0.1741  0.1160
32502ION     NA48576  16.118   2.125  10.202 -0.1102  0.0278 -0.0159
32503ION     NA48577  10.424   9.697   2.614 -0.1251  0.2051 -0.1908
32504ION     NA48578  13.946   1.645  10.504 -0.0774 -0.0564 -0.2873
32505ION     NA48579  14.951   8.566   5.695  0.1174  0.0539 -0.3131
32506ION     NA48580  10.484  17.396   4.625  0.0978  0.0171 -0.1398
32507ION     NA48581  11.951   4.243  10.820 -0.1567 -0.0023 -0.0855
32508ION     NA48582   4.244   4.874  10.553 -0.0521  0.0710 -0.1436
32509ION     NA48583   5.633  10.605  11.525  0.3846 -0.1166  0.2887
32510ION     NA48584   6.054   5.511  13.516  0.0657 -0.0167 -0.0512
32511ION     NA48585   8.291  13.671   6.157  0.2202 -0.1882 -0.0337
32512ION     NA48586  17.548   3.265  13.939 -0.0125  0.0695 -0.1383
32513ION     NA48587   9.715   3.832   4.180 -0.0989 -0.1370  0.1266
32514ION     NA48588   6.308  16.174  10.598 -0.0291 -0.0084 -0.0690
32515ION     NA48589  14.742  10.390   2.658  0.0068  0.1185  0.3685
32516ION     NA48590  12.599   4.486  15.144 -0.0928 -0.4367  0.3599
32517ION     NA48591   6.192  13.621  10.598 -0.2350 -0.2246  0.0539
32518ION     NA48592   0.149  13.275  16.244 -0.1272  0.0115 -0.0909
32519ION     NA48593  16.731   1.573  14.484 -0.1388  0.0293  0.0818
32520ION     NA48594   4.391   6.345  10.576  0.3607  0.0223  0.0505
32521ION     NA48595  10.475  11.293  10.982 -0.3593 -0.0349  0.0890
32522ION     NA48596   6.347  16.315  15.882 -0.0277 -0.1703 -0.2515
32523ION     NA48597   4.332   0.422  10.330 -0.0191  0.0046  0.2128
32524ION     NA48598  13.660  11.041  12.756  0.2786  0.1583  0.1099
32525ION     NA48599  13.100   7.917  10.643  0.0700  0.0567 -0.0584
32526ION     NA48600   4.656  15.943  10.432  0.0989  0.1317 -0.1697
32527ION     NA48601   6.703   1.368  10.435 -0.0714  0.0223  0.0121
32528ION     NA48602   4.233  14.567  16.090  0.1206  0.0990 -0.1112
32529ION     NA48603   0.483   5.493  10.041  0.0748  0.0619  0.2851
32530ION     NA48604   1.303   9.804  10.737  0.4102  0.0749  0.0289
32531ION     NA48605  18.138  13.724  10.091 -0.2805 -0.1043 -0.2555
32532ION     NA48606  10.899   1.665  10.537  0.1527  0.3035  0.0108
32533ION     NA48607   6.845  15.359  10.542  0.0720  0.0444  0.2665
32534ION     NA48608   8.682  12.998   0.690 -0.1442 -0.4198  0.2145
32535ION     NA48609   2.223   4.090  10.525  0.0268 -0.0903  0.2570
32536ION     NA48610   5.304   4.035   6.053  0.1536 -0.4051  0.0904
32537ION     NA48611   3.121  17.619  15.988  0.1905 -0.1197 -0.0268
32538ION     NA48612  16.609  13.437  10.303  0.0806 -0.2549 -0.4634
32539ION     NA48613  16.270   3.104  10.034  0.1926  0.2488  0.2996
32540ION     NA48614   0.252   8.267   1.140  0.1152 -0.0301  0.0524
32541ION     NA48615  16.204   4.793  10.550 -0.3011 -0.0085 -0.1415
32542ION     NA48616  10.398  16.195  10.753 -0.1511  0.0898  0.4703
32543ION     NA48617   7.812   3.547  10.661 -0.2539 -0.0762 -0.0566
32544ION     NA48618  11.146  15.626  10.764  0.0023 -0.3186 -0.1485
32545ION     NA48619  17.410   3.657   9.774 -0.3067 -0.2837  0.1256
32546ION     NA48620  11.613   1.560   6.271 -0.4045  0.3153 -0.1736
32547ION     NA48621   4.824  12.692  10.530  0.0179  0.2151  0.2992
32548ION     NA48622  16.163   5.913  13.764 -0.1357  0.1372  0.2459
32549ION     NA48623   3.609   6.909  10.500 -0.2284  0.1230 -0.1352
32550ION     NA48624   7.097  11.373  10.940  0.1488 -0.2863  0.0713
32551ION     NA48625   2.322   4.429   4.273  0.0063  0.1378 -0.1109
32552ION     NA48626   6.576   1.860  15.619  0.0679 -0.1884  0.1022
32553ION     NA48627  15.214  16.458   5.761  0.0786  0.1795 -0.0088
32554ION     NA48628   5.899   0.437  10.539  0.1588  0.1084 -0.3196
32555ION     NA48629   2.418  16.087  10.122 -0.0062  0.2575  0.1862
32556ION     NA48630   2.900  11.045  12.382 -0.5430  0.4158  0.0457
32557ION     NA48631   9.007  12.039  10.806  0.2717 -0.1088 -0.3784
32558ION     NA48632  13.219  16.140  13.425  0.0149 -0.1488  0.3912
32559ION     NA48633   0.570  14.432  11.686  0.0157 -0.0717  0.0151
32560ION     NA48634   9.514  11.098   0.566  0.1382  0.0887 -0.1498
32561ION     NA48635  15.406  12.353  10.711  0.5176 -0.1481 -0.0220
32562ION     NA48636   1.271   1.228  10.137 -0.0265  0.0565 -0.1357
32563ION     NA48637   6.983   3.686  10.783 -0.4919  0.0529 -0.3052
32564ION     NA48638   7.870   8.226   6.477  0.2602  0.1564  0.1008
32565ION     NA48639   2.729  13.231  10.341  0.1737 -0.1936 -0.3289
32566ION     NA48640   3.004   3.689  13.221  0.2317 -0.1329  0.1863
32567ION     NA48641   3.842  13.947   0.721 -0.0070  0.1491  0.1344
32568ION     NA48642   6.536   4.516  10.882  0.0807  0.0472  0.3950
32569ION     NA48643   4.138  17.286   2.285  0.0048 -0.2971 -0.1098
32570ION     NA48644   7.490  13.015   6.145  0.1182 -0.0292  0.1116
32571ION     NA48645  13.606   3.820  11.292 -0.1767  0.1715 -0.0681
32572ION     NA48646  13.434  16.279   0.622 -0.0234 -0.0642 -0.1598
32573ION     NA48647   9.518  11.508   5.948 -0.0383 -0.2290 -0.1954
32574ION     NA48648  13.782  11.901  12.546 -0.1166 -0.0240 -0.0952
32575ION     NA48649  12.157   0.195  10.515 -0.2741  0.1000  0.0293
32576ION     NA48650  10.259  10.159   6.298 -0.3194 -0.4527  0.2794
32577ION     NA48651   9.854  12.657  10.984 -0.0591  0.2039 -0.0060
32578ION     NA48652  11.184  18.125  14.305  0.4332  0.0717  0.0294
32579ION     NA48653   5.381   8.254  11.262 -0.0698 -0.2892  0.0651
32580ION     NA48654   7.253  14.802  10.686  0.0570  0.2169 -0.0461
32581ION     NA48655  17.267  14.255  15.766 -0.0437 -0.0962 -0.2784
32582ION     NA48656   8.637  10.971   0.001  0.0766 -0.2814 -0.1849
32583ION     NA48657  15.981  14.957  10.345  0.0429  0.0186 -0.2445
32584ION     NA48658   1.157   3.030   3.069  0.2801  0.1232 -0.0622
32585ION     NA48659  17.512   7.361  10.287 -0.1781  0.1551  0.0672
32586ION     NA48660   7.579   4.425  10.955 -0.2942  0.0064 -0.0227
32587ION     NA48661  12.091   2.308   6.039 -0.0513  0.4340 -0.0613
32588ION     NA48662  15.705  13.364  10.495  0.1551  0.2986  0.0933
32589ION     NA48663   2.513   2.262   0.500 -0.0987  0.0119 -0.1509
32590ION     NA48664  13.532   7.131  10.669 -0.0642 -0.0978 -0.0961
32591ION     NA48665  17.038   0.436   9.937 -0.1113  0.0476 -0.1768
32592ION     NA48666  18.039   2.463  16.425  0.4403  0.0898 -0.0729
32593ION     NA48667  18.070  16.772  15.468 -0.1512  0.2483  0.1809
32594ION     NA48668  18.155   0.151   5.542 -0.2977  0.2777 -0.1336
32595ION     NA48669  15.503   0.049  10.649 -0.1445 -0.1724 -0.0361
32596ION     NA48670   1.985   1.843  10.157 -0.1883 -0.2954 -0.0210
32597ION     NA48671   5.671   3.318   2.805  0.0463  0.1953  0.0533
32598ION     NA48672  12.357  13.576  12.902  0.2915 -0.0808  0.1604
32599ION     NA48673  14.677   7.419  10.709 -0.2331 -0.2522  0.1869
32600ION     NA48674   1.888  17.091  12.759  0.1099 -0.0969  0.1544
32601ION     NA48675   8.021  12.762  10.825  0.2117  0.1161  0.2940
32602ION     NA48676  16.761   7.597  10.445 -0.1941 -0.1408  0.3403
32603ION     NA48677   0.982  11.424  14.251  0.1228  0.0476 -0.0471
32604ION     NA48678   1.951  10.492  10.663  0.1228 -0.1886  0.2008
32605ION     NA48679   9.031   7.589  10.619 -0.0026  0.1073 -0.0536
32606ION     NA48680  14.193  12.554  13.243 -0.2433  0.0474 -0.2850
32607ION     NA48681  15.117  10.266  10.756  0.0244 -0.1899  0.4495
32608ION     NA48682   4.512  13.654  10.483  0.2513 -0.0089  0.0212
32609ION     NA48683  16.788  13.930   4.300 -0.3279  0.2224  0.2475
32610ION     NA48684   2.497  13.338   0.979  0.0951  0.0141  0.4175
32611ION     NA48685   0.289   7.838   5.727  0.0880  0.2160 -0.0830
32612ION     NA48686  10.526  16.780  10.902 -0.0626 -0.0680 -0.0394
32613ION     NA48687  14.255   4.942  10.863 -0.1310 -0.0729  0.0204
32614ION     NA48688  11.238  14.429  10.892 -0.0377  0.0638  0.1051
32615ION     NA48689   2.291   9.527  14.314 -0.1210  0.0324  0.2169
32616ION     NA48690   1.699   3.215   5.858  0.1591  0.3351 -0.0792
32617ION     NA48691   9.099  14.689   5.475 -0.1772  0.1653  0.0590
32618ION     NA48692   2.388  11.881   5.921  0.0083 -0.0138 -0.1582
32619ION     NA48693   3.184  16.658  10.194  0.0276 -0.2990 -0.0499
32620ION     NA48694  15.578   6.365  10.565 -0.2284  0.0896  0.1046
32621ION     NA48695   3.850   3.951  10.843 -0.3705 -0.1893 -0.1329
32622ION     NA48696  13.543   2.112   6.056 -0.1333  0.2271  0.2123
32623ION     NA48697   0.601   6.883  10.685 -0.1050 -0.3362 -0.2357
32624ION     NA48698   0.022  10.243  10.377  0.3240  0.0512 -0.4873
32625ION     NA48699   0.060   7.705  10.454  0.0209  0.1063  0.3601
32626ION     NA48700   4.399   2.264  10.775 -0.1158  0.0196 -0.1313
32627ION     NA48701  15.133   0.329  15.041  0.1175 -0.0206  0.0118
32628ION     NA48702   6.421  12.943  10.724 -0.1984  0.1645  0.1700
32629ION     NA48703   7.287   0.618  10.607 -0.1235  0.0627  0.3362
32630ION     NA48704   8.318   2.157  14.790 -0.1297 -0.0890 -0.0243
32631ION     NA48705  11.773  11.561  11.079 -0.0096  0.2936  0.1205
32632ION     NA48706  14.684  15.175  10.753  0.1366  0.0310 -0.4274
32633ION     NA48707  12.824  14.780   4.171  0.1146  0.0920 -0.1062
32634ION     NA48708  14.788   8.609  10.828  0.0662 -0.1609 -0.2041
32635ION     NA48709   3.901  11.485   5.973  0.0569  0.0525 -0.1770
32636ION     NA48710  15.896   4.606  15.254 -0.0040  0.1047 -0.0613
32637ION     NA48711  10.831   6.626  10.877 -0.1894  0.0664  0.5076
32638ION     NA48712  14.138   4.770  12.189 -0.3052 -0.0011 -0.0822
32639ION     NA48713  12.248   3.690  10.768 -0.1122  0.0815  0.2234
32640ION     NA48714   0.430  12.566  10.294 -0.1648 -0.2744  0.1674
32641ION     NA48715   6.547   9.417  10.530  0.1335  0.0960  0.0019
32642ION     NA48716  12.558   8.635  10.638 -0.1710  0.2664 -0.1462
32643ION     NA48717   2.793  15.680   2.799 -0.4189 -0.3974  0.3031
32644ION     NA48718   0.961   7.766   5.786 -0.0598  0.3044  0.1454
32645ION     NA48719   9.339   9.392  10.764 -0.1062  0.0968  0.0658
32646ION     NA48720  10.650   3.428   1.093 -0.0274 -0.0836  0.2070
32647ION     NA48721   6.183   4.614   0.263 -0.2039 -0.0249  0.2204
32648ION     NA48722   7.098   9.118   3.380 -0.0017 -0.0553 -0.2567
32649ION     NA48723  17.844   0.537  10.037  0.3218 -0.2831  0.0996
32650ION     NA48724   7.041   3.779   0.388  0.0262  0.1687 -0.1210
32651ION     NA48725   6.228   9.302   2.299  0.0129 -0.0841  0.2560
32652ION     NA48726  10.174   1.956  10.728  0.0321  0.2021  0.2147
32653ION     NA48727   5.410   3.526   5.319  0.0390 -0.0513  0.1177
32654ION     NA48728   0.164   7.070  10.319 -0.1338 -0.0383 -0.0967
32655ION     NA48729  16.324   0.267  10.275 -0.5365  0.2604 -0.1274
32656ION     NA48730  13.244   3.064   5.863  0.1566  0.1246 -0.1107
32657ION     NA48731   7.860  13.510  10.700  0.0069 -0.0915  0.0158
32658ION     NA48732   1.677   3.033  11.968 -0.1931 -0.4792 -0.1209
32659ION     NA48733  16.442  12.571  12.223 -0.0428  0.0815 -0.2582
32660ION     NA48734  16.055   0.022   5.053  0.0320 -0.1975 -0.2999
32661ION     NA48735  16.639  13.500  16.143 -0.0742  0.0790  0.1297
32662ION     NA48736  10.345  14.145  10.765 -0.0567 -0.0359  0.1493
32663ION     NA48737  14.106  10.900  13.826  0.0744 -0.1900  0.2144
32664ION     NA48738  13.234  10.364  10.604  0.0476  0.3629 -0.0747
32665ION     NA48739   8.187  14.934  10.518 -0.0530  0.1149 -0.1488
32666ION     NA48740  14.718  17.214   2.508  0.0979 -0.0370 -0.1861
32667ION     NA48741  17.817  10.860  10.329  0.1156  0.1566  0.1236
32668ION     NA48742   5.229  13.720  12.078  0.1440  0.3070  0.0738
32669ION     NA48743   7.235  16.410  10.556 -0.1782  0.1294 -0.0662
32670ION     NA48744   3.273   8.669   5.617  0.3268  0.2731 -0.3138
32671ION     NA48745  17.662  15.274   5.312  0.0822  0.0244  0.0610
32672ION     NA48746   3.145   4.159   5.964  0.1536  0.1883 -0.1568
32673ION     NA48747  17.536   8.261  10.523  0.4269 -0.0399 -0.0886
32674ION     NA48748  10.153   3.881   6.067 -0.1858  0.0159 -0.3895
32675ION     NA48749  13.408   9.491  10.655 -0.1293 -0.0601 -0.0126
32676ION     NA48750  13.007   2.848  10.709  0.1775 -0.2269 -0.0468
32677ION     NA48751  12.341   1.373   5.916  0.2850  0.2143 -0.2545
32678ION     NA48752   8.480   2.568  10.964  0.1485 -0.1054 -0.0634
32679ION     NA48753  13.700  15.673  16.104  0.1177  0.0364  0.2754
32680ION     NA48754  10.898  13.348  10.845  0.1928  0.2457 -0.0765
32681ION     NA48755   1.256   4.142  15.383 -0.1978 -0.0766 -0.3724
32682ION     NA48756  11.303  14.538  11.868  0.0916 -0.2633  0.5117
32683ION     NA48757   7.318  10.238   3.773  0.2312 -0.1247  0.1562
32684ION     NA48758  17.782   2.602   9.863 -0.0378  0.4850 -0.1039
32685ION     NA48759  13.275   2.032  10.776  0.2160  0.0077 -0.0944
32686ION     NA48760  11.272  16.063  11.698  0.0801 -0.3448  0.3711
32687ION     NA48761   9.795  18.030   5.281 -0.0238  0.0700  0.0902
32688ION     NA48762   5.101   7.933  10.531 -0.2653 -0.1812 -0.0930
32689ION     NA48763  15.947   2.267  11.951 -0.0468  0.2394 -0.0340
32690ION     NA48764  13.956  17.436   3.992  0.0546  0.1504  0.0818
32691ION     NA48765   0.676  11.640  10.189  0.1543 -0.0279  0.0226
32692ION     NA48766  13.020  10.947   6.502 -0.0091  0.0026 -0.2276
32693ION     NA48767   7.818  15.301  10.673  0.0488 -0.0781 -0.2483
32694ION     NA48768  10.620  15.017  10.636  0.2029 -0.2041  0.1408
32695ION     NA48769   0.373   5.018   0.197 -0.1436  0.1314  0.0355
32696ION     NA48770   1.096   2.221  13.040  0.1352 -0.0375  0.0544
32697ION     NA48771  11.593   5.719  10.811  0.0289  0.0332 -0.0494
32698ION     NA48772  12.725   7.380   6.026  0.0720 -0.0334 -0.0056
32699ION     NA48773   7.528   1.750  12.513 -0.1527  0.0217 -0.1359
32700ION     NA48774   5.494   3.270   6.090 -0.0917  0.1272  0.0287
32701ION     NA48775   5.865  10.583   6.184 -0.1452  0.0559  0.1512
32702ION     NA48776   2.003   0.037  10.119 -0.1782 -0.0008 -0.0036
32703ION     NA48777  12.657  13.633  10.957  0.1759 -0.1583  0.2122
32704ION     NA48778  13.600  14.693  10.833 -0.0278  0.1925 -0.2887
32705ION     NA48779   6.182  13.221  13.050  0.0947 -0.0746  0.0305
32706ION     NA48780  12.379   0.248  15.869  0.0738  0.1794 -0.0427
32707ION     NA48781   8.788   7.966   6.142  0.3223  0.0003  0.2435
32708ION     NA48782   5.291   9.963   6.091 -0.3931  0.2124  0.0304
32709ION     NA48783  10.281   3.936  10.877  0.1371 -0.0732  0.1349
32710ION     NA48784  12.908   0.361  10.675 -0.1535  0.0279  0.0482
32711ION     NA48785  11.040  17.569  10.555 -0.0059  0.0076  0.1028
32712ION     NA48786  16.523  10.154  11.452 -0.0759 -0.2916  0.2356
32713ION     NA48787  14.245  14.091  10.707 -0.3734  0.0430 -0.2849
32714ION     NA48788   1.161   3.111  10.249 -0.1812  0.1145  0.0526
32715ION     NA48789  10.431   7.754  11.589  0.0229 -0.1069 -0.0875
32716ION     NA48790  13.090   8.853  15.750  0.1394  0.1197  0.0951
32717ION     NA48791  16.791   5.137  10.208  0.0491 -0.0761  0.0650
32718ION     NA48792   0.270  13.410   5.978 -0.1432  0.1432 -0.0219
32719ION     NA48793  13.860  17.673  16.059 -0.1069 -0.0950 -0.0175
32720ION     NA48794  13.921   4.220   6.187  0.0200 -0.3022  0.1446
32721ION     NA48795  13.354   6.219  10.783 -0.2557 -0.3079  0.1444
32722ION     NA48796  13.528  10.573  16.201 -0.0863  0.1795 -0.2496
32723ION     NA48797   5.174  14.773   5.006  0.1539  0.0278  0.0143
32724ION     NA48798   4.961   8.234   5.808  0.2189  0.2374  0.2894
32725ION     NA48799  17.268   0.938  11.342  0.0478  0.0164 -0.0614
32726ION     NA48800   7.010  13.789  10.627 -0.1618 -0.3367  0.1338
32727ION     NA48801  11.732   4.524  16.463  0.1804 -0.1513  0.4353
32728ION     NA48802   5.514  17.311  16.384 -0.0065 -0.1170 -0.3040
32729ION     NA48803  14.628  15.098   1.712  0.0262  0.1598 -0.1109
32730ION     NA48804  13.442   4.795  10.786  0.4437 -0.3191  0.0852
32731ION     NA48805  12.406  17.166  14.819  0.0403 -0.2183 -0.1787
32732ION     NA48806  10.060  16.685   0.490 -0.1699 -0.3793  0.0815
32733ION     NA48807   1.543   8.970  10.311  0.1723 -0.0412  0.3185
32734ION     NA48808   9.547  16.412  10.591  0.2788 -0.0087  0.0509
32735ION     NA48809   5.312  13.176  10.517 -0.3194 -0.2241 -0.0237
32736ION     NA48810  17.038  11.776   1.410 -0.2428 -0.0032  0.1131
32737ION     NA48811  13.109   1.431   4.523 -0.1916  0.1721  0.1151
32738ION     NA48812  13.482   6.168   5.231  0.1332 -0.1281  0.2269
32739ION     NA48813  17.400  13.942  14.787 -0.0385 -0.1922 -0.0267
32740ION     NA48814  11.379   1.745  12.198  0.0146 -0.1234 -0.3466
32741ION     NA48815   0.020  10.576   5.575 -0.1348  0.1173 -0.0638
32742ION     NA48816   4.421   3.239  10.826 -0.5346  0.2044  0.0918
32743ION     NA48817  10.199   2.882   2.252  0.1661  0.2421 -0.1200
32744ION     NA48818   5.146   0.873  10.366 -0.0821  0.0016 -0.2794
32745ION     NA48819   6.302   5.907  10.866 -0.1935 -0.0685 -0.0846
32746ION     NA48820  16.579   1.610  10.451  0.1064  0.2218  0.2229
32747ION     NA48821  16.637  16.720  10.248 -0.0089 -0.1629 -0.0615
32748ION     NA48822  17.603   9.905   6.035  0.0372  0.0772 -0.0608
32749ION     NA48823   6.507   1.606   4.397 -0.1302 -0.3270 -0.0691
32750ION     NA48824   6.336  17.993   5.758  0.1115  0.1130 -0.0387
32751ION     NA48825   4.349   1.278  15.628 -0.1750 -0.0020 -0.0389
32752ION     NA48826   7.916   2.606  10.892 -0.0407  0.1048  0.3691
32753ION     NA48827  17.240   6.542  10.227 -0.2827  0.1009 -0.1232
32754ION     NA48828   5.235  14.131  10.749  0.1362  0.1258  0.1336
32755ION     NA48829   0.856   9.733   2.180 -0.0959 -0.1397 -0.1093
32756ION     NA48830   6.504  15.055  11.848 -0.1665 -0.0892  0.4223
32757ION     NA48831  13.058  15.310  10.697  0.4557 -0.1095  0.0919
32758ION     NA48832   7.717  17.732  11.478  0.3010 -0.2098  0.0578
32759ION     NA48833   6.380   2.981  10.685  0.1595  0.1273 -0.1393
32760ION     NA48834  17.194  10.276  10.529  0.2537  0.3473  0.2108
32761ION     NA48835  16.940   2.486   9.991 -0.1174 -0.2701  0.1334
32762ION     NA48836   2.469  10.787   3.067  0.1048 -0.2383 -0.2748
32763ION     NA48837   0.179   3.455  12.135  0.1346  0.1971 -0.0015
32764ION     NA48838   0.519   3.631  10.014  0.1503 -0.2430 -0.0623
32765ION     NA48839   0.002   3.371  10.239 -0.1214 -0.1314 -0.1753
32766ION     NA48840   8.603  13.634  10.682  0.0639  0.0793 -0.0672
32767ION     NA48841  16.934  14.149  10.192  0.0284 -0.2569 -0.0655
32768ION     NA48842  11.006   9.662  10.889 -0.0021  0.1305  0.4116
32769ION     NA48843   8.114  10.841   1.464 -0.2771 -0.2820  0.2705
32770ION     NA48844   1.017  15.601  11.044 -0.1684 -0.0466 -0.1588
32771ION     NA48845  15.115   6.137  10.759 -0.1454  0.2313  0.0847
32772ION     NA48846  14.529  16.882  10.719  0.0349 -0.0017  0.0070
32773ION     NA48847   5.128   7.119   5.387 -0.4233  0.0423 -0.0505
32774ION     NA48848  12.612   6.309  14.686 -0.1773 -0.2913  0.0608
32775ION     NA48849   4.622  17.695  10.679  0.0944  0.0585  0.2764
32776ION     NA48850   2.271  16.950  10.129 -0.1074 -0.2472  0.2961
32777ION     NA48851  11.394  16.621  10.540  0.0902 -0.0605 -0.1134
32778ION     NA48852  16.099  17.622  10.377  0.0170 -0.1603 -0.0754
32779ION     NA48853  11.777  12.485  11.029  0.0325 -0.1514 -0.0281
32780ION     NA48854   1.090   2.943   0.424  0.0532 -0.3651  0.2133
32781ION     NA48855   2.005  17.347   9.996 -0.1169  0.1337 -0.0365
32782ION     NA48856  14.574   8.193  15.381  0.1995 -0.1227 -0.2772
32783ION     NA48857  14.258  13.043  16.300 -0.0261  0.1005  0.0341
32784ION     NA48858   1.871   7.490  10.524 -0.0384 -0.1251  0.1248
32785ION     NA48859   5.439   3.399  10.720 -0.2379 -0.2650  0.1973
32786ION     NA48860   7.158  13.459   5.482  0.0369  0.2281 -0.0586
32787ION     NA48861   4.928   4.126  14.888  0.0519 -0.3100  0.2931
32788ION     NA48862   2.003  11.285  10.502 -0.2775 -0.0827  0.0438
32789ION     NA48863  16.358   6.677   5.861 -0.2138 -0.2737 -0.1606
32790ION     NA48864  12.846  11.735  14.843  0.1048 -0.2078 -0.0355
32791ION     NA48865  11.016   5.836  11.789 -0.0033 -0.3399  0.1947
32792ION     NA48866  12.242  15.467   4.486  0.1747  0.1743 -0.2014
32793ION     NA48867   6.813  16.945   5.722 -0.1042  0.1873  0.0350
32794ION     NA48868   2.545  10.872   5.867 -0.2827  0.1373  0.2947
32795ION     NA48869  17.259   3.329  15.662  0.0760  0.0658  0.4365
32796ION     NA48870   8.304  17.704   6.037 -0.0063  0.0511 -0.0709
32797ION     NA48871   7.712   6.039  10.856  0.0753  0.0755  0.2965
32798ION     NA48872  15.515   2.101   5.474 -0.2156 -0.1601  0.0908
32799ION     NA48873  10.379   6.404   4.758 -0.3475  0.0055 -0.2115
32800ION     NA48874   9.144   6.636  10.809 -0.3112 -0.1109  0.1860
32801ION     NA48875  12.827  15.006   6.060  0.1892  0.2244 -0.0709
32802ION     NA48876   2.971   2.027   5.893 -0.1743  0.1931  0.0367
32803ION     NA48877   7.220  17.976   5.900 -0.2090 -0.2523 -0.0322
32804ION     NA48878   4.639  12.327   1.869 -0.0908  0.0185  0.1689
32805ION     NA48879  13.592  11.018  10.646 -0.0078 -0.0748 -0.3053
32806ION     NA48880   0.323  15.324  10.050  0.0022 -0.0763 -0.0177
32807ION     NA48881   4.292  12.159  15.049  0.0939  0.0085  0.1150
32808ION     NA48882  13.045  11.879  10.773 -0.0258  0.2043  0.1730
32809ION     NA48883   6.128   1.821   5.952 -0.3313  0.0368  0.4750
32810ION     NA48884   7.166   2.182   5.997 -0.0124 -0.2118 -0.2041
32811ION     NA48885   4.598  12.913   5.560  0.2354  0.2257  0.1347
32812ION     NA48886   7.811  13.819  13.571 -0.1004 -0.0531  0.1597
32813ION     NA48887   2.663   2.433  10.485 -0.1389 -0.2565  0.0823
32814ION     NA48888   5.534   2.258   0.384 -0.0843 -0.2100  0.0114
32815ION     NA48889  14.492  11.340   4.183  0.0295 -0.0521  0.3272
32816ION     NA48890  12.075  15.429   6.103  0.1218 -0.2088 -0.1306
32817ION     NA48891   6.234   9.097  14.766  0.1438 -0.0260 -0.3088
32818ION     NA48892  15.465  16.999   5.242  0.5100 -0.0988 -0.1390
32819ION     NA48893   1.202  12.501  10.257 -0.2087 -0.0363  0.1339
32820ION     NA48894   9.376   2.117  10.922  0.1850 -0.1087  0.1451
32821ION     NA48895   9.672  13.421  10.872 -0.1499 -0.2140  0.1059
32822ION     NA48896  12.743  16.049  11.484  0.2138 -0.1422 -0.1440
32823ION     NA48897  12.101   3.278   1.193 -0.3941 -0.2065  0.2999
32824ION     NA48898  13.071  12.863  10.961  0.0644 -0.0023  0.0883
32825ION     NA48899   4.786   3.954  10.611 -0.2126  0.0831 -0.0208
32826ION     NA48900  16.481  15.930  10.152  0.2865 -0.2451  0.2820
32827ION     NA48901  16.484   1.144  10.320  0.0313  0.1673  0.1801
32828ION     NA48902  15.146   0.853  10.873 -0.3965  0.2101  0.0172
32829ION     NA48903  15.223   1.713  15.283 -0.1099  0.3774  0.0739
32830ION     NA48904  16.855   3.791   5.738  0.0277  0.2202 -0.0544
32831ION     NA48905   7.102  17.376  10.759  0.2061  0.1292 -0.3998
32832ION     NA48906   6.676  15.977   5.072  0.1178 -0.2172  0.0798
32833ION     NA48907   9.646  11.569  11.081 -0.0927 -0.1396  0.0402
32834ION     NA48908  14.206  10.049  10.747 -0.1441  0.2748  0.1663
32835ION     NA48909  16.194  15.427  10.140  0.1611  0.1254 -0.0018
32836ION     NA48910   9.219  17.323  10.792 -0.0979  0.2598  0.0869
32837ION     NA48911   8.667  13.854  14.692 -0.1061 -0.0595 -0.1005
32838ION     NA48912   4.623  14.555  10.440 -0.2060 -0.1791  0.2893
32839ION     NA48913   3.920   4.676   3.969  0.2056 -0.1741 -0.3034
32840ION     NA48914  15.116   5.103  11.789 -0.2426 -0.1692  0.0998
32841ION     NA48915   2.757   7.060  10.405  0.1215 -0.0363  0.0968
32842ION     NA48916  11.880   5.241  12.150 -0.1058  0.0448  0.0622
32843ION     NA48917  18.119  11.527   1.322  0.1236 -0.4687  0.1392
32844ION     NA48918   1.896   9.690   4.481 -0.2004 -0.0994  0.0549
32845ION     NA48919   0.269   2.496   5.460  0.0908 -0.0736 -0.0768
32846ION     NA48920   3.866   5.454   1.714  0.1081 -0.1634 -0.0765
32847ION     NA48921   5.425  17.835  10.312 -0.1963  0.0998 -0.0305
32848ION     NA48922   8.858   7.299  11.517 -0.1210  0.2405  0.2338
32849ION     NA48923   3.650  18.001  10.413  0.2894  0.1953 -0.1118
32850ION     NA48924  11.033  12.054  11.049  0.1321 -0.4905  0.1696
32851ION     NA48925   3.588   2.688  10.736  0.0928  0.4694  0.0111
32852ION     NA48926  15.310   2.416  10.416 -0.1139  0.0357 -0.0111
32853ION     NA48927   8.781   1.075  10.631 -0.0171  0.4705 -0.0045
32854ION     NA48928  11.520   7.146  10.843 -0.0112  0.0221  0.1238
32855ION     NA48929   3.872   1.321  10.359  0.4397 -0.0657 -0.2412
32856ION     NA48930   6.921   8.669  10.934  0.1500  0.1896  0.0736
32857ION     NA48931   6.915   7.769  10.748 -0.1569 -0.1965  0.5069
32858ION     NA48932   6.129   0.105  15.023  0.2710  0.4472  0.3521
32859ION     NA48933   9.070  11.082  10.764 -0.4385  0.1158 -0.0546
32860ION     NA48934   7.709  14.363   5.767 -0.0419  0.2312 -0.1060
32861ION     NA48935   3.148   5.395  10.576 -0.0759 -0.0152  0.0153
32862ION     NA48936   1.905   8.117   5.636  0.0298 -0.0526 -0.1689
32863ION     NA48937   7.534   7.185  11.227  0.0990 -0.0279 -0.1699
32864ION     NA48938   7.606  13.697   3.979  0.2470 -0.1221  0.0252
32865ION     NA48939   1.995   7.143   0.015  0.1128 -0.1193 -0.1344
32866ION     NA48940   4.402  10.330  10.567  0.0867 -0.0537 -0.0546
32867ION     NA48941   3.015  15.709  12.390 -0.3236  0.1596  0.0830
32868ION     NA48942   9.406   1.994   5.858 -0.0679 -0.2504 -0.2647
32869ION     NA48943   5.877   7.535  10.648 -0.0716  0.1666 -0.2327
32870ION     NA48944  16.564   0.913   1.536 -0.0099  0.1526 -0.1608
32871ION     NA48945  13.696  16.984  10.774 -0.2645  0.2500 -0.2971
32872ION     NA48946  13.971  17.852  10.848 -0.2711  0.1148  0.1649
32873ION     NA48947   8.330  12.734  12.157 -0.2534 -0.2612  0.0284
32874ION     NA48948  12.748   7.621  10.961  0.2640 -0.1188  0.1032
32875ION     NA48949   3.387   0.623  10.482 -0.0237 -0.0840 -0.0574
32876ION     NA48950   5.797  11.428  10.888 -0.0287 -0.0973 -0.0747
32877ION     NA48951  15.459   0.633   4.891 -0.1878 -0.2014  0.0074
32878ION     NA48952  14.452   4.339  10.839 -0.0779  0.0703 -0.1390
32879ION     NA48953  16.610   9.346  10.730  0.5710  0.2968  0.1990
32880ION     NA48954  16.808   8.721  10.711 -0.0124  0.2586 -0.0250
32881ION     NA48955  12.048   7.519  16.303 -0.0986 -0.1700 -0.0015
32882ION     NA48956  14.921   2.683  10.390 -0.0224 -0.2301 -0.0427
32883ION     NA48957  14.378  12.207  14.081 -0.3518  0.1204 -0.1736
32884ION     NA48958  13.775   6.540  12.461 -0.2665 -0.0620  0.0884
32885ION     NA48959   0.178  14.433  10.523 -0.1704  0.1790 -0.1701
32886ION     NA48960   5.199   6.947  10.787 -0.0829  0.1630 -0.1222
32887ION     NA48961   9.429   0.818  10.798 -0.0760  0.3852  0.1248
32888ION     NA48962  17.728   6.413  16.355 -0.0122 -0.4350  0.1712
32889ION     NA48963   1.875   8.841   5.587  0.1856 -0.0292  0.0035
32890ION     NA48964  13.571  12.536  10.850 -0.0574 -0.1603 -0.1638
32891ION     NA48965   4.830  16.978  10.424 -0.0881 -0.0335 -0.0794
32892ION     NA48966  12.205  14.489  10.916 -0.1368  0.1186  0.1725
32893ION     NA48967   4.131   8.483  10.439  0.2230 -0.0591 -0.2779
32894ION     NA48968   5.049  12.079  13.595 -0.1795  0.0965  0.0186
32895ION     NA48969  13.185  16.233  10.598  0.1798 -0.1117 -0.1505
32896ION     NA48970  17.000  15.095  10.124  0.0006 -0.0574 -0.2065
32897ION     NA48971  10.988   7.426   6.385 -0.0202  0.0868 -0.0988
32898ION     NA48972  16.117  10.087  10.625 -0.0952 -0.2166  0.0021
32899ION     NA48973   4.011   1.447  12.099  0.2080 -0.0500  0.0945
32900ION     NA48974   5.763  10.180  12.337  0.0247 -0.0985  0.0050
32901ION     NA48975  13.104   8.765   6.176  0.0314 -0.2120  0.1306
32902ION     NA48976   3.378  11.407  10.837  0.1054  0.0906  0.0235
32903ION     NA48977  17.876   5.859  10.387 -0.1706 -0.2019 -0.2037
32904ION     NA48978  15.988   6.702  10.601  0.0546 -0.2177  0.2952
32905ION     NA48979  13.941   8.756   2.185  0.0104 -0.1928 -0.0702
32906ION     NA48980   3.300   0.514   3.487  0.1317  0.0110 -0.0255
32907ION     NA48981  17.909  16.591  10.142  0.3573  0.0606  0.2262
32908ION     NA48982   3.242   6.367   2.861 -0.1025 -0.1846 -0.2896
32909ION     NA48983  10.682  17.392   6.096 -0.2112 -0.1720 -0.0623
32910ION     NA48984   2.232  14.690  11.095  0.1754 -0.2759 -0.0051
32911ION     NA48985   3.052  14.611   4.814 -0.1101  0.0332  0.4800
32912ION     NA48986  11.024  12.626   6.283  0.1777  0.0171  0.1051
32913ION     NA48987  15.283   9.941  11.224  0.1086  0.1557  0.0838
32914ION     NA48988   2.031  13.779   5.836 -0.2666  0.0858 -0.1318
32915ION     NA48989   6.184  14.667  15.531 -0.3385  0.1196 -0.0759
32916ION     NA48990   4.398   8.957  13.976  0.3653  0.4253 -0.1011
32917ION     NA48991  15.845   1.094  10.474 -0.0667  0.0103  0.0141
32918ION     NA48992  10.138  13.170   1.431  0.0587  0.0253  0.1465
32919ION     NA48993   7.056  10.880   6.414  0.0807 -0.1056 -0.2809
32920ION     NA48994  15.432  16.539  12.368 -0.0338 -0.0879 -0.4138
32921ION     NA48995   5.276   1.971  10.557  0.4266 -0.2897  0.1569
32922ION     NA48996  13.896  12.276   2.294  0.0997  0.0258  0.0515
32923ION     NA48997   0.586   0.840   3.663  0.1275 -0.0223  0.1985
32924ION     NA48998   9.826  15.499  10.793 -0.1861 -0.0231  0.1976
32925ION     NA48999  17.668   6.779  14.869  0.0198  0.3437 -0.0679
32926ION     NA49000   8.066   6.852  15.699 -0.0128  0.0069  0.0408
32927ION     NA49001   5.641   9.140  16.005  0.0828 -0.0408 -0.0995
32928ION     NA49002   0.920   8.676   0.037 -0.0051 -0.1516 -0.1362
32929ION     NA49003  15.590   5.619   1.315 -0.1121 -0.1149  0.0508
32930ION     NA49004   0.507  11.914   5.892 -0.2920 -0.2392  0.2165
32931ION     NA49005   8.343  16.241   3.529 -0.1219  0.2082  0.2333
32932ION     NA49006  11.367   2.801  10.683  0.1302  0.2320 -0.0555
32933ION     NA49007   8.610  12.301  11.275  0.3893  0.3250  0.0782
32934ION     NA49008  15.629   0.054   5.828 -0.3777 -0.0953  0.0226
32935ION     NA49009  10.108  17.099  10.846  0.0891  0.0284 -0.0803
32936ION     NA49010   3.870  17.067  10.372 -0.4672  0.2620  0.0471
32937ION     NA49011  12.108   9.926  10.897 -0.0588  0.0894 -0.0168
32938ION     NA49012   9.255   5.025  10.676 -0.3927 -0.2924 -0.3529
32939ION     NA49013   3.017   4.535  10.630 -0.0951 -0.1496 -0.0360
32940ION     NA49014  11.397  10.640  11.044  0.0156 -0.4968  0.1013
32941ION     NA49015   5.962  17.431   5.893  0.1028 -0.0981 -0.0236
32942ION     NA49016   4.620   8.677  12.554  0.0279 -0.2278  0.0913
32943ION     NA49017   7.219   5.429  11.068  0.1798 -0.1216 -0.2064
32944ION     NA49018  17.723   3.085   3.560  0.1256  0.0154 -0.0164
32945ION     NA49019  15.850   7.263  10.441  0.0465 -0.0665 -0.1172
32946ION     NA49020  16.408  15.348   4.403 -0.2754 -0.0865  0.0268
32947ION     NA49021   7.058   0.336   4.307 -0.0793 -0.1382  0.2214
32948ION     NA49022  10.812   0.091  10.690  0.0412 -0.3548  0.1657
32949ION     NA49023  11.698  14.243   4.980 -0.1134  0.0700  0.1363
32950ION     NA49024   4.525  12.229  10.458  0.0693  0.0912  0.2908
32951ION     NA49025   5.075   5.756  10.559 -0.0638  0.2272 -0.3036
32952ION     NA49026  16.935  11.101  10.528  0.2511  0.1317 -0.0540
32953ION     NA49027  11.892  15.231  10.939 -0.0811 -0.2544  0.1000
32954ION     NA49028  10.889   5.246   3.274  0.0302  0.0481 -0.1534
32955ION     NA49029   5.329  10.285  13.925 -0.4839  0.1180  0.0227
32956ION     NA49030   7.981  10.512   6.418  0.2186  0.1703  0.3695
32957ION     NA49031   4.949  13.676   6.032 -0.2709  0.1070 -0.0593
32958ION     NA49032  15.876  17.438   0.222 -0.0883  0.1265  0.0462
32959ION     NA49033   0.935  13.412  10.128  0.1972 -0.1660  0.4829
32960ION     NA49034   1.309  14.069  10.129  0.0873  0.2728 -0.1036
32961ION     NA49035   1.386   5.457   6.110  0.0793 -0.0882 -0.0906
32962ION     NA49036   2.584   0.462  10.417  0.0231 -0.0288 -0.4699
32963ION     NA49037   8.458   4.910  10.855  0.0589  0.4634 -0.0549
32964ION     NA49038   3.034   5.812  13.441 -0.2658  0.1386  0.0526
32965ION     NA49039   3.571  14.992   3.649  0.2119 -0.0198  0.2397
32966ION     NA49040  15.331  17.024  10.369 -0.2162  0.0095  0.1795
32967ION     NA49041   3.614   2.312  13.494 -0.3904  0.0760 -0.0190
32968ION     NA49042   9.711  11.791  11.595  0.1363  0.1754 -0.0864
32969ION     NA49043   2.761  12.218  10.328 -0.0115  0.0159 -0.1189
32970ION     NA49044   0.848  16.828  10.374 -0.4478 -0.0318 -0.0052
32971ION     NA49045   6.487  12.152  10.843 -0.1050 -0.1360  0.1663
32972ION     NA49046   0.880  17.491  11.871 -0.0116 -0.2904  0.1902
32973ION     NA49047   0.522   9.280  10.454 -0.1177  0.3883 -0.4880
32974ION     NA49048  10.386  11.401   6.264 -0.1851  0.1987  0.1700
32975ION     NA49049  16.200  14.194  15.865 -0.2291  0.5332  0.0659
32976ION     NA49050  15.774   9.063  10.877  0.2766  0.0471  0.1856
32977ION     NA49051  13.372  16.830   5.528  0.1341  0.0821 -0.1826
32978ION     NA49052  16.801   4.287  10.153  0.5830  0.1900  0.1001
32979ION     NA49053  13.198  17.112  10.834  0.2377 -0.0427  0.2526
32980ION     NA49054   3.722   9.854  10.414 -0.1644 -0.0748  0.0552
32981ION     NA49055  10.386   2.728  11.342  0.0584 -0.0235  0.0595
32982ION     NA49056  11.689  18.124  10.533 -0.0752  0.4340 -0.0111
32983ION     NA49057   0.948   6.344   4.817  0.1196  0.1184 -0.2246
32984ION     NA49058  17.172  16.851   5.716  0.3415  0.0895  0.0949
32985ION     NA49059   0.968   1.830  10.108 -0.1143 -0.3214 -0.0680
32986ION     NA49060   1.234  18.092   4.827  0.0910 -0.0575  0.1675
32987ION     NA49061  10.944  15.467   5.927  0.1320 -0.3993  0.0127
32988ION     NA49062   9.944   0.206  10.676 -0.2168  0.0459  0.0397
32989ION     NA49063  11.031   4.830  10.819  0.0250 -0.2449 -0.3996
32990ION     NA49064   4.384   7.159  10.569 -0.4287 -0.2308 -0.1484
32991ION     NA49065  12.675  18.179   2.578 -0.2267  0.0849 -0.2732
32992ION     NA49066   7.366   5.340   6.192  0.1423 -0.0701 -0.0145
32993ION     NA49067   0.101  17.957  10.172 -0.0657  0.1174  0.0794
32994ION     NA49068  15.132   5.131  10.754 -0.0381  0.0116  0.2505
32995ION     NA49069  14.854  11.724  10.471  0.1343  0.1241 -0.1386
32996ION     NA49070  17.131  12.136  10.168  0.0146 -0.0518  0.0766
32997ION     NA49071  10.315   3.158  12.351 -0.0344 -0.0601 -0.0334
32998ION     NA49072  10.173   5.380  10.772 -0.0190  0.0644 -0.1967
32999ION     NA49073   1.847  12.188  10.514 -0.2599 -0.1112  0.0505
33000ION     NA49074   0.787   6.014   5.838 -0.3307  0.4237  0.4088
33001ION     NA49075   1.668   7.954  10.197  0.0380 -0.1479  0.2318
33002ION     NA49076   0.968  18.039  10.381  0.1712  0.3799 -0.0687
33003ION     NA49077   7.466   5.774   3.297 -0.0026  0.0101 -0.0569
33004ION     NA49078  17.355   0.105   5.532  0.1062  0.0360  0.3037
33005ION     NA49079   2.803  10.799  10.394  0.1232 -0.1077  0.1751
33006ION     NA49080  16.699   7.628   6.147  0.0170 -0.0231  0.0033
33007ION     NA49081  12.476   7.046  12.414  0.3251 -0.2104  0.2399
33008ION     NA49082  13.911   2.717  14.306  0.2354 -0.1401 -0.1486
33009ION     NA49083  11.270  11.354   5.846  0.1937  0.1747 -0.2628
33010ION     NA49084  15.788  17.759   1.193 -0.0611  0.1105  0.1576
33011ION     NA49085  13.677   0.596  10.498 -0.1763 -0.0822 -0.1461
33012ION     NA49086   6.634   6.912  10.796  0.0233  0.0687  0.3238
33013ION     NA49087   2.888   1.320  10.284 -0.0746 -0.0805 -0.0841
33014ION     NA49088  14.055  12.905   4.931  0.0168 -0.4324 -0.0358
33015ION     NA49089   7.097   5.893  15.846 -0.1401  0.0703  0.2121
33016ION     NA49090   6.115  17.166  10.491  0.2073  0.1198 -0.1621
33017ION     NA49091   0.904   8.339  10.666  0.0785  0.0588 -0.0190
33018ION     NA49092  12.207  14.703  16.078  0.1378 -0.0511  0.0836
33019ION     NA49093  15.358  14.139   5.997  0.3923 -0.2236  0.0850
33020ION     NA49094  10.816   1.470  14.046 -0.1972 -0.1256  0.0688
33021ION     NA49095   6.961   6.304  10.839  0.0567  0.2090 -0.0964
33022ION     NA49096  13.115   1.296  10.484 -0.3080 -0.0811  0.1922
33023ION     NA49097  12.029   5.755  13.480  0.1134 -0.0537  0.4544
33024ION     NA49098   7.785   4.424   1.841  0.3060  0.1940  0.2460
33025ION     NA49099   3.179   6.199  10.387 -0.0290 -0.1887 -0.1723
33026ION     NA49100   1.739   2.317  10.300  0.0212 -0.1371 -0.0240
33027ION     NA49101  10.653   4.481  13.225  0.2663 -0.0899 -0.1786
33028ION     NA49102   2.327   5.723  10.332 -0.2912  0.1227  0.3154
33029ION     NA49103   5.029   7.920   0.053  0.1076 -0.2013 -0.2727
33030ION     NA49104  14.120  16.545   6.052  0.1413  0.0616  0.2950
33031ION     NA49105  13.425   8.717  10.584  0.4295 -0.2378  0.3195
33032ION     NA49106  12.077  10.151   4.968  0.2090 -0.1166 -0.1232
33033ION     NA49107   3.585   3.520   0.525 -0.5523  0.1272 -0.1486
33034ION     NA49108  17.389   1.452  10.201 -0.0440 -0.1698  0.2139
33035ION     NA49109   2.868  10.051  10.427  0.2817  0.1485  0.2706
33036ION     NA49110   9.885  14.348  10.853  0.0716 -0.0959 -0.1954
33037ION     NA49111   6.826  14.926   5.851 -0.1698 -0.1200 -0.0353
33038ION     NA49112  17.662  15.484  10.119  0.1985 -0.1478 -0.2032
33039ION     NA49113   3.261  16.826   5.166 -0.1681 -0.0795  0.2125
33040ION     NA49114   6.321  10.168  11.036 -0.3348 -0.0080  0.2002
33041ION     NA49115   7.342   9.574  15.785 -0.1388 -0.1645 -0.0584
33042ION     NA49116   1.469   1.299  15.395  0.1826 -0.3715  0.1796
33043ION     NA49117  13.916  11.761  10.983  0.0061 -0.0958  0.0847
33044ION     NA49118   8.153  11.362  10.973 -0.1882 -0.0271 -0.1753
33045ION     NA49119  11.083   3.871   6.257  0.2199 -0.1011 -0.0631
33046ION     NA49120  12.532   4.788  11.060 -0.3205  0.0383  0.0545
33047ION     NA49121  14.772   1.682  10.598  0.3680 -0.1866 -0.0393
33048ION     NA49122  11.983   2.859  10.868 -0.0654  0.0004 -0.1543
33049ION     NA49123   5.611   4.361  10.826  0.1635  0.1872 -0.1042
33050ION     NA49124   9.351  16.199  11.927  0.1877  0.1798 -0.0046
33051ION     NA49125  15.540  11.469  10.641 -0.0129 -0.3286  0.1651
33052ION     NA49126   2.067  11.958   0.705  0.0715  0.0737  0.1542
33053ION     NA49127   0.678  11.724  10.763  0.0657  0.0222  0.3430
33054ION     NA49128   6.066   5.402  14.432  0.2285  0.1308  0.1380
33055ION     NA49129   1.809   3.279  10.407  0.1503 -0.0992  0.1323
33056ION     NA49130   8.634   5.848  10.893  0.1808 -0.0381 -0.1449
33057ION     NA49131  16.096   8.764   6.022  0.0694  0.0381  0.2270
33058ION     NA49132   9.971  13.536  11.827  0.0206  0.1885 -0.1828
33059ION     NA49133   3.527   1.875  10.407 -0.4212  0.1605  0.2829
33060ION     NA49134   2.246   4.929  10.461  0.1395 -0.4858 -0.0886
33061ION     NA49135   7.401  12.586  10.766 -0.0145 -0.0928  0.1090
33062ION     NA49136   7.753   1.565   4.929  0.1119  0.1526  0.1096
33063ION     NA49137   6.989   2.771  10.863  0.0435 -0.2949  0.2078
33064ION     NA49138  10.543  10.414  12.332 -0.1031  0.3285 -0.2751
33065ION     NA49139   1.960   6.474  10.276  0.1743  0.0847 -0.1158
33066ION     NA49140  10.635  15.926   2.555  0.0216 -0.0543  0.2027
33067ION     NA49141  11.821  13.559  10.761  0.2425  0.0838  0.0107
33068ION     NA49142   2.483   2.778  10.787  0.2028 -0.1683  0.2967
33069ION     NA49143  12.222  17.328  11.065 -0.1272 -0.0796  0.0085
33070ION     NA49144   7.856   2.003  11.551 -0.1753 -0.0601 -0.4213
33071ION     NA49145   5.161  10.679  10.855  0.1224  0.3176 -0.1036
33072ION     NA49146  15.138   7.163  10.691 -0.0848 -0.0556 -0.1565
33073ION     NA49147   3.456  12.920   5.666 -0.0650 -0.1677 -0.1798
33074ION     NA49148   4.236   7.672  10.646  0.0240 -0.0015  0.3693
33075ION     NA49149   5.895  15.537  10.565  0.1082  0.3760  0.0407
33076ION     NA49150   2.170   9.479  10.650 -0.2014 -0.0452 -0.1157
33077ION     NA49151  14.868   3.631  10.481 -0.1819  0.0701  0.2396
33078ION     NA49152  13.471  13.634  10.714 -0.0118 -0.0689 -0.1204
33079ION     NA49153   9.484   4.102  10.634 -0.0727 -0.0343 -0.5026
33080ION     NA49154  14.900  17.932   3.271  0.1937  0.1586 -0.0636
33081ION     NA49155  16.555  17.485  10.623 -0.4236 -0.1150 -0.0411
33082ION     NA49156  18.010   4.487   9.700 -0.0993 -0.1361 -0.4231
33083ION     NA49157  13.855   8.011  10.802  0.2401  0.1968  0.3756
33084ION     NA49158  18.152  17.094  10.151  0.1668 -0.0634  0.0832
33085ION     NA49159  18.198   6.174  10.015 -0.1587  0.0583 -0.1343
33086ION     NA49160  17.483  16.720   0.529 -0.0954  0.3217  0.1292
33087ION     NA49161  17.982  11.817  10.399 -0.0445 -0.1072 -0.1364
33088ION     NA49162  12.991  18.116  10.780 -0.1905  0.3177  0.0318
33089ION     NA49163  10.176  16.534   5.979  0.1448  0.3602  0.2637
33090ION     NA49164   9.721   2.573  16.382 -0.2778  0.2194  0.1170
33091ION     NA49165  12.288  16.867  10.681 -0.1462  0.2047 -0.2914
33092ION     NA49166   8.982  15.845  10.607 -0.0767 -0.2752 -0.1238
33093ION     NA49167   5.371   9.021   5.953 -0.3022 -0.0442  0.0498
33094ION     NA49168  14.828  13.077  11.182 -0.0359 -0.1312  0.1750
33095ION     NA49169  12.275   1.097  10.789  0.0906 -0.0943 -0.4981
33096ION     NA49170   7.479  13.553  11.514  0.2056  0.2697 -0.0355
33097ION     NA49171  14.792   7.473   3.028 -0.2045  0.1254 -0.1535
33098ION     NA49172  17.809  10.978   2.185 -0.1006  0.0752 -0.0108
33099ION     NA49173  16.048  14.146  10.310 -0.0387  0.0126  0.0015
33100ION     NA49174   8.176   8.258  10.640  0.1842  0.0451  0.0227
33101ION     NA49175  16.967  13.108  10.170  0.0485 -0.0880  0.0699
33102ION     NA49176  11.719  11.473  13.006  0.2984 -0.1962 -0.0353
33103ION     NA49177  17.604  17.895  10.110  0.2219  0.0698 -0.0459
33104ION     NA49178   4.203   7.625   6.156  0.2420 -0.0496  0.0924
33105ION     NA49179  16.793   6.727  10.118  0.2705  0.0890  0.3821
33106ION     NA49180   1.088   6.739  15.496  0.1364  0.2577  0.1148
33107ION     NA49181   1.822  13.340  10.362 -0.1708  0.1580  0.0222
33108ION     NA49182  11.880   8.683   0.747  0.1048  0.1463  0.4547
33109ION     NA49183   4.876  15.104  10.397 -0.2690 -0.2604  0.1039
33110ION     NA49184   2.852  17.318   4.495 -0.1216  0.1041  0.3243
33111ION     NA49185  13.949   6.256   6.072  0.3117  0.1005  0.0865
33112ION     NA49186   5.166   6.742  15.553  0.4512 -0.0800 -0.6074
33113ION     NA49187   3.122  14.458   0.584 -0.3495  0.2435  0.1031
33114ION     NA49188   2.922  11.926   3.758  0.0620 -0.1575  0.0362
33115ION     NA49189  14.195   3.434  10.559 -0.1670 -0.1740  0.1069
33116ION     NA49190   3.112  15.521  10.164  0.2510  0.1497 -0.1705
33117ION     NA49191  15.496   4.335  10.485 -0.2832 -0.3396 -0.1025
33118ION     NA49192  14.599  10.999  10.742  0.1553 -0.0930 -0.0766
33119ION     NA49193   9.439   5.906  10.628 -0.3187 -0.0515 -0.0679
33120ION     NA49194  14.044  13.550   0.694 -0.1182 -0.1060 -0.2123
33121ION     NA49195  12.937  12.843   0.232  0.2127 -0.2250  0.1202
33122ION     NA49196  14.953   4.060  12.074  0.1249  0.0851  0.3439
33123ION     NA49197   5.971  16.859   1.033 -0.2005  0.4585 -0.1093
33124ION     NA49198  13.274   4.923  11.737 -0.0328 -0.0900  0.0648
33125ION     NA49199   1.152  10.674  12.868 -0.2052  0.0233  0.1816
33126ION     NA49200  11.422  10.964   3.650  0.0400  0.0259 -0.2704
33127ION     NA49201   2.047   3.980   4.629 -0.3997  0.2076  0.2145
33128ION     NA49202  11.064  12.961  11.160  0.0259  0.0651 -0.2694
33129ION     NA49203   8.728   8.755  14.726  0.2045  0.0115 -0.5074
33130ION     NA49204   4.049  15.371  10.241 -0.1581 -0.1686 -0.0447
33131ION     NA49205   8.994  14.519  15.905 -0.2746  0.0827 -0.1507
33132ION     NA49206   2.551  17.423  13.564 -0.0690  0.2393  0.0056
33133ION     NA49207  12.468  11.035  10.881  0.1968  0.1045  0.0868
33134ION     NA49208   4.510  16.829  12.411  0.1276 -0.0449 -0.1564
33135ION     NA49209  15.365  14.262  10.468 -0.2048 -0.3323 -0.0313
33136ION     NA49210  15.464   5.567  11.567  0.1263  0.2437  0.2253
33137ION     NA49211   6.561   3.035   6.133 -0.0411  0.1274  0.2671
33138ION     NA49212   7.149   1.052   3.312  0.2033 -0.0071  0.1522
33139ION     NA49213  12.604  14.016   6.078 -0.2890 -0.4021 -0.0258
33140ION     NA49214   1.838   0.911  10.153 -0.0697  0.0212 -0.4229
33141ION     NA49215   0.380  16.471  13.476 -0.2168 -0.1603 -0.0604
33142ION     NA49216  13.308   0.538   3.675 -0.0203 -0.0483  0.3150
33143ION     NA49217  10.425   0.940  10.697 -0.2166 -0.3507  0.1472
33144ION     NA49218  10.433  15.929   6.308  0.4755  0.4155  0.0691
33145ION     NA49219   2.663  17.955  10.512 -0.1477  0.1123  0.1840
33146ION     NA49220  11.180  14.893  16.130 -0.0048  0.0817  0.0526
33147ION     NA49221  14.592  15.252  16.420 -0.0063 -0.1229  0.1727
33148ION     NA49222  12.632   1.986  10.703  0.0020 -0.0494 -0.1482
33149ION     NA49223  16.330  12.501  10.451 -0.0693 -0.1894  0.0617
33150ION     NA49224   1.511   7.936  14.801 -0.1294 -0.0735 -0.2475
33151ION     NA49225  10.325   0.658   2.755  0.2189  0.2145 -0.0355
33152ION     NA49226   8.662  10.104  10.823 -0.2629 -0.1382 -0.1674
33153ION     NA49227  18.209   8.619  10.382 -0.1871  0.0263  0.0696
33154ION     NA49228   5.903   6.202   6.213 -0.3191  0.1636 -0.1747
33155ION     NA49229   8.083   1.021  10.614 -0.4168  0.1638  0.1378
33156ION     NA49230   8.764   8.806  11.021  0.0691 -0.2712  0.1457
33157ION     NA49231  11.291   3.646  10.934 -0.2251  0.1100 -0.1486
33158ION     NA49232   7.486   1.849  10.697  0.4810 -0.1247 -0.2821
33159ION     NA49233   7.196  12.713  11.167  0.0214 -0.1558  0.0403
33160ION     NA49234   9.468   9.591   0.228  0.3157  0.0825  0.2630
33161ION     NA49235   4.634   4.583   4.522 -0.3243 -0.1992  0.0882
33162ION     NA49236  16.198  10.713  10.545 -0.0022 -0.1217 -0.2883
33163ION     NA49237  16.066   5.675  10.468 -0.1599  0.0825  0.0047
33164ION     NA49238  11.942   0.700   3.851 -0.0464 -0.0815 -0.3683
33165ION     NA49239  10.842   7.943  10.738  0.1021 -0.1953 -0.0594
33166ION     NA49240   4.515  16.110   5.837  0.0159 -0.1759 -0.1994
33167ION     NA49241  12.965   5.105   2.284 -0.0383  0.1052 -0.1444
33168ION     NA49242   4.339  13.766   4.266  0.1259  0.0137  0.2569
33169ION     NA49243  17.216   6.019   2.452  0.1981  0.1132 -0.0161
33170ION     NA49244  16.543  14.156   5.576 -0.0828 -0.1034 -0.2347
33171ION     NA49245   1.454   5.352  10.262 -0.0103  0.1232 -0.1842
33172ION     NA49246   6.374  17.843  10.773 -0.1429  0.1822  0.3874
33173ION     NA49247   5.196   0.220  13.233 -0.0908 -0.1120 -0.1666
33174ION     NA49248   3.671  14.328  11.367 -0.0766  0.0710 -0.0647
33175ION     NA49249  17.815  12.600  10.119  0.0712  0.2422  0.2680
33176ION     NA49250  12.145   6.666   6.070  0.0278 -0.1474 -0.2023
33177ION     NA49251  14.152   3.300   5.814  0.2238 -0.0739  0.3700
33178ION     NA49252   2.332  11.242  15.948  0.0595  0.1362 -0.2217
33179ION     NA49253   2.727  14.599  10.221  0.3711 -0.1632 -0.2024
33180ION     NA49254   5.902   7.234  15.347 -0.1223 -0.0092 -0.3191
33181ION     NA49255  10.882   2.783   4.674 -0.1078 -0.0640 -0.0088
33182ION     NA49256   8.735   3.655  10.844  0.0455  0.0001 -0.1660
33183ION     NA49257   8.922   6.907   3.153 -0.0510  0.1426  0.0200
33184ION     NA49258   3.035  10.166   1.360 -0.1436  0.1321 -0.1658
33185ION     NA49259   1.869  17.129   5.381 -0.0750 -0.1430 -0.1130
33186ION     NA49260   3.850   2.084   2.115 -0.0935  0.2717  0.0839
33187ION     NA49261   2.346   8.781   1.593  0.3337 -0.1577 -0.2190
  18.22762  18.22762  16.55093
