INSANE! Membrane UpperLeaflet>loPI:POPI:DPPI:PYPI:ERGO=180.0:5.0:3.0:2.0:10.0 LowerLeaflet>PSPI:POPI:POPS:YOPS:POPE:YOPE:POPC:YOPC:ERGO=6.0:14.0:21.0:9.0:9.0:21.0:12.0:48.0:60.0
49261
    1loPI    C1    1  11.087   6.504   9.982  0.2201  0.2416  0.0825
    1loPI    C2    2  10.804   6.536  10.264 -0.0963  0.0842 -0.2103
    1loPI    C3    3  11.177   6.434  10.366 -0.1759  0.1537  0.1645
    1loPI   PO4    4  10.969   6.393   9.755 -0.1801 -0.0821 -0.1555
    1loPI   GL1    5  10.791   6.443   9.405  0.1460  0.0070  0.1129
    1loPI   GL2    6  10.467   6.593   9.312  0.0192 -0.3434 -0.2296
    1loPI   C1A    7  10.936   6.636   8.986 -0.0692  0.3132 -0.1110
    1loPI   C2A    8  11.260   7.083   8.749 -0.3247 -0.0496 -0.3344
    1loPI   C3A    9  11.592   6.967   8.408  0.3440  0.1522 -0.0359
    1loPI   C4A   10  11.570   7.112   8.060 -0.5613  0.2654 -0.1831
    1loPI   C5A   11  11.796   7.176   7.684 -0.0059  0.2466  0.0555
    1loPI   C6A   12  11.974   7.217   7.239 -0.2354  0.0953  0.1090
    1loPI   C1B   13  10.405   6.708   8.895  0.2337 -0.0221 -0.3019
    1loPI   C2B   14  10.492   6.640   8.480 -0.3158  0.0695  0.0823
    1loPI   C3B   15  10.562   6.767   8.212  0.1460  0.1169 -0.1932
    1loPI   C4B   16  10.392   6.945   7.915  0.3333  0.2004  0.2880
    2loPI    C1   17   3.873   1.525   9.020  0.1411 -0.0753 -0.0673
    2loPI    C2   18   4.043   1.881   9.088 -0.1419  0.0413  0.0422
    2loPI    C3   19   3.914   1.658   9.395 -0.0529 -0.1135 -0.0317
    2loPI   PO4   20   3.815   1.538   8.763 -0.2489  0.0124 -0.1426
    2loPI   GL1   21   3.942   1.426   8.408 -0.1352 -0.0691 -0.2167
    2loPI   GL2   22   3.907   1.116   8.547  0.2383 -0.1276 -0.0946
    2loPI   C1A   23   3.974   1.461   7.925  0.0223  0.0399  0.0421
    2loPI   C2A   24   3.847   1.563   7.425  0.0767 -0.8017 -0.4005
    2loPI   C3A   25   3.749   1.463   6.900 -0.1984 -0.3455  0.0539
    2loPI   C4A   26   3.620   1.116   6.546 -0.0070  0.0154  0.0489
    2loPI   C5A   27   3.360   0.876   6.300 -0.1533 -0.1124  0.0734
    2loPI   C6A   28   3.121   0.540   6.076  0.1014  0.3658 -0.4247
    2loPI   C1B   29   4.179   1.034   8.119  0.0615  0.2363 -0.0010
    2loPI   C2B   30   4.121   1.035   7.616 -0.1402  0.0205  0.0650
    2loPI   C3B   31   4.343   1.235   7.257 -0.0378 -0.0921 -0.0760
    2loPI   C4B   32   4.804   1.415   7.263 -0.0548 -0.0745  0.3673
    3loPI    C1   33   2.456  10.765  10.448 -0.0959  0.1634 -0.1051
    3loPI    C2   34   2.432  10.605  10.814  0.0683 -0.1291 -0.2192
    3loPI    C3   35   2.377  10.998  10.764  0.0269 -0.0895  0.1161
    3loPI   PO4   36   2.227  10.655  10.292 -0.0386  0.2473 -0.0176
    3loPI   GL1   37   2.110  10.524   9.881 -0.3328  0.0130  0.0024
    3loPI   GL2   38   2.146  10.878   9.877  0.1226 -0.1954 -0.1795
    3loPI   C1A   39   2.080  10.254   9.490 -0.1301 -0.1590  0.3797
    3loPI   C2A   40   2.001  10.192   9.046  0.0106  0.0870  0.1161
    3loPI   C3A   41   1.883  10.257   8.728  0.0065  0.1331  0.3487
    3loPI   C4A   42   1.740  10.108   8.338  0.1201  0.1644 -0.0670
    3loPI   C5A   43   1.732  10.273   7.994 -0.1126 -0.0218 -0.1622
    3loPI   C6A   44   1.388  10.445   7.703 -0.2288  0.1912  0.1602
    3loPI   C1B   45   2.166  11.005   9.469 -0.3265 -0.1799  0.1112
    3loPI   C2B   46   2.353  11.101   9.091  0.0734 -0.0163  0.0087
    3loPI   C3B   47   2.584  11.098   8.627 -0.0218 -0.1863  0.1113
    3loPI   C4B   48   2.633  11.265   8.169  0.1211 -0.2356  0.1694
    4loPI    C1   49   4.872   2.266   9.293  0.3409  0.0106 -0.3455
    4loPI    C2   50   4.936   2.619   9.470  0.1156 -0.0871 -0.0605
    4loPI    C3   51   5.214   2.332   9.491  0.0654 -0.1194  0.1932
    4loPI   PO4   52   4.837   2.386   9.065  0.2092  0.0041 -0.1349
    4loPI   GL1   53   5.125   2.456   8.737  0.1451  0.1002 -0.1401
    4loPI   GL2   54   5.133   2.746   8.609  0.0117  0.1216 -0.0158
    4loPI   C1A   55   4.972   2.192   8.389  0.1765 -0.3302 -0.2463
    4loPI   C2A   56   5.018   2.313   8.032 -0.0024  0.1215 -0.4093
    4loPI   C3A   57   5.038   2.406   7.588  0.1841 -0.3446  0.1810
    4loPI   C4A   58   5.125   2.538   7.210  0.0251  0.2925 -0.1518
    4loPI   C5A   59   5.065   2.914   7.003  0.0062  0.0502  0.0347
    4loPI   C6A   60   5.385   2.947   6.740  0.0828 -0.0567  0.0602
    4loPI   C1B   61   5.128   2.983   8.183 -0.1184  0.0653 -0.3704
    4loPI   C2B   62   5.133   2.950   7.783 -0.0981  0.2657  0.1482
    4loPI   C3B   63   5.216   3.228   7.444  0.1555 -0.4639  0.0713
    4loPI   C4B   64   5.516   3.293   7.076  0.0405 -0.2072 -0.0473
    5loPI    C1   65   6.452   9.325   9.750  0.0235  0.1332  0.0050
    5loPI    C2   66   6.417   9.710   9.650  0.0547  0.1451  0.0393
    5loPI    C3   67   6.671   9.601   9.939 -0.2199  0.1408  0.2831
    5loPI   PO4   68   6.507   9.193   9.579 -0.1153 -0.3244 -0.2994
    5loPI   GL1   69   6.342   9.111   9.207 -0.0045  0.1191 -0.4767
    5loPI   GL2   70   6.449   9.486   9.127 -0.0220  0.0497 -0.2325
    5loPI   C1A   71   6.330   8.925   8.759 -0.3575 -0.1648 -0.1413
    5loPI   C2A   72   6.314   8.726   8.353 -0.0725 -0.0079 -0.1787
    5loPI   C3A   73   6.059   8.702   7.941 -0.0005 -0.0451 -0.2662
    5loPI   C4A   74   5.949   8.296   7.675 -0.0849 -0.0270 -0.1677
    5loPI   C5A   75   5.937   7.934   7.466  0.1338  0.3489  0.1218
    5loPI   C6A   76   6.002   7.975   7.003 -0.2743 -0.0026  0.1171
    5loPI   C1B   77   6.312   9.390   8.685 -0.1275 -0.1963 -0.2766
    5loPI   C2B   78   6.349   9.221   8.325  0.2205  0.1651 -0.3094
    5loPI   C3B   79   6.470   9.083   7.972 -0.0783 -0.1422  0.4257
    5loPI   C4B   80   6.407   9.078   7.457 -0.0637  0.2203 -0.3370
    6loPI    C1   81  13.992   1.773   9.834  0.0668  0.1366 -0.2502
    6loPI    C2   82  14.040   1.916  10.204  0.3307 -0.1497 -0.1701
    6loPI    C3   83  13.680   1.787  10.085  0.1849  0.1864 -0.1049
    6loPI   PO4   84  14.363   1.740   9.853  0.1545 -0.0024  0.1688
    6loPI   GL1   85  14.626   1.459   9.588 -0.0985  0.1046 -0.0342
    6loPI   GL2   86  14.966   1.210   9.678  0.1908 -0.0316 -0.0922
    6loPI   C1A   87  14.537   1.679   9.183  0.1001  0.0378  0.1381
    6loPI   C2A   88  14.509   1.603   8.758  0.0019  0.0099 -0.3992
    6loPI   C3A   89  14.605   1.626   8.299  0.1962  0.3320  0.0568
    6loPI   C4A   90  14.655   1.484   7.894  0.2884  0.0318  0.1957
    6loPI   C5A   91  14.567   1.544   7.495  0.0680 -0.0068 -0.0881
    6loPI   C6A   92  14.468   1.265   7.109 -0.5205  0.0522  0.0939
    6loPI   C1B   93  14.891   1.219   9.224 -0.2355  0.1216  0.2198
    6loPI   C2B   94  14.788   1.119   8.814 -0.0811 -0.1074  0.0676
    6loPI   C3B   95  14.665   1.080   8.415  0.5381  0.1757  0.1920
    6loPI   C4B   96  14.760   0.973   8.034 -0.1455  0.0470 -0.0706
    7loPI    C1   97  12.925  13.412   9.908 -0.0093 -0.1425  0.0252
    7loPI    C2   98  13.073  13.041   9.943 -0.1454 -0.2274 -0.2733
    7loPI    C3   99  12.678  13.097   9.914 -0.1200 -0.0655 -0.3150
    7loPI   PO4  100  13.074  13.517   9.716 -0.0855 -0.2953 -0.4210
    7loPI   GL1  101  13.181  13.521   9.319  0.2372  0.0809 -0.3068
    7loPI   GL2  102  13.494  13.610   9.343 -0.2004  0.3684  0.0490
    7loPI   C1A  103  13.019  13.562   8.939 -0.1511 -0.0827 -0.2525
    7loPI   C2A  104  13.209  13.762   8.620  0.4687 -0.0982  0.1489
    7loPI   C3A  105  13.323  13.741   8.167  0.0475 -0.2178  0.1081
    7loPI   C4A  106  13.277  13.936   7.758 -0.1751 -0.1684  0.0701
    7loPI   C5A  107  13.475  14.101   7.361 -0.2586 -0.1255 -0.3478
    7loPI   C6A  108  13.509  14.338   6.947  0.1239  0.2031  0.1190
    7loPI   C1B  109  13.587  13.669   8.904  0.2670 -0.0819  0.0720
    7loPI   C2B  110  13.859  13.612   8.490  0.1070 -0.0044  0.0471
    7loPI   C3B  111  13.809  13.476   8.073 -0.3153  0.0877  0.0840
    7loPI   C4B  112  13.729  13.430   7.730 -0.0855 -0.1219  0.3163
    8loPI    C1  113  14.201   8.895  10.361  0.1304 -0.0060 -0.1146
    8loPI    C2  114  14.199   9.255  10.536 -0.0874 -0.0430 -0.0377
    8loPI    C3  115  13.884   9.012  10.574  0.1238 -0.3093  0.0471
    8loPI   PO4  116  14.226   9.010  10.061 -0.0423  0.0292 -0.1277
    8loPI   GL1  117  14.275   9.043   9.700  0.1938 -0.2027 -0.0524
    8loPI   GL2  118  14.077   9.430   9.595 -0.0657  0.0306  0.0335
    8loPI   C1A  119  14.435   9.164   9.317  0.1075  0.0172  0.2917
    8loPI   C2A  120  14.364   9.254   8.841 -0.0707 -0.1822  0.0800
    8loPI   C3A  121  14.504   9.319   8.338  0.4340  0.0221  0.0755
    8loPI   C4A  122  14.504   9.401   7.930 -0.2231 -0.1529 -0.2646
    8loPI   C5A  123  14.425   9.310   7.429  0.2194 -0.0250 -0.2444
    8loPI   C6A  124  14.356   8.904   7.168  0.0880  0.3348 -0.0518
    8loPI   C1B  125  14.038   9.541   9.222  0.1946  0.1887  0.1129
    8loPI   C2B  126  14.218   9.717   8.854 -0.0688  0.0656 -0.0947
    8loPI   C3B  127  14.399   9.873   8.457 -0.1780 -0.2461  0.2420
    8loPI   C4B  128  14.267   9.891   8.093  0.1610 -0.3311  0.0442
    9loPI    C1  129  17.132  11.010  10.643 -0.2610  0.0699  0.0815
    9loPI    C2  130  17.511  11.063  10.758 -0.1922 -0.0608 -0.0792
    9loPI    C3  131  17.213  11.117  11.020 -0.0665  0.0841  0.0368
    9loPI   PO4  132  17.140  10.856  10.526  0.1887 -0.0178  0.0468
    9loPI   GL1  133  17.156  10.685  10.113  0.2589 -0.1015 -0.1165
    9loPI   GL2  134  17.404  10.655   9.865  0.2311  0.2465  0.0930
    9loPI   C1A  135  17.236  10.162   9.816 -0.3003 -0.1176  0.3315
    9loPI   C2A  136  16.893  10.103   9.503 -0.0547 -0.2198 -0.1653
    9loPI   C3A  137  16.628  10.102   9.046 -0.0470 -0.1176  0.0287
    9loPI   C4A  138  16.850  10.025   8.676  0.2056  0.2280  0.2042
    9loPI   C5A  139  16.903  10.166   8.237  0.1327  0.0906 -0.1738
    9loPI   C6A  140  16.960  10.521   7.996 -0.0493 -0.1909  0.0131
    9loPI   C1B  141  17.010  10.573   9.662 -0.1831  0.0005 -0.1894
    9loPI   C2B  142  16.810  10.556   9.267  0.2091 -0.0593  0.0118
    9loPI   C3B  143  16.625  10.665   8.874  0.4335 -0.3968  0.1562
    9loPI   C4B  144  16.936  10.623   8.465 -0.1616  0.1351  0.1688
   10loPI    C1  145  10.620  18.325   9.137  0.2406 -0.0331  0.0822
   10loPI    C2  146  10.693  18.245   9.522 -0.0076  0.1288  0.1655
   10loPI    C3  147  10.611  17.948   9.269 -0.1921  0.0517  0.3137
   10loPI   PO4  148  10.361  18.415   9.041 -0.0323  0.0084  0.1431
   10loPI   GL1  149  10.262  18.426   8.619 -0.1184  0.3923 -0.2063
   10loPI   GL2  150  10.554  18.365   8.568  0.0310 -0.0480 -0.1382
   10loPI   C1A  151  10.004  18.545   8.225  0.0141 -0.0525 -0.1386
   10loPI   C2A  152   9.912  18.448   7.749  0.1331 -0.0527 -0.0205
   10loPI   C3A  153   9.992  18.528   7.243  0.2619  0.2199 -0.0417
   10loPI   C4A  154   9.972  18.742   6.764 -0.4404  0.0682  0.0006
   10loPI   C5A  155  10.073  18.582   6.342 -0.1082  0.1433  0.0381
   10loPI   C6A  156   9.987  18.329   6.106 -0.0284  0.1527  0.1875
   10loPI   C1B  157  10.436  18.137   8.237 -0.1262  0.0569  0.0107
   10loPI   C2B  158  10.313  18.173   7.785  0.1497  0.0283  0.0030
   10loPI   C3B  159  10.176  18.051   7.364 -0.1299 -0.3349  0.1379
   10loPI   C4B  160  10.496  17.873   7.130 -0.1758 -0.1066  0.2004
   11loPI    C1  161   5.192   3.034   9.572  0.0990 -0.0134 -0.1063
   11loPI    C2  162   5.446   2.736   9.653  0.0138 -0.0584 -0.0020
   11loPI    C3  163   5.177   2.849   9.926 -0.2483 -0.1829 -0.2042
   11loPI   PO4  164   5.247   3.243   9.422 -0.0676 -0.2092 -0.1099
   11loPI   GL1  165   5.425   3.296   9.037 -0.2135  0.1959  0.1994
   11loPI   GL2  166   5.565   3.435   8.966 -0.0556 -0.0874 -0.2363
   11loPI   C1A  167   5.230   3.274   8.610 -0.0561  0.0176 -0.1411
   11loPI   C2A  168   5.117   3.437   8.288  0.1169 -0.2534  0.0390
   11loPI   C3A  169   5.216   3.495   7.877 -0.3943 -0.0082  0.0564
   11loPI   C4A  170   5.356   3.716   7.416 -0.0720  0.2295  0.2206
   11loPI   C5A  171   5.331   3.826   7.040  0.1543 -0.1367  0.2507
   11loPI   C6A  172   5.173   3.889   6.675  0.0725  0.0559 -0.0882
   11loPI   C1B  173   5.753   3.468   8.642  0.1274 -0.1371 -0.0039
   11loPI   C2B  174   5.652   3.504   8.263  0.3044  0.3857  0.2219
   11loPI   C3B  175   5.664   3.690   7.964 -0.1441 -0.0810 -0.0207
   11loPI   C4B  176   5.855   3.940   7.717  0.1285 -0.0189  0.0147
   12loPI    C1  177   3.931   6.448  10.144  0.0883 -0.2285 -0.1861
   12loPI    C2  178   4.073   6.647  10.461  0.1082 -0.2847 -0.1597
   12loPI    C3  179   3.904   6.287  10.509 -0.0759 -0.2033 -0.1864
   12loPI   PO4  180   3.857   6.634   9.984  0.2076 -0.1493 -0.2120
   12loPI   GL1  181   3.512   6.659   9.599 -0.0684 -0.1587  0.0299
   12loPI   GL2  182   3.595   6.942   9.577  0.2819 -0.3937  0.2907
   12loPI   C1A  183   3.497   6.775   9.096 -0.1470  0.4815 -0.0211
   12loPI   C2A  184   3.401   6.834   8.753 -0.0656  0.0749  0.0198
   12loPI   C3A  185   3.331   6.845   8.371 -0.1711 -0.1484  0.2604
   12loPI   C4A  186   3.276   6.960   7.985  0.0952 -0.0769 -0.3761
   12loPI   C5A  187   2.986   7.075   7.697  0.0572 -0.2304  0.3290
   12loPI   C6A  188   3.100   7.005   7.215 -0.3877 -0.1896 -0.0704
   12loPI   C1B  189   3.823   7.107   9.272 -0.0697  0.1590 -0.1978
   12loPI   C2B  190   4.026   7.083   8.797  0.0689 -0.1473 -0.1955
   12loPI   C3B  191   4.173   6.952   8.335 -0.2112  0.4949  0.2983
   12loPI   C4B  192   4.409   6.715   7.938 -0.2634  0.0510 -0.1356
   13loPI    C1  193  14.465   0.192   9.778  0.1096 -0.3191  0.1069
   13loPI    C2  194  14.728   0.320  10.051 -0.0672  0.1816  0.0519
   13loPI    C3  195  14.406   0.113  10.166  0.1282 -0.0650  0.1636
   13loPI   PO4  196  14.417   0.467   9.613  0.1094 -0.2963 -0.0502
   13loPI   GL1  197  14.371   0.666   9.220  0.3013 -0.3068  0.0356
   13loPI   GL2  198  14.488   0.932   9.268  0.5593 -0.3689 -0.1297
   13loPI   C1A  199  14.770   0.553   9.024 -0.0522 -0.6602  0.0893
   13loPI   C2A  200  14.923   0.478   8.588 -0.0595 -0.0259 -0.2418
   13loPI   C3A  201  14.800   0.434   8.250 -0.1471  0.1575 -0.1896
   13loPI   C4A  202  14.548   0.412   7.907 -0.1102 -0.1369  0.2942
   13loPI   C5A  203  14.147   0.487   7.840 -0.2315  0.1657  0.0047
   13loPI   C6A  204  13.811   0.540   7.566  0.3796  0.1650 -0.1561
   13loPI   C1B  205  14.422   0.811   8.754 -0.4557 -0.1574 -0.1091
   13loPI   C2B  206  14.280   0.822   8.267  0.0532 -0.0039  0.0824
   13loPI   C3B  207  14.360   0.937   7.735 -0.2064 -0.0858 -0.1745
   13loPI   C4B  208  14.025   0.967   7.281 -0.0233 -0.3442  0.1385
   14loPI    C1  209   5.650  16.305   9.470  0.2106 -0.0131  0.0400
   14loPI    C2  210   5.250  16.293   9.472  0.2059  0.0991 -0.1017
   14loPI    C3  211   5.454  16.229   9.810  0.0719 -0.0708 -0.0521
   14loPI   PO4  212   5.748  16.492   9.307 -0.4182  0.3892  0.0641
   14loPI   GL1  213   5.676  16.395   8.967  0.2630 -0.0576  0.1051
   14loPI   GL2  214   5.975  16.280   8.724  0.0758  0.0787 -0.2256
   14loPI   C1A  215   5.550  16.489   8.547 -0.1150 -0.1864  0.0561
   14loPI   C2A  216   5.445  16.476   8.100 -0.1644  0.0987  0.2771
   14loPI   C3A  217   5.271  16.478   7.687 -0.0289 -0.4448  0.0441
   14loPI   C4A  218   5.268  16.474   7.251 -0.1225  0.2291  0.2021
   14loPI   C5A  219   5.022  16.467   6.874  0.1464 -0.0087  0.0996
   14loPI   C6A  220   4.777  16.535   6.457  0.4478 -0.5121  0.0723
   14loPI   C1B  221   5.974  16.326   8.185  0.0716 -0.3265  0.2317
   14loPI   C2B  222   6.109  16.340   7.708  0.3127 -0.0625 -0.2374
   14loPI   C3B  223   6.436  16.294   7.490  0.0167  0.6016  0.0588
   14loPI   C4B  224   6.662  15.925   7.354  0.0516  0.0222 -0.0164
   15loPI    C1  225  10.569   4.532   9.570  0.2783 -0.1954 -0.1226
   15loPI    C2  226  10.680   4.723   9.903 -0.4006 -0.0927  0.0592
   15loPI    C3  227  10.652   4.324   9.901 -0.1574 -0.1112  0.0459
   15loPI   PO4  228  10.638   4.658   9.429  0.0575 -0.0896  0.1282
   15loPI   GL1  229  10.888   4.812   9.099 -0.2920  0.0972 -0.0107
   15loPI   GL2  230  10.662   5.075   9.101 -0.2210 -0.0110 -0.1431
   15loPI   C1A  231  10.891   4.785   8.633  0.3363 -0.0769  0.1152
   15loPI   C2A  232  10.671   4.765   8.173 -0.0580 -0.2109 -0.2074
   15loPI   C3A  233  10.623   4.827   7.863  0.0918  0.3717  0.0988
   15loPI   C4A  234  10.539   4.774   7.383 -0.0492 -0.0590 -0.4535
   15loPI   C5A  235  10.708   4.568   7.008 -0.1252 -0.1995  0.0992
   15loPI   C6A  236  10.603   4.159   6.871 -0.1036  0.0175 -0.2623
   15loPI   C1B  237  10.511   5.257   8.724 -0.0405  0.1463  0.1780
   15loPI   C2B  238  10.637   5.157   8.418  0.0094  0.0268  0.2781
   15loPI   C3B  239  10.720   5.387   8.032 -0.0758  0.1041 -0.5973
   15loPI   C4B  240  10.679   5.268   7.568  0.1773  0.4355 -0.2329
   16loPI    C1  241  10.357   8.046   9.974  0.0109 -0.1742 -0.0791
   16loPI    C2  242  10.049   8.183  10.189 -0.0780 -0.0530 -0.2821
   16loPI    C3  243  10.177   7.808  10.241  0.0105  0.0267  0.1022
   16loPI   PO4  244  10.278   8.148   9.752 -0.0122  0.1753  0.0339
   16loPI   GL1  245  10.174   8.593   9.561  0.1551  0.2139 -0.1830
   16loPI   GL2  246  10.341   8.597   9.392  0.1178  0.2427 -0.2785
   16loPI   C1A  247   9.835   8.473   9.272  0.0715  0.2307 -0.0809
   16loPI   C2A  248   9.815   8.344   8.867  0.2129  0.0005 -0.0748
   16loPI   C3A  249   9.842   8.136   8.405 -0.0236  0.4017 -0.1868
   16loPI   C4A  250   9.919   8.186   8.002  0.1343  0.0741 -0.0874
   16loPI   C5A  251   9.822   8.341   7.602 -0.2866 -0.0331  0.3875
   16loPI   C6A  252   9.967   8.161   7.256 -0.0014 -0.1875 -0.0436
   16loPI   C1B  253  10.352   8.481   8.936 -0.1471 -0.0064 -0.0158
   16loPI   C2B  254  10.527   8.649   8.588  0.1715 -0.5850  0.3337
   16loPI   C3B  255  10.351   8.581   8.080 -0.0386  0.1512 -0.1511
   16loPI   C4B  256  10.306   8.489   7.675  0.0190  0.2290 -0.1889
   17loPI    C1  257  12.657  17.546   9.266 -0.0190 -0.2618 -0.0894
   17loPI    C2  258  13.054  17.570   9.303 -0.0238 -0.4756  0.1250
   17loPI    C3  259  12.822  17.589   9.628 -0.2228  0.1520 -0.0393
   17loPI   PO4  260  12.719  17.340   9.045  0.0603  0.4091 -0.1737
   17loPI   GL1  261  12.506  17.281   8.593 -0.1845 -0.1612  0.0040
   17loPI   GL2  262  12.756  17.062   8.579 -0.1311 -0.1601  0.1070
   17loPI   C1A  263  12.619  17.337   8.193  0.0832 -0.5580  0.1833
   17loPI   C2A  264  12.561  17.296   7.754 -0.1677  0.0982  0.0532
   17loPI   C3A  265  12.425  17.540   7.449 -0.0021  0.3594  0.2335
   17loPI   C4A  266  12.305  17.633   6.979 -0.0325  0.0393 -0.0689
   17loPI   C5A  267  12.075  17.867   6.765 -0.1975  0.0750  0.2264
   17loPI   C6A  268  11.939  18.181   6.437  0.1923 -0.1212  0.1721
   17loPI   C1B  269  12.767  16.915   8.098 -0.0808 -0.0250  0.0550
   17loPI   C2B  270  12.677  16.817   7.746 -0.1012 -0.2106  0.1510
   17loPI   C3B  271  12.566  16.895   7.347 -0.2623 -0.1689 -0.0345
   17loPI   C4B  272  12.294  17.141   7.123  0.1680  0.2461 -0.0856
   18loPI    C1  273   3.128  16.446   9.729  0.0864 -0.0052  0.3408
   18loPI    C2  274   3.130  16.049   9.780  0.0878 -0.0957 -0.2789
   18loPI    C3  275   3.452  16.265   9.879  0.0610 -0.2326  0.1283
   18loPI   PO4  276   3.006  16.449   9.450  0.0479  0.0671  0.1624
   18loPI   GL1  277   2.997  16.179   9.165  0.0173 -0.1782  0.2051
   18loPI   GL2  278   2.678  16.091   8.962 -0.0960 -0.0736  0.0816
   18loPI   C1A  279   3.171  16.201   8.786 -0.1390  0.0619 -0.1171
   18loPI   C2A  280   3.273  16.263   8.294  0.1481 -0.1819 -0.0645
   18loPI   C3A  281   3.559  16.216   7.944  0.3418 -0.2179  0.1272
   18loPI   C4A  282   3.569  15.928   7.584  0.2917  0.1743  0.1252
   18loPI   C5A  283   3.762  15.994   7.240  0.0016 -0.3964  0.1571
   18loPI   C6A  284   4.213  16.050   7.181  0.0163  0.0863  0.3111
   18loPI   C1B  285   2.701  16.307   8.595  0.0228  0.3057  0.0747
   18loPI   C2B  286   2.346  16.487   8.355 -0.0289  0.0318 -0.1168
   18loPI   C3B  287   2.087  16.527   8.005  0.3880  0.1934  0.1626
   18loPI   C4B  288   1.660  16.479   7.745 -0.1254 -0.2864  0.0078
   19loPI    C1  289   5.777   2.024   9.049  0.1727  0.2342 -0.0619
   19loPI    C2  290   5.533   1.907   9.344  0.0977  0.0049 -0.2118
   19loPI    C3  291   5.905   2.028   9.428  0.0318  0.0720 -0.0112
   19loPI   PO4  292   5.681   1.815   8.861 -0.0650 -0.0876 -0.0958
   19loPI   GL1  293   5.429   1.772   8.480  0.0402  0.0540  0.1094
   19loPI   GL2  294   5.255   1.501   8.678  0.1283  0.0457  0.1067
   19loPI   C1A  295   5.410   1.932   8.010 -0.1585  0.1046 -0.0990
   19loPI   C2A  296   5.528   2.092   7.569 -0.0054  0.1369  0.7317
   19loPI   C3A  297   5.411   2.130   7.122 -0.3843  0.1969 -0.0369
   19loPI   C4A  298   5.241   2.236   6.634  0.1831 -0.0316  0.3188
   19loPI   C5A  299   5.002   1.941   6.383 -0.1700 -0.0960  0.0074
   19loPI   C6A  300   4.817   1.530   6.331  0.1431  0.4043  0.1204
   19loPI   C1B  301   5.297   1.367   8.240 -0.1108  0.0388 -0.1463
   19loPI   C2B  302   5.314   1.475   7.758  0.0801 -0.1561 -0.3404
   19loPI   C3B  303   5.327   1.581   7.432 -0.1734 -0.0007 -0.0403
   19loPI   C4B  304   5.274   1.660   7.029 -0.0165  0.1017  0.0046
   20loPI    C1  305  15.528   7.192  10.236 -0.0639 -0.0347  0.0862
   20loPI    C2  306  15.335   6.858  10.340  0.0455 -0.1255  0.0007
   20loPI    C3  307  15.444   7.121  10.621 -0.1050 -0.1259  0.0607
   20loPI   PO4  308  15.650   7.145  10.056 -0.1524 -0.2206  0.0733
   20loPI   GL1  309  15.429   7.303   9.616  0.0445 -0.4719  0.0475
   20loPI   GL2  310  15.300   7.577   9.512 -0.1262  0.0725 -0.2499
   20loPI   C1A  311  15.375   7.207   9.117  0.0745 -0.2406 -0.3995
   20loPI   C2A  312  15.418   7.067   8.591 -0.1045 -0.0776 -0.0531
   20loPI   C3A  313  15.733   7.000   8.255 -0.2369  0.0641 -0.0048
   20loPI   C4A  314  16.094   7.010   8.035 -0.0557 -0.0871 -0.3927
   20loPI   C5A  315  15.997   7.101   7.718  0.3555 -0.3650  0.3265
   20loPI   C6A  316  16.088   7.449   7.559 -0.2090 -0.3686  0.1988
   20loPI   C1B  317  15.256   7.666   9.068 -0.1557  0.1307  0.1364
   20loPI   C2B  318  15.274   7.725   8.652  0.2011 -0.0767 -0.0208
   20loPI   C3B  319  15.174   7.542   8.281  0.2618  0.2119  0.0622
   20loPI   C4B  320  15.215   7.585   7.935  0.0751 -0.2899 -0.1139
   21loPI    C1  321   3.225  18.897   9.639  0.1059 -0.2311  0.0909
   21loPI    C2  322   3.504  18.878   9.925  0.3256  0.1718 -0.0884
   21loPI    C3  323   3.146  19.037  10.006  0.3081  0.0792  0.0194
   21loPI   PO4  324   3.392  18.885   9.441 -0.0310 -0.2076  0.0313
   21loPI   GL1  325   3.255  18.852   9.009  0.0866  0.1896  0.0550
   21loPI   GL2  326   3.613  18.793   8.996 -0.0240  0.0073  0.1547
   21loPI   C1A  327   3.275  18.723   8.522 -0.2623  0.2307  0.2248
   21loPI   C2A  328   3.369  18.645   8.077  0.0234  0.0028  0.1841
   21loPI   C3A  329   3.157  18.815   7.699  0.1061 -0.1069 -0.2451
   21loPI   C4A  330   3.184  19.143   7.373  0.0712 -0.0701  0.1454
   21loPI   C5A  331   3.169  18.915   6.929  0.1599  0.1239 -0.2097
   21loPI   C6A  332   3.059  18.809   6.477  0.1094 -0.3122 -0.2811
   21loPI   C1B  333   3.712  18.473   8.547  0.1425 -0.0852 -0.1527
   21loPI   C2B  334   3.546  18.222   8.306  0.0798  0.3381 -0.0480
   21loPI   C3B  335   3.320  18.176   7.923  0.0445 -0.2133 -0.0640
   21loPI   C4B  336   3.035  18.326   7.595 -0.1624 -0.2399 -0.2490
   22loPI    C1  337   7.637   7.388   9.875  0.1192 -0.0961  0.0888
   22loPI    C2  338   7.748   7.772   9.866  0.0070 -0.0660 -0.0483
   22loPI    C3  339   7.613   7.610  10.206 -0.2105  0.0926 -0.0567
   22loPI   PO4  340   7.787   7.244   9.750 -0.0605  0.0553  0.0075
   22loPI   GL1  341   7.970   7.395   9.360  0.0521  0.0231 -0.0472
   22loPI   GL2  342   7.834   7.688   9.386  0.3691  0.0760  0.2805
   22loPI   C1A  343   7.759   7.573   8.919 -0.1656  0.1173  0.2529
   22loPI   C2A  344   7.720   7.685   8.514  0.2240 -0.0927 -0.0432
   22loPI   C3A  345   7.715   7.621   8.195 -0.2439 -0.0148  0.0533
   22loPI   C4A  346   7.727   7.568   7.816  0.1147  0.1892 -0.0874
   22loPI   C5A  347   7.566   7.629   7.461  0.0900  0.2306  0.1574
   22loPI   C6A  348   7.177   7.480   7.157  0.0893  0.1160 -0.1738
   22loPI   C1B  349   7.843   8.079   9.000  0.1954 -0.0912 -0.1477
   22loPI   C2B  350   7.627   8.213   8.734  0.1223  0.5697 -0.0721
   22loPI   C3B  351   7.530   8.094   8.266  0.2391  0.2592  0.3507
   22loPI   C4B  352   7.320   7.851   7.971  0.0794  0.3241  0.1032
   23loPI    C1  353   9.780   6.116   9.996  0.0579  0.0857  0.0552
   23loPI    C2  354  10.114   5.905  10.056 -0.0448 -0.1256 -0.1035
   23loPI    C3  355   9.849   5.949  10.352 -0.0152 -0.2065 -0.0648
   23loPI   PO4  356   9.687   6.149   9.720 -0.0658 -0.0332 -0.0365
   23loPI   GL1  357   9.838   6.044   9.346  0.0810  0.3601  0.3757
   23loPI   GL2  358   9.409   5.982   9.351 -0.0941 -0.0509 -0.2102
   23loPI   C1A  359   9.613   6.221   9.000  0.2150 -0.0128 -0.0868
   23loPI   C2A  360   9.576   6.215   8.523  0.0875 -0.3188  0.2324
   23loPI   C3A  361   9.533   6.181   8.200 -0.3416 -0.1485  0.0237
   23loPI   C4A  362   9.526   6.446   7.956 -0.1477 -0.1866 -0.0082
   23loPI   C5A  363   9.777   6.396   7.559 -0.0671 -0.1004 -0.1472
   23loPI   C6A  364   9.861   5.987   7.293 -0.3080 -0.0190 -0.1012
   23loPI   C1B  365   9.347   5.760   8.990  0.2924 -0.1499 -0.2131
   23loPI   C2B  366   9.445   5.746   8.546 -0.1981  0.2830 -0.0416
   23loPI   C3B  367   9.346   5.695   8.118 -0.1296 -0.3339  0.0105
   23loPI   C4B  368   9.367   5.449   7.680 -0.0179  0.5247  0.2063
   24loPI    C1  369  12.762   7.329   9.666  0.2939 -0.0598  0.2849
   24loPI    C2  370  12.484   7.603   9.754  0.0638 -0.1009 -0.2707
   24loPI    C3  371  12.537   7.287   9.994 -0.1358  0.0791  0.0165
   24loPI   PO4  372  12.976   7.454   9.584  0.0478  0.4301  0.2970
   24loPI   GL1  373  13.241   7.647   9.353 -0.0727 -0.1912 -0.3329
   24loPI   GL2  374  13.324   7.564   9.107  0.1624  0.1032  0.1165
   24loPI   C1A  375  13.148   7.119   9.053 -0.1005 -0.0622 -0.3522
   24loPI   C2A  376  13.028   7.045   8.765 -0.0447 -0.2922 -0.1421
   24loPI   C3A  377  12.972   7.170   8.337  0.0766  0.1986 -0.2788
   24loPI   C4A  378  12.936   6.911   7.878 -0.1153  0.0809  0.3126
   24loPI   C5A  379  12.586   6.810   7.539  0.0437  0.1139 -0.3783
   24loPI   C6A  380  12.153   6.784   7.516 -0.1864  0.3252 -0.0465
   24loPI   C1B  381  13.107   7.576   8.702  0.1062 -0.1228  0.0084
   24loPI   C2B  382  13.346   7.621   8.336  0.1570  0.0095  0.1634
   24loPI   C3B  383  13.456   7.702   8.017  0.0869  0.0556  0.0015
   24loPI   C4B  384  13.820   7.482   8.006  0.1132  0.2205 -0.0941
   25loPI    C1  385  10.672   0.207   9.350  0.1762  0.1693 -0.2922
   25loPI    C2  386  10.860  -0.137   9.431  0.1886  0.2583  0.0782
   25loPI    C3  387  10.463  -0.111   9.476  0.1240  0.1668 -0.3843
   25loPI   PO4  388  10.896   0.290   9.118 -0.3306  0.1976  0.2645
   25loPI   GL1  389  10.979   0.265   8.683 -0.2536  0.2440 -0.1296
   25loPI   GL2  390  10.781   0.080   8.596  0.0581  0.3249  0.2245
   25loPI   C1A  391  10.857   0.507   8.282 -0.0111 -0.1242  0.0487
   25loPI   C2A  392  10.885   0.555   7.790  0.0351  0.1764 -0.1230
   25loPI   C3A  393  10.646   0.631   7.304 -0.0895 -0.0273 -0.2151
   25loPI   C4A  394  10.494   0.593   6.891  0.0919 -0.0956  0.1204
   25loPI   C5A  395  10.195   0.467   6.598  0.3048  0.3241  0.2446
   25loPI   C6A  396   9.769   0.542   6.445 -0.0608  0.0285  0.0769
   25loPI   C1B  397  10.448   0.088   8.294 -0.0082  0.2071  0.2170
   25loPI   C2B  398  10.407  -0.102   7.919 -0.0626  0.1044 -0.4783
   25loPI   C3B  399  10.244  -0.433   7.808  0.4129  0.1380 -0.1554
   25loPI   C4B  400  10.561  -0.778   7.971 -0.0037 -0.0097 -0.1105
   26loPI    C1  401   7.912   1.051   9.412  0.0327  0.0875  0.0595
   26loPI    C2  402   7.715   0.809   9.663  0.0210  0.1175  0.0792
   26loPI    C3  403   8.020   1.032   9.797  0.1022  0.0322  0.0376
   26loPI   PO4  404   7.789   0.914   9.171 -0.0224  0.2271  0.0999
   26loPI   GL1  405   7.834   0.977   8.773  0.1172  0.0434 -0.1066
   26loPI   GL2  406   8.117   0.823   8.685 -0.3398  0.1050  0.3534
   26loPI   C1A  407   7.923   1.292   8.521 -0.2389  0.4907  0.0524
   26loPI   C2A  408   7.977   1.293   8.022  0.1798  0.3455 -0.0224
   26loPI   C3A  409   7.800   1.634   7.717  0.3059 -0.1034 -0.1582
   26loPI   C4A  410   7.691   1.766   7.174 -0.0654  0.0182  0.1983
   26loPI   C5A  411   7.562   1.487   6.823 -0.0657  0.0520  0.0009
   26loPI   C6A  412   8.037   1.293   6.554  0.0070 -0.0243  0.0453
   26loPI   C1B  413   8.110   0.755   8.303 -0.1819 -0.1852  0.1749
   26loPI   C2B  414   8.200   0.841   7.955  0.1222  0.1281 -0.1869
   26loPI   C3B  415   8.188   1.006   7.582 -0.3264  0.0574 -0.0854
   26loPI   C4B  416   8.100   1.416   7.375 -0.0490 -0.2798  0.0638
   27loPI    C1  417  11.460  19.009   9.673  0.1302  0.1644  0.0829
   27loPI    C2  418  11.165  19.169   9.892 -0.0592 -0.2157  0.1150
   27loPI    C3  419  11.414  18.902  10.055  0.3157  0.1092  0.0904
   27loPI   PO4  420  11.333  18.962   9.433 -0.0904 -0.1148  0.0754
   27loPI   GL1  421  11.240  19.192   9.051  0.1947 -0.0858  0.0589
   27loPI   GL2  422  11.396  19.468   9.129 -0.0170  0.0967 -0.3190
   27loPI   C1A  423  11.180  19.101   8.692  0.1660 -0.1653  0.0118
   27loPI   C2A  424  11.229  19.350   8.264  0.0490 -0.0391 -0.2166
   27loPI   C3A  425  10.965  19.391   8.000 -0.1115  0.2948  0.2020
   27loPI   C4A  426  10.737  19.482   7.575 -0.1200 -0.2670  0.0815
   27loPI   C5A  427  10.411  19.197   7.465 -0.0930 -0.1727 -0.0067
   27loPI   C6A  428  10.266  18.909   7.176 -0.0334  0.1525 -0.1051
   27loPI   C1B  429  11.464  19.489   8.667 -0.1310  0.0290 -0.0685
   27loPI   C2B  430  11.515  19.755   8.287 -0.4147 -0.0366  0.0670
   27loPI   C3B  431  11.361  19.759   7.987 -0.0096  0.2873  0.0935
   27loPI   C4B  432  11.280  19.546   7.563  0.2556  0.1954 -0.1033
   28loPI    C1  433   1.638  13.279  10.282  0.2554  0.1359 -0.0132
   28loPI    C2  434   1.367  13.571  10.248  0.1359 -0.0115 -0.3774
   28loPI    C3  435   1.608  13.559  10.567 -0.2586  0.1418 -0.0630
   28loPI   PO4  436   1.629  13.248   9.990  0.0950  0.3040  0.0076
   28loPI   GL1  437   1.913  13.190   9.621  0.0968 -0.1586 -0.0853
   28loPI   GL2  438   1.771  13.493   9.570  0.2241 -0.2091  0.0976
   28loPI   C1A  439   1.574  13.121   9.300  0.3798 -0.0027 -0.2100
   28loPI   C2A  440   1.530  13.250   8.955  0.1814  0.0452  0.1395
   28loPI   C3A  441   1.478  13.244   8.548 -0.0293 -0.3545  0.1229
   28loPI   C4A  442   1.457  13.054   8.078 -0.0299 -0.1486  0.2695
   28loPI   C5A  443   1.576  13.226   7.649 -0.4159  0.2028 -0.0369
   28loPI   C6A  444   1.640  13.518   7.343 -0.0548 -0.0135 -0.2295
   28loPI   C1B  445   1.886  13.526   9.087 -0.0965  0.2681  0.4577
   28loPI   C2B  446   1.862  13.541   8.603  0.0382 -0.1409 -0.3443
   28loPI   C3B  447   1.542  13.532   8.163 -0.0632  0.0037 -0.1069
   28loPI   C4B  448   1.315  13.697   7.686  0.3285  0.3825  0.0630
   29loPI    C1  449   8.800  18.996   9.719  0.1814  0.2185  0.0403
   29loPI    C2  450   8.554  19.083  10.022 -0.0137  0.2245 -0.1185
   29loPI    C3  451   8.647  18.702   9.943  0.0695  0.2255 -0.0267
   29loPI   PO4  452   8.724  19.156   9.550  0.1300  0.3103  0.1391
   29loPI   GL1  453   8.683  19.127   9.114 -0.2735  0.1885 -0.0028
   29loPI   GL2  454   8.335  18.920   9.003 -0.1401 -0.1662  0.3004
   29loPI   C1A  455   8.822  18.973   8.792  0.0980 -0.2567  0.0276
   29loPI   C2A  456   8.748  18.902   8.416  0.0347 -0.1532 -0.2572
   29loPI   C3A  457   8.723  18.701   8.059  0.0315 -0.2868 -0.0280
   29loPI   C4A  458   8.569  18.648   7.686 -0.2160 -0.4801  0.2077
   29loPI   C5A  459   8.535  18.759   7.170 -0.0562  0.0421  0.4152
   29loPI   C6A  460   8.257  19.060   7.022 -0.0721 -0.0419  0.2262
   29loPI   C1B  461   8.234  18.491   8.802  0.0726  0.2059  0.2505
   29loPI   C2B  462   8.218  18.241   8.482 -0.4927 -0.0116 -0.2935
   29loPI   C3B  463   8.247  17.868   8.068  0.0234  0.0866  0.3836
   29loPI   C4B  464   8.271  17.685   7.637 -0.0466 -0.1797 -0.2855
   30loPI    C1  465  16.202  12.689  10.086  0.1103 -0.0101  0.0523
   30loPI    C2  466  15.974  12.880  10.354  0.1688 -0.0697  0.1452
   30loPI    C3  467  16.356  12.798  10.439  0.1231 -0.2964  0.1371
   30loPI   PO4  468  16.090  12.728   9.868 -0.0466 -0.1519 -0.0156
   30loPI   GL1  469  16.015  12.643   9.371 -0.0154  0.1029 -0.0008
   30loPI   GL2  470  15.975  12.914   9.411 -0.0889  0.0128  0.2193
   30loPI   C1A  471  16.102  12.732   8.942 -0.0664 -0.3389 -0.2162
   30loPI   C2A  472  16.323  12.754   8.458  0.2746  0.2835 -0.2195
   30loPI   C3A  473  16.309  12.481   8.069  0.0559  0.2331 -0.2790
   30loPI   C4A  474  16.710  12.298   7.917  0.2081 -0.3549  0.0948
   30loPI   C5A  475  17.039  12.476   7.852 -0.3893 -0.0032  0.1061
   30loPI   C6A  476  17.405  12.703   8.162 -0.0094  0.2180 -0.0936
   30loPI   C1B  477  15.816  13.209   8.998 -0.0066 -0.0036  0.0110
   30loPI   C2B  478  15.727  13.060   8.570 -0.0144  0.0095 -0.0050
   30loPI   C3B  479  15.603  13.073   8.075 -0.1529  0.1267 -0.2294
   30loPI   C4B  480  15.236  12.990   7.715 -0.0773  0.1059  0.1576
   31loPI    C1  481   6.246   8.031  10.035  0.0634 -0.0327 -0.0448
   31loPI    C2  482   6.504   8.229  10.268 -0.1774  0.1161  0.0995
   31loPI    C3  483   6.381   7.863  10.372 -0.1182  0.0942  0.0929
   31loPI   PO4  484   6.081   8.248   9.926  0.2144 -0.1814 -0.2469
   31loPI   GL1  485   5.949   8.199   9.501  0.0718  0.0820 -0.2304
   31loPI   GL2  486   6.147   8.494   9.475  0.0652  0.2160 -0.1916
   31loPI   C1A  487   5.589   8.291   9.220 -0.1299 -0.1812  0.1424
   31loPI   C2A  488   5.524   8.448   8.914 -0.4138 -0.0666 -0.0249
   31loPI   C3A  489   5.428   8.412   8.548  0.1703  0.4093 -0.1728
   31loPI   C4A  490   5.205   8.574   8.215  0.2717 -0.3580  0.2332
   31loPI   C5A  491   5.118   8.576   7.785 -0.1464 -0.1727 -0.5066
   31loPI   C6A  492   5.273   8.945   7.615  0.1211 -0.2298 -0.0297
   31loPI   C1B  493   6.015   8.584   9.116  0.2100  0.2572 -0.2799
   31loPI   C2B  494   6.013   8.496   8.680 -0.2359 -0.1975  0.1299
   31loPI   C3B  495   5.860   8.437   8.287  0.2405  0.0928 -0.0833
   31loPI   C4B  496   5.576   8.257   8.062  0.2120 -0.0901 -0.0726
   32loPI    C1  497  14.476  10.186  10.082  0.1689 -0.0439 -0.0400
   32loPI    C2  498  14.542   9.905  10.360 -0.0430  0.0252  0.0822
   32loPI    C3  499  14.393  10.261  10.466 -0.3519 -0.0306 -0.1479
   32loPI   PO4  500  14.762  10.193   9.934  0.0793  0.0760  0.1125
   32loPI   GL1  501  14.705  10.169   9.421 -0.3366 -0.0670  0.1712
   32loPI   GL2  502  14.743  10.457   9.414  0.4267 -0.1287  0.2042
   32loPI   C1A  503  14.639  10.141   8.921 -0.1756  0.2756  0.2123
   32loPI   C2A  504  14.816  10.103   8.552  0.0032  0.3311  0.2187
   32loPI   C3A  505  14.909   9.942   8.102 -0.1433 -0.1571  0.5072
   32loPI   C4A  506  14.725   9.790   7.734  0.0550  0.0936  0.1190
   32loPI   C5A  507  14.562   9.825   7.325  0.2674 -0.0881  0.0587
   32loPI   C6A  508  14.519   9.764   6.985  0.0612  0.1411  0.0700
   32loPI   C1B  509  14.988  10.707   9.237  0.1079 -0.2020  0.1961
   32loPI   C2B  510  14.999  10.906   8.874 -0.2446 -0.1521  0.2048
   32loPI   C3B  511  15.136  10.976   8.493  0.1709 -0.0732 -0.3283
   32loPI   C4B  512  14.963  10.981   8.159  0.0188  0.0053  0.2093
   33loPI    C1  513  10.044  14.697   9.604  0.4800  0.1907 -0.0860
   33loPI    C2  514  10.324  14.707   9.890  0.2305 -0.0013  0.1708
   33loPI    C3  515  10.030  14.979   9.887  0.5085  0.3066 -0.1991
   33loPI   PO4  516  10.133  14.618   9.282  0.0045 -0.1176  0.0948
   33loPI   GL1  517  10.055  14.562   8.875 -0.0851 -0.0644  0.1646
   33loPI   GL2  518  10.160  14.735   8.719 -0.4467 -0.0630  0.0597
   33loPI   C1A  519  10.392  14.295   8.662  0.0716 -0.0177 -0.0228
   33loPI   C2A  520  10.297  14.249   8.289  0.4031 -0.2727  0.3421
   33loPI   C3A  521  10.473  14.229   7.885 -0.2934 -0.0332  0.2072
   33loPI   C4A  522  10.799  14.213   7.469 -0.1261  0.0738 -0.0534
   33loPI   C5A  523  10.877  14.075   7.027  0.1210  0.0652  0.0610
   33loPI   C6A  524  11.238  13.875   6.735  0.0120 -0.0588 -0.1091
   33loPI   C1B  525  10.068  14.674   8.279 -0.0504  0.2400  0.0909
   33loPI   C2B  526  10.154  14.649   7.891 -0.0448 -0.0835 -0.1397
   33loPI   C3B  527   9.894  14.603   7.507  0.0788 -0.0539  0.1908
   33loPI   C4B  528  10.012  14.543   7.034 -0.0821 -0.0405 -0.1711
   34loPI    C1  529  16.949   3.082  10.039  0.1481  0.3308 -0.1332
   34loPI    C2  530  16.671   2.924  10.280  0.2769 -0.1978 -0.3174
   34loPI    C3  531  16.908   3.218  10.413 -0.1687  0.0572 -0.0631
   34loPI   PO4  532  17.045   2.931   9.937  0.0720 -0.3538 -0.2952
   34loPI   GL1  533  16.991   2.749   9.499  0.1669  0.0049  0.1318
   34loPI   GL2  534  17.181   2.632   9.591 -0.0351 -0.2380  0.2347
   34loPI   C1A  535  16.864   2.810   9.092  0.1317  0.1578  0.4053
   34loPI   C2A  536  16.919   2.666   8.690  0.0645 -0.1806  0.3606
   34loPI   C3A  537  16.651   2.600   8.439 -0.0203 -0.1771  0.0979
   34loPI   C4A  538  16.674   2.802   7.991  0.3459 -0.1958 -0.1831
   34loPI   C5A  539  16.935   2.785   7.602  0.0165 -0.1986  0.0861
   34loPI   C6A  540  17.051   2.368   7.432 -0.1247 -0.0514 -0.1153
   34loPI   C1B  541  17.363   2.503   9.225  0.0910  0.2096 -0.1339
   34loPI   C2B  542  17.404   2.493   8.813 -0.2194 -0.0042 -0.1525
   34loPI   C3B  543  17.290   2.320   8.419  0.2780  0.0421  0.2355
   34loPI   C4B  544  17.051   2.460   8.033  0.2558  0.1769 -0.1738
   35loPI    C1  545   3.030   9.281  10.093 -0.0314 -0.2313 -0.0549
   35loPI    C2  546   3.339   9.031  10.138 -0.2146 -0.4126  0.2272
   35loPI    C3  547   3.175   9.206  10.458 -0.1709 -0.0282  0.0443
   35loPI   PO4  548   3.068   9.298   9.835  0.2085 -0.2385  0.0519
   35loPI   GL1  549   2.919   9.142   9.453 -0.1770 -0.3413 -0.3253
   35loPI   GL2  550   2.815   8.906   9.304  0.0495 -0.1432 -0.2144
   35loPI   C1A  551   2.452   9.280   9.436  0.0512 -0.0121  0.1388
   35loPI   C2A  552   2.369   9.211   9.065 -0.0287 -0.1699  0.0620
   35loPI   C3A  553   2.353   9.245   8.646 -0.0703 -0.0275 -0.1040
   35loPI   C4A  554   2.160   9.217   8.360  0.0925  0.0778  0.0078
   35loPI   C5A  555   2.151   8.938   8.031 -0.0295 -0.2275 -0.0337
   35loPI   C6A  556   2.295   8.748   7.658  0.0563 -0.3765  0.2556
   35loPI   C1B  557   2.818   9.156   8.868  0.2143  0.1356 -0.1447
   35loPI   C2B  558   2.773   9.280   8.382 -0.1731  0.2515  0.1098
   35loPI   C3B  559   2.739   9.107   7.906 -0.0310 -0.0636 -0.0409
   35loPI   C4B  560   2.804   8.984   7.583  0.1546  0.0130 -0.1996
   36loPI    C1  561   2.071   2.357   9.366 -0.0685  0.1812  0.3154
   36loPI    C2  562   2.171   2.042   9.591 -0.1908  0.0018  0.1225
   36loPI    C3  563   2.448   2.312   9.491 -0.0307 -0.1725  0.0896
   36loPI   PO4  564   1.982   2.241   9.159 -0.4093  0.3301 -0.2561
   36loPI   GL1  565   1.988   2.468   8.769  0.1027 -0.0787  0.1192
   36loPI   GL2  566   1.739   2.585   8.847  0.2028  0.1392 -0.1071
   36loPI   C1A  567   2.195   2.752   8.470  0.1253 -0.0774 -0.2501
   36loPI   C2A  568   2.310   2.959   8.068  0.2452  0.1024  0.0047
   36loPI   C3A  569   2.212   2.778   7.681 -0.1441  0.0968  0.3465
   36loPI   C4A  570   2.383   2.755   7.251 -0.2528  0.0749 -0.3436
   36loPI   C5A  571   2.259   2.495   6.967 -0.2673  0.2188  0.2733
   36loPI   C6A  572   1.963   2.344   6.590  0.1839 -0.0712  0.0833
   36loPI   C1B  573   1.687   2.590   8.390 -0.0176 -0.4476 -0.2799
   36loPI   C2B  574   1.834   2.655   8.096 -0.1244 -0.0523  0.0980
   36loPI   C3B  575   1.663   2.729   7.622 -0.3998  0.2894 -0.0999
   36loPI   C4B  576   1.794   2.554   7.222 -0.1448  0.0803 -0.2992
   37loPI    C1  577   3.334   4.763   9.717 -0.0440 -0.0003 -0.1116
   37loPI    C2  578   3.403   4.935  10.071 -0.0807 -0.1802 -0.0160
   37loPI    C3  579   3.529   4.561  10.002  0.0693 -0.0890 -0.2498
   37loPI   PO4  580   3.457   4.947   9.499  0.0407  0.2167  0.1355
   37loPI   GL1  581   3.454   5.256   9.122 -0.0385  0.2571  0.4535
   37loPI   GL2  582   3.726   5.504   9.280  0.0725 -0.0189  0.0839
   37loPI   C1A  583   3.653   5.366   8.745  0.1845  0.0009 -0.2431
   37loPI   C2A  584   3.604   5.423   8.286  0.0833  0.2222 -0.0596
   37loPI   C3A  585   3.420   5.555   7.907 -0.1509  0.0806 -0.1404
   37loPI   C4A  586   3.366   5.594   7.438  0.0830  0.1412 -0.0844
   37loPI   C5A  587   3.113   5.877   7.204  0.0995 -0.4336 -0.1955
   37loPI   C6A  588   2.789   6.191   7.334 -0.2354  0.1588 -0.0221
   37loPI   C1B  589   3.544   5.764   9.089  0.1653  0.2550 -0.1151
   37loPI   C2B  590   3.459   5.778   8.630  0.1304 -0.1216  0.0044
   37loPI   C3B  591   3.225   5.793   8.388  0.0641  0.0632 -0.1498
   37loPI   C4B  592   3.017   5.945   7.876  0.1319 -0.1883 -0.0582
   38loPI    C1  593   4.424  12.108  10.310  0.2896  0.1900  0.0275
   38loPI    C2  594   4.550  11.804  10.536  0.2937  0.1535 -0.0236
   38loPI    C3  595   4.529  12.172  10.691  0.1920  0.1098  0.0682
   38loPI   PO4  596   4.625  12.190  10.049  0.2381  0.0905  0.3202
   38loPI   GL1  597   4.599  12.304   9.470 -0.1265  0.2102  0.2072
   38loPI   GL2  598   4.376  11.974   9.474  0.1004  0.6221 -0.2357
   38loPI   C1A  599   4.215  12.303   9.086 -0.1683 -0.0148 -0.1047
   38loPI   C2A  600   4.335  12.109   8.632 -0.0471 -0.1645 -0.1480
   38loPI   C3A  601   4.482  12.118   8.167  0.2133 -0.0082  0.1620
   38loPI   C4A  602   4.460  11.684   7.887  0.0161 -0.1284 -0.3787
   38loPI   C5A  603   4.725  11.334   7.781 -0.0670  0.0202 -0.1503
   38loPI   C6A  604   5.002  10.965   7.853  0.0837 -0.3336 -0.0277
   38loPI   C1B  605   4.643  11.828   9.220  0.0444  0.1858 -0.2284
   38loPI   C2B  606   4.903  11.857   8.855 -0.2363  0.1351  0.1917
   38loPI   C3B  607   5.139  11.968   8.554  0.5244 -0.0997  0.5027
   38loPI   C4B  608   5.324  12.008   8.172 -0.0354  0.0838  0.4105
   39loPI    C1  609  10.964   5.548   9.767  0.4125  0.0812 -0.1500
   39loPI    C2  610  11.024   5.922   9.894 -0.2511  0.0872  0.1904
   39loPI    C3  611  11.077   5.615  10.145 -0.0286 -0.0267  0.0077
   39loPI   PO4  612  11.039   5.527   9.583  0.3894 -0.0686  0.2626
   39loPI   GL1  613  11.306   5.760   9.451  0.0720 -0.2274  0.1114
   39loPI   GL2  614  11.681   5.878   9.431  0.1458  0.1167  0.0626
   39loPI   C1A  615  11.389   5.669   8.992  0.1008 -0.1256 -0.2303
   39loPI   C2A  616  11.342   5.658   8.574 -0.0441 -0.0514 -0.1300
   39loPI   C3A  617  11.251   5.510   8.081 -0.1434  0.0042  0.2414
   39loPI   C4A  618  11.037   5.603   7.759  0.0332  0.1688  0.0461
   39loPI   C5A  619  11.035   5.492   7.278  0.0136  0.0252  0.0997
   39loPI   C6A  620  10.688   5.244   7.077 -0.1852 -0.2873  0.0413
   39loPI   C1B  621  12.081   5.691   9.230  0.0956 -0.0597  0.1779
   39loPI   C2B  622  12.254   5.554   8.854  0.2432  0.1095 -0.1395
   39loPI   C3B  623  12.581   5.305   8.787 -0.0841  0.0892  0.1573
   39loPI   C4B  624  12.811   5.204   8.316 -0.2555  0.1207  0.2091
   40loPI    C1  625  18.839  16.077   9.815 -0.1213 -0.1244 -0.0726
   40loPI    C2  626  18.510  16.222   9.640  0.1032  0.2427 -0.2035
   40loPI    C3  627  18.524  16.182  10.038 -0.2732 -0.2427 -0.2284
   40loPI   PO4  628  19.003  15.943   9.619 -0.0956 -0.2182  0.2837
   40loPI   GL1  629  19.299  15.993   9.411  0.3065 -0.2375 -0.0445
   40loPI   GL2  630  19.142  16.301   9.343 -0.2938 -0.0803  0.2465
   40loPI   C1A  631  19.387  15.970   9.034  0.2377  0.1525  0.0394
   40loPI   C2A  632  19.625  16.011   8.624 -0.0424  0.2850  0.0919
   40loPI   C3A  633  19.487  16.041   8.210 -0.0531 -0.0713 -0.2160
   40loPI   C4A  634  19.619  16.002   7.792  0.2334  0.2411  0.3237
   40loPI   C5A  635  19.814  16.163   7.411 -0.1182 -0.0676 -0.1861
   40loPI   C6A  636  19.927  16.125   7.089 -0.3193  0.2095 -0.0830
   40loPI   C1B  637  19.150  16.426   9.020 -0.1391 -0.0216 -0.4023
   40loPI   C2B  638  19.278  16.363   8.676 -0.0292 -0.0956 -0.0033
   40loPI   C3B  639  19.174  16.430   8.274  0.0299 -0.1880 -0.1958
   40loPI   C4B  640  19.291  16.459   7.923 -0.0192  0.0896 -0.2304
   41loPI    C1  641  11.050  18.732   9.061 -0.1737 -0.1278 -0.2241
   41loPI    C2  642  10.661  18.798   9.125 -0.1445 -0.1496 -0.0181
   41loPI    C3  643  10.901  18.704   9.431  0.0648  0.0767 -0.1093
   41loPI   PO4  644  10.991  18.467   8.835 -0.3770 -0.0451 -0.0930
   41loPI   GL1  645  11.250  18.284   8.499  0.0692  0.0808  0.1677
   41loPI   GL2  646  10.977  18.193   8.304  0.2215  0.1394  0.0458
   41loPI   C1A  647  11.215  18.576   8.173  0.1685  0.3394 -0.0468
   41loPI   C2A  648  11.235  18.968   7.895  0.0990  0.6824 -0.2112
   41loPI   C3A  649  11.555  19.112   7.610  0.1021 -0.2393 -0.0229
   41loPI   C4A  650  11.658  19.302   7.223 -0.0323 -0.0558 -0.2480
   41loPI   C5A  651  12.007  19.487   7.060 -0.1666 -0.1702 -0.2602
   41loPI   C6A  652  12.412  19.549   6.849  0.0161  0.1791 -0.3290
   41loPI   C1B  653  11.030  18.271   7.850 -0.0452 -0.0008 -0.0388
   41loPI   C2B  654  10.951  18.617   7.473  0.0828  0.1388 -0.2206
   41loPI   C3B  655  10.728  18.783   7.088 -0.2446  0.0345  0.3370
   41loPI   C4B  656  10.533  18.771   6.728  0.2379 -0.3814 -0.0474
   42loPI    C1  657   9.544  13.327   9.586  0.0498 -0.0888 -0.0795
   42loPI    C2  658   9.287  13.612   9.700  0.1128  0.0347 -0.2435
   42loPI    C3  659   9.616  13.543   9.915 -0.0248 -0.0816 -0.0675
   42loPI   PO4  660   9.612  13.377   9.292  0.3003 -0.2879 -0.2172
   42loPI   GL1  661   9.609  13.578   8.856 -0.0718  0.0489 -0.0610
   42loPI   GL2  662   9.888  13.797   8.822 -0.4298 -0.0725  0.1901
   42loPI   C1A  663   9.828  13.434   8.513 -0.0897  0.1267  0.1491
   42loPI   C2A  664   9.696  13.353   8.080  0.0716  0.0825 -0.0135
   42loPI   C3A  665   9.792  13.280   7.672 -0.1299  0.2580 -0.0341
   42loPI   C4A  666   9.736  13.224   7.209 -0.0889 -0.0322  0.3594
   42loPI   C5A  667  10.031  13.087   6.952 -0.0978 -0.2736  0.0487
   42loPI   C6A  668  10.363  13.023   6.657  0.0734 -0.1280 -0.2790
   42loPI   C1B  669   9.890  13.983   8.445 -0.0853  0.1124  0.1671
   42loPI   C2B  670   9.909  13.944   7.957  0.5771 -0.1495  0.1708
   42loPI   C3B  671  10.146  13.923   7.653  0.0066  0.1408 -0.0959
   42loPI   C4B  672  10.312  14.275   7.407 -0.1769 -0.1050 -0.1956
   43loPI    C1  673  16.606  16.153  10.002  0.0044 -0.3932  0.0019
   43loPI    C2  674  16.275  15.963   9.883  0.0735 -0.4862 -0.0430
   43loPI    C3  675  16.421  15.899  10.250 -0.3683  0.1047  0.2541
   43loPI   PO4  676  16.549  16.381   9.784 -0.0640 -0.3035 -0.1780
   43loPI   GL1  677  16.756  16.546   9.513 -0.0751  0.1718 -0.3720
   43loPI   GL2  678  16.684  16.906   9.452 -0.0007  0.1829  0.0001
   43loPI   C1A  679  16.746  16.719   9.044 -0.0234  0.1971  0.0592
   43loPI   C2A  680  16.582  16.680   8.643  0.0950 -0.0688  0.0741
   43loPI   C3A  681  16.619  16.526   8.262 -0.1498 -0.2629 -0.0261
   43loPI   C4A  682  16.589  16.520   7.916 -0.1285  0.3881  0.1504
   43loPI   C5A  683  16.397  16.290   7.543  0.1757  0.1386  0.0712
   43loPI   C6A  684  16.480  16.255   7.255 -0.0258 -0.0231 -0.0885
   43loPI   C1B  685  16.719  17.221   9.076  0.1372 -0.1453 -0.1281
   43loPI   C2B  686  16.742  17.193   8.587  0.1346 -0.1731 -0.0550
   43loPI   C3B  687  16.601  17.058   8.256 -0.0144 -0.0850  0.1047
   43loPI   C4B  688  16.614  17.051   7.829  0.1634 -0.0590  0.1813
   44loPI    C1  689   8.514   5.626  10.124 -0.3251  0.1382 -0.2676
   44loPI    C2  690   8.464   6.010  10.223 -0.2863  0.0508  0.1083
   44loPI    C3  691   8.643   5.760  10.478 -0.1435 -0.1786 -0.2098
   44loPI   PO4  692   8.493   5.616   9.831 -0.0330  0.0616 -0.3446
   44loPI   GL1  693   8.440   5.538   9.453  0.2223 -0.1428 -0.1638
   44loPI   GL2  694   8.143   5.412   9.262 -0.2277 -0.2459  0.1628
   44loPI   C1A  695   8.524   5.723   9.037 -0.4515 -0.2268 -0.0595
   44loPI   C2A  696   8.417   5.813   8.599  0.2305 -0.3335 -0.0652
   44loPI   C3A  697   8.391   5.774   8.252 -0.0317 -0.3134 -0.3433
   44loPI   C4A  698   8.399   5.734   7.860 -0.3716  0.0843 -0.0220
   44loPI   C5A  699   8.161   5.931   7.481 -0.0493 -0.0632  0.1537
   44loPI   C6A  700   7.957   6.292   7.469  0.0735  0.1485  0.1487
   44loPI   C1B  701   8.049   5.556   8.932  0.0807 -0.2192 -0.2627
   44loPI   C2B  702   8.022   5.537   8.468  0.0962  0.1705  0.0650
   44loPI   C3B  703   8.003   5.474   8.049  0.0994 -0.0824 -0.0015
   44loPI   C4B  704   7.849   5.528   7.676  0.1228  0.0445 -0.0488
   45loPI    C1  705   0.205   9.116  10.636  0.1906 -0.1273  0.0036
   45loPI    C2  706   0.560   9.301  10.627  0.1925 -0.1418 -0.3799
   45loPI    C3  707   0.224   9.509  10.560  0.0947 -0.0682  0.2742
   45loPI   PO4  708   0.321   8.860  10.573 -0.0912  0.0895 -0.0795
   45loPI   GL1  709   0.432   9.032  10.111  0.0011 -0.4050  0.0413
   45loPI   GL2  710   0.181   9.202  10.183  0.0319  0.3120  0.0992
   45loPI   C1A  711   0.500   9.199   9.762  0.1408  0.1550 -0.0468
   45loPI   C2A  712   0.407   9.352   9.280  0.2424  0.5315  0.1414
   45loPI   C3A  713   0.339   9.253   8.925  0.2069  0.4515  0.4584
   45loPI   C4A  714   0.244   9.249   8.435  0.2163 -0.1964  0.1507
   45loPI   C5A  715   0.009   9.220   8.046 -0.0198 -0.1632 -0.3621
   45loPI   C6A  716  -0.310   9.499   7.758 -0.0529  0.4174 -0.3448
   45loPI   C1B  717  -0.004   9.270   9.856 -0.1509  0.1290  0.2938
   45loPI   C2B  718  -0.157   9.517   9.498 -0.1159 -0.0135  0.2550
   45loPI   C3B  719  -0.223   9.656   9.074 -0.0562 -0.0223 -0.0325
   45loPI   C4B  720  -0.616   9.703   8.886  0.0391  0.1435 -0.1392
   46loPI    C1  721   0.938   3.011   9.830  0.1129 -0.1290 -0.0611
   46loPI    C2  722   1.249   3.257   9.783  0.1737 -0.1883  0.0270
   46loPI    C3  723   1.093   3.200  10.146 -0.1304  0.0711 -0.0582
   46loPI   PO4  724   0.723   3.105   9.640  0.1985  0.2375 -0.0753
   46loPI   GL1  725   0.798   3.188   9.188  0.1692 -0.2728 -0.0027
   46loPI   GL2  726   1.000   3.444   9.340  0.1544  0.1770  0.1176
   46loPI   C1A  727   1.016   3.200   8.821 -0.0119 -0.0710 -0.0483
   46loPI   C2A  728   0.961   3.190   8.362 -0.0088  0.0799 -0.0528
   46loPI   C3A  729   0.992   3.051   7.945 -0.2645  0.0849  0.1965
   46loPI   C4A  730   0.819   2.775   7.676  0.1046  0.2215 -0.1642
   46loPI   C5A  731   0.473   2.795   7.369 -0.0814  0.1026 -0.0975
   46loPI   C6A  732   0.405   3.194   7.040  0.2858 -0.1799 -0.3720
   46loPI   C1B  733   1.000   3.717   8.953 -0.1897 -0.0364 -0.0402
   46loPI   C2B  734   0.871   3.695   8.505 -0.0544  0.2566 -0.4503
   46loPI   C3B  735   0.951   3.644   8.115  0.2018  0.2559  0.0310
   46loPI   C4B  736   1.024   3.571   7.629  0.0939  0.2457  0.0331
   47loPI    C1  737  11.470  13.351   9.652  0.0186  0.1275  0.1601
   47loPI    C2  738  11.858  13.375   9.745  0.1257 -0.1300 -0.1973
   47loPI    C3  739  11.619  13.130   9.951  0.1418  0.0570  0.0482
   47loPI   PO4  740  11.436  13.404   9.377  0.1059  0.0696  0.1261
   47loPI   GL1  741  11.291  13.517   8.947 -0.3214  0.1971 -0.0121
   47loPI   GL2  742  11.040  13.652   8.713  0.1396  0.1341  0.0346
   47loPI   C1A  743  11.378  13.151   8.697  0.0748 -0.2489  0.1002
   47loPI   C2A  744  11.511  12.865   8.383  0.0807 -0.0184 -0.0367
   47loPI   C3A  745  11.576  12.616   8.118 -0.2479  0.0337 -0.0439
   47loPI   C4A  746  11.825  12.311   7.846 -0.2906  0.1971 -0.2797
   47loPI   C5A  747  11.987  11.930   7.569 -0.0632 -0.3783 -0.0398
   47loPI   C6A  748  11.891  11.718   7.116 -0.2237 -0.1204 -0.0022
   47loPI   C1B  749  11.004  13.505   8.350  0.0309 -0.0043 -0.1425
   47loPI   C2B  750  11.082  13.464   7.912 -0.3558 -0.1897 -0.0884
   47loPI   C3B  751  11.378  13.457   7.531 -0.1560 -0.3415 -0.1723
   47loPI   C4B  752  11.498  13.480   7.053  0.0710 -0.1371  0.1376
   48loPI    C1  753  14.417  13.581   9.865  0.0847  0.0918  0.2260
   48loPI    C2  754  14.523  13.814  10.173 -0.2739  0.0677  0.3716
   48loPI    C3  755  14.146  13.818  10.038 -0.2032 -0.1803  0.1569
   48loPI   PO4  756  14.581  13.646   9.632 -0.1183 -0.1783  0.0787
   48loPI   GL1  757  14.726  13.581   9.228 -0.2748  0.1067  0.0430
   48loPI   GL2  758  14.958  13.282   9.321  0.1387 -0.4284 -0.1698
   48loPI   C1A  759  14.772  13.742   8.758 -0.0724  0.1164 -0.1469
   48loPI   C2A  760  14.904  13.766   8.310  0.0840 -0.1250 -0.0095
   48loPI   C3A  761  14.753  13.863   7.863  0.2076  0.1451 -0.3580
   48loPI   C4A  762  14.745  14.267   7.868  0.4586 -0.2447  0.1426
   48loPI   C5A  763  14.781  14.657   7.623 -0.1436 -0.1173  0.1001
   48loPI   C6A  764  14.569  14.989   7.323  0.0119 -0.2934 -0.0906
   48loPI   C1B  765  15.231  13.565   9.329  0.0370 -0.2721 -0.0001
   48loPI   C2B  766  15.477  13.721   9.033 -0.4770  0.0027 -0.0660
   48loPI   C3B  767  15.662  13.647   8.649  0.2242 -0.1382  0.0566
   48loPI   C4B  768  15.587  13.708   8.185 -0.2926  0.0471 -0.0446
   49loPI    C1  769   5.327  18.831   9.521  0.1634  0.0549  0.0321
   49loPI    C2  770   5.226  18.647   9.861  0.0643  0.2162  0.0911
   49loPI    C3  771   5.586  18.818   9.825  0.1479  0.0332  0.0444
   49loPI   PO4  772   5.268  18.694   9.300 -0.1633  0.0080 -0.1208
   49loPI   GL1  773   5.335  18.737   8.876 -0.0705  0.4305  0.1613
   49loPI   GL2  774   5.563  18.868   8.823 -0.0921  0.4203  0.2848
   49loPI   C1A  775   5.606  18.363   8.575 -0.3022 -0.0038 -0.3116
   49loPI   C2A  776   5.759  18.386   8.199 -0.0134  0.2127 -0.0269
   49loPI   C3A  777   5.713  18.357   7.817 -0.0877 -0.2616 -0.1072
   49loPI   C4A  778   5.915  18.354   7.466  0.0719  0.1932  0.0510
   49loPI   C5A  779   6.102  18.574   7.152  0.1349 -0.1770  0.0672
   49loPI   C6A  780   6.434  18.855   7.051  0.1666 -0.0259  0.1920
   49loPI   C1B  781   5.539  18.838   8.366  0.0446 -0.1620 -0.1526
   49loPI   C2B  782   5.539  18.855   7.999 -0.0083 -0.0691 -0.5318
   49loPI   C3B  783   5.560  18.784   7.559  0.0247 -0.2201 -0.0759
   49loPI   C4B  784   5.641  18.782   7.075  0.1783 -0.0200  0.1578
   50loPI    C1  785   9.795  17.072   9.135  0.2543 -0.0055 -0.2214
   50loPI    C2  786   9.945  16.719   9.247  0.0471  0.0002  0.0843
   50loPI    C3  787   9.558  16.800   9.308  0.0777  0.2543 -0.0485
   50loPI   PO4  788   9.887  17.109   8.888 -0.0048  0.1382 -0.0558
   50loPI   GL1  789   9.910  16.915   8.527  0.3290  0.1388 -0.2105
   50loPI   GL2  790   9.597  17.034   8.507 -0.1231  0.2905  0.0736
   50loPI   C1A  791  10.067  16.723   8.265 -0.0277 -0.2559  0.0752
   50loPI   C2A  792  10.056  16.616   7.925  0.1796  0.3947  0.3700
   50loPI   C3A  793   9.967  16.565   7.500 -0.0030 -0.0839  0.0445
   50loPI   C4A  794  10.042  16.426   7.021 -0.0625 -0.1025  0.2027
   50loPI   C5A  795  10.123  16.218   6.679  0.0218 -0.1416  0.3400
   50loPI   C6A  796  10.484  15.929   6.519  0.0527 -0.2755 -0.0313
   50loPI   C1B  797   9.535  16.970   8.040 -0.0308  0.1605  0.1496
   50loPI   C2B  798   9.877  17.051   7.741  0.0320  0.1655 -0.0760
   50loPI   C3B  799   9.996  17.055   7.400 -0.0030  0.1147  0.0613
   50loPI   C4B  800  10.234  16.964   7.015  0.1009  0.2179  0.1780
   51loPI    C1  801  14.786   1.535  10.329 -0.0625 -0.2048 -0.0296
   51loPI    C2  802  14.454   1.371  10.179 -0.0842 -0.3353  0.1572
   51loPI    C3  803  14.432   1.712  10.387 -0.0819 -0.2680  0.0478
   51loPI   PO4  804  14.937   1.533  10.094 -0.2243 -0.2514 -0.1008
   51loPI   GL1  805  15.116   1.753   9.683  0.2103  0.1034 -0.0426
   51loPI   GL2  806  15.350   1.919   9.645 -0.1830  0.0517  0.0189
   51loPI   C1A  807  15.135   1.650   9.270 -0.0034  0.3716 -0.2873
   51loPI   C2A  808  14.957   1.823   8.916  0.2890  0.2891  0.0869
   51loPI   C3A  809  14.938   2.060   8.509  0.2382  0.2110  0.0220
   51loPI   C4A  810  14.893   2.218   8.091 -0.2629  0.1591 -0.0437
   51loPI   C5A  811  14.638   1.957   7.792  0.0033  0.0279 -0.0160
   51loPI   C6A  812  14.279   1.924   7.501 -0.0091 -0.1396  0.3867
   51loPI   C1B  813  15.176   2.177   9.343 -0.0379  0.0234  0.0553
   51loPI   C2B  814  15.435   2.301   8.997  0.2199  0.1862 -0.0856
   51loPI   C3B  815  15.281   2.392   8.547  0.1735 -0.0438 -0.0157
   51loPI   C4B  816  15.346   2.265   8.132 -0.0334  0.2787  0.0776
   52loPI    C1  817   1.043  18.311   9.776  0.0288 -0.0088  0.1908
   52loPI    C2  818   1.176  18.291  10.153  0.0217  0.1508  0.2027
   52loPI    C3  819   1.162  18.644   9.964  0.0896  0.0620  0.0293
   52loPI   PO4  820   1.176  18.206   9.675 -0.1963 -0.1847 -0.0361
   52loPI   GL1  821   1.257  17.966   9.341  0.0229 -0.2108 -0.2733
   52loPI   GL2  822   1.274  18.276   9.202  0.1284  0.2631 -0.0179
   52loPI   C1A  823   1.112  17.676   9.092 -0.0730  0.3020  0.2457
   52loPI   C2A  824   1.106  17.444   8.659  0.0230 -0.1026  0.0405
   52loPI   C3A  825   0.938  17.142   8.368 -0.1552  0.5784  0.0714
   52loPI   C4A  826   0.834  16.932   7.914 -0.1205 -0.2575 -0.1346
   52loPI   C5A  827   0.823  17.007   7.497 -0.0784 -0.1640 -0.0159
   52loPI   C6A  828   1.135  16.949   7.205  0.0050  0.1481  0.1129
   52loPI   C1B  829   1.175  18.151   8.828 -0.0531  0.2562  0.1245
   52loPI   C2B  830   1.137  17.940   8.401 -0.2245  0.2158  0.0134
   52loPI   C3B  831   0.900  17.836   8.095  0.2874 -0.0157 -0.1228
   52loPI   C4B  832   0.773  17.999   7.703  0.1356 -0.1421  0.3162
   53loPI    C1  833  11.716  10.437   9.457 -0.1869  0.2589  0.0787
   53loPI    C2  834  11.966  10.625   9.707  0.1009 -0.1386  0.0990
   53loPI    C3  835  11.692  10.371   9.851 -0.0904  0.0364  0.0487
   53loPI   PO4  836  11.827  10.346   9.250 -0.0004 -0.1568 -0.0120
   53loPI   GL1  837  11.656  10.068   8.925  0.1468 -0.1824  0.2107
   53loPI   GL2  838  11.643   9.695   8.956  0.2487  0.3047 -0.3916
   53loPI   C1A  839  11.684  10.068   8.417 -0.0869  0.1591  0.0974
   53loPI   C2A  840  11.976  10.176   8.026  0.0352  0.3788  0.4920
   53loPI   C3A  841  12.106  10.239   7.605 -0.1605  0.1239 -0.3914
   53loPI   C4A  842  12.302   9.912   7.406  0.4725  0.2167  0.1077
   53loPI   C5A  843  12.379   9.819   6.926  0.1009  0.4931 -0.0403
   53loPI   C6A  844  12.654   9.711   6.529  0.0033 -0.0186  0.2861
   53loPI   C1B  845  11.244   9.723   8.743  0.0007 -0.0316 -0.2014
   53loPI   C2B  846  11.226   9.655   8.344  0.0365 -0.3005  0.1325
   53loPI   C3B  847  11.335   9.562   7.981  0.1344 -0.0595  0.2924
   53loPI   C4B  848  11.538   9.392   7.612  0.0094  0.3387 -0.1125
   54loPI    C1  849   8.102   8.492   9.537 -0.1422  0.0443  0.0466
   54loPI    C2  850   7.908   8.148   9.474  0.1650 -0.1478  0.1284
   54loPI    C3  851   7.982   8.270   9.847  0.1335 -0.0362  0.0986
   54loPI   PO4  852   8.053   8.661   9.273  0.1582  0.0617  0.3590
   54loPI   GL1  853   8.164   8.913   8.969  0.0901  0.0761 -0.0322
   54loPI   GL2  854   8.478   9.139   9.001  0.0111  0.1562  0.2462
   54loPI   C1A  855   8.301   8.708   8.495  0.0769 -0.0338 -0.3039
   54loPI   C2A  856   8.535   8.687   8.200 -0.0331  0.0224  0.2300
   54loPI   C3A  857   8.625   8.513   7.811  0.1973  0.1194 -0.0476
   54loPI   C4A  858   8.816   8.538   7.377 -0.4378  0.1747 -0.0625
   54loPI   C5A  859   8.932   8.381   7.076 -0.2213 -0.1166 -0.1128
   54loPI   C6A  860   9.180   8.011   6.797  0.0885 -0.0656  0.0029
   54loPI   C1B  861   8.570   9.100   8.670 -0.2526  0.0072 -0.1208
   54loPI   C2B  862   8.581   9.196   8.190  0.0753 -0.1361  0.0547
   54loPI   C3B  863   8.555   9.090   7.729  0.1376 -0.1349  0.3081
   54loPI   C4B  864   8.608   9.067   7.269 -0.0833  0.0153  0.2717
   55loPI    C1  865   9.914   1.268   9.682  0.0324 -0.0646 -0.0129
   55loPI    C2  866   9.564   1.318   9.870  0.0309 -0.2645  0.0401
   55loPI    C3  867   9.898   1.476  10.024  0.0072 -0.3074  0.1361
   55loPI   PO4  868   9.823   1.247   9.427  0.1548 -0.0748  0.0344
   55loPI   GL1  869   9.845   1.392   8.988 -0.1934 -0.2187 -0.0724
   55loPI   GL2  870  10.008   1.633   9.018 -0.1069 -0.1021 -0.1192
   55loPI   C1A  871   9.423   1.439   8.767  0.0157  0.1528  0.0963
   55loPI   C2A  872   9.367   1.658   8.448  0.2399 -0.0480  0.2376
   55loPI   C3A  873   9.075   1.643   8.122 -0.1159  0.1203  0.3311
   55loPI   C4A  874   9.104   1.717   7.615  0.4622  0.0417  0.2677
   55loPI   C5A  875   9.103   1.607   7.288  0.2354  0.3349  0.1214
   55loPI   C6A  876   8.929   1.512   6.899  0.0541  0.0422 -0.1662
   55loPI   C1B  877   9.886   1.661   8.598 -0.1376 -0.1760 -0.1973
   55loPI   C2B  878   9.930   1.600   8.105  0.1382 -0.1974  0.0767
   55loPI   C3B  879   9.981   1.656   7.653 -0.1954  0.0968  0.1873
   55loPI   C4B  880  10.151   1.574   7.200  0.0265 -0.0671  0.1379
   56loPI    C1  881   7.332  10.803   9.335  0.3085 -0.0278 -0.1557
   56loPI    C2  882   7.682  10.625   9.413  0.1497 -0.2813 -0.0100
   56loPI    C3  883   7.514  10.865   9.686  0.2430 -0.1022 -0.1085
   56loPI   PO4  884   7.317  10.758   9.096 -0.2144 -0.1856 -0.1136
   56loPI   GL1  885   7.155  10.723   8.770 -0.0837 -0.0357 -0.4377
   56loPI   GL2  886   7.369  10.390   8.650 -0.1086  0.0170 -0.1134
   56loPI   C1A  887   7.101  10.700   8.321  0.0737  0.0921 -0.2377
   56loPI   C2A  888   7.024  10.460   7.860 -0.0102 -0.0481  0.1498
   56loPI   C3A  889   7.034  10.255   7.394 -0.0530 -0.0165 -0.0517
   56loPI   C4A  890   6.844   9.959   7.154  0.1816 -0.0365 -0.0534
   56loPI   C5A  891   6.645   9.714   6.829  0.0298  0.1632  0.1380
   56loPI   C6A  892   6.574   9.351   6.568 -0.3785  0.1380  0.0149
   56loPI   C1B  893   7.362  10.215   8.229  0.2038  0.0832  0.1592
   56loPI   C2B  894   7.333   9.971   7.736 -0.0380 -0.1870 -0.2828
   56loPI   C3B  895   7.284   9.702   7.390  0.1119 -0.0564 -0.0512
   56loPI   C4B  896   7.358   9.405   7.079  0.2116 -0.0451  0.0817
   57loPI    C1  897   4.494   0.235   9.568  0.0597  0.1157 -0.2025
   57loPI    C2  898   4.664   0.594   9.618 -0.1993  0.2061  0.0581
   57loPI    C3  899   4.372   0.475   9.864 -0.0476 -0.2272  0.0373
   57loPI   PO4  900   4.724   0.106   9.398  0.3628 -0.1245  0.0590
   57loPI   GL1  901   4.752   0.027   8.967  0.0550 -0.1441  0.1862
   57loPI   GL2  902   4.593   0.123   8.773  0.0433  0.3034 -0.0331
   57loPI   C1A  903   4.937  -0.286   8.642 -0.1373 -0.1085 -0.2599
   57loPI   C2A  904   4.947  -0.337   8.199  0.2265 -0.1106 -0.0381
   57loPI   C3A  905   5.077  -0.393   7.750 -0.0175 -0.0307 -0.0498
   57loPI   C4A  906   5.220  -0.293   7.278 -0.3449 -0.0080 -0.3576
   57loPI   C5A  907   5.259  -0.281   6.820  0.0511  0.1441 -0.0056
   57loPI   C6A  908   5.031  -0.307   6.481  0.1021  0.0785 -0.0571
   57loPI   C1B  909   4.427   0.242   8.373 -0.1840  0.0879 -0.1736
   57loPI   C2B  910   4.502   0.175   7.866 -0.1447  0.2298 -0.1252
   57loPI   C3B  911   4.481   0.202   7.399  0.0851  0.0273  0.1109
   57loPI   C4B  912   4.580   0.417   6.988 -0.2688 -0.0858 -0.1923
   58loPI    C1  913  17.435   6.796   9.946  0.0277  0.2167 -0.0422
   58loPI    C2  914  17.692   7.098   9.996  0.2254  0.0381  0.0355
   58loPI    C3  915  17.573   6.882  10.312  0.0025  0.0999 -0.0046
   58loPI   PO4  916  17.161   6.926   9.794 -0.0662  0.1700  0.2878
   58loPI   GL1  917  17.060   7.002   9.452  0.1528  0.0997  0.2076
   58loPI   GL2  918  17.152   6.675   9.364  0.3053  0.0282 -0.3366
   58loPI   C1A  919  16.751   6.863   9.151  0.1984  0.0743 -0.0016
   58loPI   C2A  920  16.718   6.734   8.765 -0.0664 -0.1898 -0.3400
   58loPI   C3A  921  16.531   6.779   8.318 -0.0313  0.0823  0.0633
   58loPI   C4A  922  16.611   7.108   8.081  0.3750 -0.3218  0.4828
   58loPI   C5A  923  16.557   7.496   7.827  0.1152 -0.3183  0.2885
   58loPI   C6A  924  16.645   7.759   7.470  0.1347  0.1029  0.4106
   58loPI   C1B  925  17.222   6.645   8.973  0.0123  0.1969 -0.0596
   58loPI   C2B  926  17.194   6.858   8.599 -0.0022  0.3492  0.0455
   58loPI   C3B  927  17.111   6.974   8.241 -0.1281  0.1248 -0.1080
   58loPI   C4B  928  17.081   6.956   7.825  0.1196  0.0833  0.3375
   59loPI    C1  929  14.003   6.352  10.061 -0.1325  0.0448  0.0348
   59loPI    C2  930  14.220   6.104  10.288  0.0205  0.0477 -0.1062
   59loPI    C3  931  13.956   6.352  10.458  0.0291 -0.0525  0.0549
   59loPI   PO4  932  13.926   6.198   9.844 -0.0430  0.0062 -0.1678
   59loPI   GL1  933  13.598   5.936   9.695 -0.0785 -0.2757  0.0460
   59loPI   GL2  934  13.743   5.744   9.741  0.1293  0.1489 -0.0162
   59loPI   C1A  935  13.611   6.160   9.239 -0.0187  0.0100 -0.0844
   59loPI   C2A  936  13.698   6.212   8.805 -0.0340  0.1295 -0.3261
   59loPI   C3A  937  13.574   6.237   8.413 -0.1738  0.0814  0.1057
   59loPI   C4A  938  13.531   6.040   7.986 -0.0612 -0.0754  0.0767
   59loPI   C5A  939  13.626   5.883   7.528  0.1666 -0.0989  0.2111
   59loPI   C6A  940  13.796   6.049   7.159 -0.1385  0.1423  0.2752
   59loPI   C1B  941  13.939   5.538   9.306  0.0778 -0.0017 -0.4283
   59loPI   C2B  942  13.896   5.471   8.906 -0.0839  0.0132  0.1485
   59loPI   C3B  943  13.719   5.349   8.550 -0.0512  0.1934  0.2010
   59loPI   C4B  944  13.735   5.459   8.106 -0.0537 -0.0646 -0.1013
   60loPI    C1  945   0.915   6.758  10.630  0.0039  0.0458 -0.0935
   60loPI    C2  946   1.289   6.898  10.603  0.0679 -0.0630  0.1879
   60loPI    C3  947   1.085   6.938  10.945 -0.2128  0.0770  0.0075
   60loPI   PO4  948   0.881   6.718  10.358  0.2439 -0.1744  0.1610
   60loPI   GL1  949   1.039   6.533   9.982 -0.0554 -0.1275  0.0519
   60loPI   GL2  950   1.092   6.304   9.781 -0.1606 -0.0137 -0.2749
   60loPI   C1A  951   0.793   6.843   9.605  0.1012  0.1854 -0.3737
   60loPI   C2A  952   0.618   6.738   9.279 -0.0671  0.1740 -0.0393
   60loPI   C3A  953   0.378   6.644   8.967  0.0607  0.1193 -0.2033
   60loPI   C4A  954   0.014   6.884   8.737 -0.6579 -0.1203 -0.0191
   60loPI   C5A  955  -0.138   7.102   8.398 -0.1025  0.0309 -0.2077
   60loPI   C6A  956  -0.273   7.156   7.911  0.0014 -0.0863 -0.1759
   60loPI   C1B  957   1.073   6.394   9.380 -0.0372  0.1742  0.1176
   60loPI   C2B  958   1.037   6.428   8.983  0.1879  0.2332  0.1862
   60loPI   C3B  959   1.023   6.646   8.588  0.2825  0.0152  0.1898
   60loPI   C4B  960   1.101   6.826   8.234 -0.0672  0.2744 -0.0563
   61loPI    C1  961   1.590  12.286  10.301  0.0984 -0.2208  0.1602
   61loPI    C2  962   1.237  12.349  10.477  0.0704  0.0185  0.0222
   61loPI    C3  963   1.432  12.006  10.538 -0.3400 -0.2552 -0.1616
   61loPI   PO4  964   1.540  12.386  10.060 -0.2163  0.1025  0.1748
   61loPI   GL1  965   1.707  12.323   9.679  0.0819 -0.2955  0.0559
   61loPI   GL2  966   1.289  12.249   9.665  0.1167 -0.2249 -0.1943
   61loPI   C1A  967   1.932  12.257   9.315 -0.0216 -0.2823 -0.0343
   61loPI   C2A  968   2.193  12.098   8.941  0.2960 -0.0573 -0.1975
   61loPI   C3A  969   2.360  12.274   8.561  0.0470 -0.0207 -0.0221
   61loPI   C4A  970   2.389  12.251   8.089 -0.5471  0.1884  0.1331
   61loPI   C5A  971   2.525  12.269   7.669 -0.0778  0.3520  0.0651
   61loPI   C6A  972   2.547  11.940   7.411  0.4154  0.3413  0.0872
   61loPI   C1B  973   1.485  12.007   9.284 -0.0144  0.1894  0.2969
   61loPI   C2B  974   1.662  12.022   8.893 -0.0631  0.1250 -0.3827
   61loPI   C3B  975   1.951  11.857   8.614  0.2193  0.2654 -0.0141
   61loPI   C4B  976   1.994  11.985   8.237 -0.0202  0.1733 -0.0858
   62loPI    C1  977   3.405  14.552  10.036  0.0538  0.2548 -0.3073
   62loPI    C2  978   3.654  14.822  10.193  0.1401  0.0099 -0.0138
   62loPI    C3  979   3.259  14.869  10.231  0.1573  0.0295  0.1522
   62loPI   PO4  980   3.515  14.547   9.731 -0.1412  0.0090 -0.1302
   62loPI   GL1  981   3.612  14.578   9.306 -0.2950  0.4067 -0.1519
   62loPI   GL2  982   3.905  14.824   9.344 -0.0319  0.2476  0.0494
   62loPI   C1A  983   3.549  14.390   8.870 -0.0849  0.3946  0.1975
   62loPI   C2A  984   3.563  14.341   8.439 -0.1896 -0.0738  0.2084
   62loPI   C3A  985   3.491  14.229   8.184 -0.0908  0.0504  0.3141
   62loPI   C4A  986   3.502  14.224   7.839  0.0559 -0.0951 -0.2505
   62loPI   C5A  987   3.622  14.226   7.458 -0.0283  0.0263 -0.3331
   62loPI   C6A  988   3.722  14.310   7.072 -0.1454 -0.1759 -0.0421
   62loPI   C1B  989   3.893  14.753   8.811  0.0186 -0.1462  0.0634
   62loPI   C2B  990   3.940  14.926   8.367  0.3937 -0.2110  0.3739
   62loPI   C3B  991   3.764  15.172   8.044  0.3344 -0.1214  0.1320
   62loPI   C4B  992   3.721  15.464   7.656  0.0685 -0.1184 -0.0380
   63loPI    C1  993  14.266  16.674   9.888  0.1902  0.0935  0.1352
   63loPI    C2  994  13.924  16.875   9.941  0.1007 -0.0745  0.2046
   63loPI    C3  995  14.161  16.796  10.254 -0.0690 -0.4350  0.2471
   63loPI   PO4  996  14.219  16.495   9.702  0.3827 -0.2672  0.0759
   63loPI   GL1  997  14.306  16.657   9.365  0.2091  0.2132  0.1386
   63loPI   GL2  998  14.514  16.888   9.327 -0.2042 -0.0942  0.3233
   63loPI   C1A  999  14.133  16.482   8.966 -0.0117 -0.1611  0.0924
   63loPI   C2A 1000  14.159  16.361   8.550 -0.2420  0.0088  0.0258
   63loPI   C3A 1001  14.267  16.377   8.114  0.0349  0.0118 -0.2805
   63loPI   C4A 1002  14.347  16.555   7.706  0.2070  0.0209  0.1867
   63loPI   C5A 1003  14.377  16.461   7.361 -0.2484 -0.1266 -0.0522
   63loPI   C6A 1004  14.322  16.399   6.902  0.1027 -0.1488  0.1003
   63loPI   C1B 1005  14.498  16.768   8.919  0.1232 -0.0185 -0.0079
   63loPI   C2B 1006  14.482  16.754   8.574 -0.0698 -0.0984  0.1010
   63loPI   C3B 1007  14.617  16.727   8.161  0.2322 -0.1486 -0.2602
   63loPI   C4B 1008  14.815  16.922   7.830  0.0174  0.1613 -0.0996
   64loPI    C1 1009  17.680   7.782  10.395  0.0154 -0.0202 -0.3712
   64loPI    C2 1010  17.480   8.113  10.293 -0.0967  0.0824  0.1510
   64loPI    C3 1011  17.755   8.127  10.583 -0.1220 -0.2883  0.1982
   64loPI   PO4 1012  17.604   7.624  10.167 -0.2694 -0.2862 -0.0339
   64loPI   GL1 1013  17.390   7.586   9.789  0.0615  0.0751 -0.2819
   64loPI   GL2 1014  17.087   7.447   9.748  0.1419  0.2264  0.1102
   64loPI   C1A 1015  17.748   7.421   9.536  0.1589 -0.0485 -0.3364
   64loPI   C2A 1016  17.872   7.521   9.095 -0.0993 -0.0888 -0.0074
   64loPI   C3A 1017  17.782   7.643   8.713 -0.2319 -0.2477 -0.0873
   64loPI   C4A 1018  17.859   7.630   8.209 -0.0247 -0.0393  0.0163
   64loPI   C5A 1019  17.649   7.324   7.891 -0.1912  0.0744  0.1625
   64loPI   C6A 1020  17.545   6.896   7.938  0.1083 -0.1964 -0.0833
   64loPI   C1B 1021  17.307   7.539   9.287 -0.3718 -0.0997  0.0571
   64loPI   C2B 1022  17.358   7.759   8.904  0.0820 -0.0509 -0.1902
   64loPI   C3B 1023  17.116   7.891   8.681  0.1437  0.1057 -0.1848
   64loPI   C4B 1024  16.853   7.936   8.330  0.0889  0.2313 -0.0709
   65loPI    C1 1025  16.261   9.179  10.353 -0.0101  0.0402 -0.1243
   65loPI    C2 1026  15.949   9.337  10.547  0.1071  0.0742  0.0383
   65loPI    C3 1027  15.925   8.967  10.398  0.0138  0.0499  0.1129
   65loPI   PO4 1028  16.353   9.493  10.235  0.5089 -0.0951  0.1792
   65loPI   GL1 1029  16.566   9.571   9.875 -0.0738  0.1256 -0.3685
   65loPI   GL2 1030  16.858   9.836   9.874 -0.0090 -0.0589  0.1682
   65loPI   C1A 1031  16.288   9.473   9.559  0.1473  0.1828 -0.1848
   65loPI   C2A 1032  15.836   9.397   9.397  0.0416 -0.2521  0.2886
   65loPI   C3A 1033  15.790   9.539   8.954  0.1878  0.1234  0.0632
   65loPI   C4A 1034  15.833   9.645   8.548 -0.1664  0.0968  0.1791
   65loPI   C5A 1035  16.040   9.725   8.150 -0.2070 -0.1258 -0.0323
   65loPI   C6A 1036  16.185   9.769   7.784 -0.0313  0.0350 -0.0003
   65loPI   C1B 1037  17.127   9.667   9.666 -0.0963 -0.0192 -0.2411
   65loPI   C2B 1038  17.347   9.811   9.307  0.0961 -0.0746  0.0195
   65loPI   C3B 1039  17.216   9.796   8.976 -0.1070  0.2836  0.4215
   65loPI   C4B 1040  17.391   9.666   8.639  0.0639 -0.1652  0.0922
   66loPI    C1 1041  16.318   4.812   9.972 -0.0647 -0.1132 -0.1674
   66loPI    C2 1042  16.199   4.554  10.253  0.2956 -0.1975 -0.0866
   66loPI    C3 1043  16.190   4.947  10.326 -0.2068 -0.1826 -0.1920
   66loPI   PO4 1044  16.307   4.636   9.688  0.1531  0.1035  0.0497
   66loPI   GL1 1045  16.133   4.268   9.449  0.2799 -0.2733  0.0469
   66loPI   GL2 1046  16.003   4.494   9.303 -0.1393 -0.0787 -0.5029
   66loPI   C1A 1047  16.341   4.060   9.127 -0.0285 -0.1741  0.0291
   66loPI   C2A 1048  16.370   4.129   8.657 -0.2236 -0.0376  0.0919
   66loPI   C3A 1049  16.303   4.049   8.237  0.1316  0.1489 -0.0281
   66loPI   C4A 1050  16.390   3.924   7.797 -0.0413 -0.2302  0.3412
   66loPI   C5A 1051  16.402   3.660   7.491 -0.0284 -0.0788 -0.2513
   66loPI   C6A 1052  16.534   3.247   7.314 -0.2921  0.2744 -0.0847
   66loPI   C1B 1053  16.120   4.491   8.860  0.2569  0.1803 -0.0126
   66loPI   C2B 1054  15.984   4.474   8.480  0.1945  0.0148 -0.0496
   66loPI   C3B 1055  15.737   4.874   8.322  0.2452  0.1170 -0.2166
   66loPI   C4B 1056  15.845   5.149   7.952 -0.1378 -0.1106  0.4010
   67loPI    C1 1057   1.736   2.840   9.677  0.0253 -0.2738  0.1651
   67loPI    C2 1058   1.376   2.735   9.818 -0.0991  0.0555  0.1018
   67loPI    C3 1059   1.653   2.881  10.066 -0.0485 -0.0866  0.1303
   67loPI   PO4 1060   1.611   3.162   9.455  0.0792 -0.0172 -0.4638
   67loPI   GL1 1061   1.443   3.196   9.121  0.0110  0.0496  0.0177
   67loPI   GL2 1062   1.454   2.946   8.948 -0.1172 -0.5384  0.2451
   67loPI   C1A 1063   1.418   3.484   8.809  0.1010 -0.3564 -0.4774
   67loPI   C2A 1064   1.403   3.552   8.411  0.1626  0.0851 -0.0954
   67loPI   C3A 1065   1.429   3.480   7.949 -0.1834 -0.0472 -0.0073
   67loPI   C4A 1066   1.549   3.661   7.591  0.2163 -0.0285 -0.1228
   67loPI   C5A 1067   1.478   3.936   7.254 -0.0428 -0.0908  0.0722
   67loPI   C6A 1068   1.476   3.905   6.834  0.0630 -0.1713  0.2640
   67loPI   C1B 1069   1.413   2.976   8.490 -0.0932  0.0974 -0.0649
   67loPI   C2B 1070   1.470   3.007   8.031 -0.0575  0.4421  0.1548
   67loPI   C3B 1071   1.345   3.138   7.609 -0.5318  0.2423 -0.0780
   67loPI   C4B 1072   1.584   3.002   7.095 -0.0601 -0.1227  0.0754
   68loPI    C1 1073   7.115  13.277   9.543  0.0461  0.1482  0.0465
   68loPI    C2 1074   7.303  13.399   9.874  0.1638  0.0412  0.0198
   68loPI    C3 1075   7.401  13.050   9.706 -0.0927 -0.0389  0.0329
   68loPI   PO4 1076   7.111  13.406   9.340  0.4003 -0.1464  0.1470
   68loPI   GL1 1077   7.135  13.563   8.925  0.1226 -0.0154 -0.0827
   68loPI   GL2 1078   7.141  13.262   8.837 -0.1923 -0.0319 -0.2291
   68loPI   C1A 1079   7.106  13.865   8.482 -0.1711  0.0733  0.0065
   68loPI   C2A 1080   6.945  14.084   8.198 -0.0556  0.0140 -0.4612
   68loPI   C3A 1081   6.990  14.197   7.804  0.0214 -0.0208  0.1783
   68loPI   C4A 1082   6.991  14.076   7.316  0.2421 -0.1406 -0.2798
   68loPI   C5A 1083   6.720  13.761   7.176 -0.0824  0.2476 -0.3275
   68loPI   C6A 1084   6.399  13.861   6.847 -0.0443  0.0306 -0.0068
   68loPI   C1B 1085   7.172  13.310   8.388 -0.0377  0.0040  0.0986
   68loPI   C2B 1086   7.016  13.468   7.985 -0.2542  0.1427  0.0323
   68loPI   C3B 1087   6.918  13.473   7.562 -0.1898  0.4403 -0.1260
   68loPI   C4B 1088   7.057  13.294   7.153  0.0284 -0.1251  0.0567
   69loPI    C1 1089   1.828   6.892  10.498  0.2248 -0.0968 -0.0970
   69loPI    C2 1090   1.669   6.555  10.645  0.1574 -0.1394 -0.2660
   69loPI    C3 1091   2.066   6.595  10.621  0.1667 -0.1768 -0.1769
   69loPI   PO4 1092   1.795   6.981  10.253  0.1009 -0.1394  0.0947
   69loPI   GL1 1093   1.605   7.223   9.998 -0.0090 -0.2943  0.3476
   69loPI   GL2 1094   1.899   7.402   9.890 -0.1535 -0.1883 -0.0056
   69loPI   C1A 1095   1.554   7.345   9.545  0.0028  0.3352 -0.0880
   69loPI   C2A 1096   1.364   7.292   9.063 -0.2163  0.0548 -0.0482
   69loPI   C3A 1097   1.008   7.510   9.011 -0.2120  0.1296  0.1480
   69loPI   C4A 1098   0.849   7.697   8.685  0.2238  0.0378 -0.1007
   69loPI   C5A 1099   0.679   7.971   8.456  0.4188  0.2404  0.0487
   69loPI   C6A 1100   0.826   8.218   8.066 -0.0018  0.1543  0.3895
   69loPI   C1B 1101   1.750   7.917   9.603 -0.2305  0.1248  0.0315
   69loPI   C2B 1102   1.699   8.246   9.512  0.3195  0.1467 -0.2834
   69loPI   C3B 1103   1.877   8.397   9.201 -0.0367  0.0862 -0.1891
   69loPI   C4B 1104   2.015   8.361   8.835 -0.1138  0.1671  0.5892
   70loPI    C1 1105  18.519  17.041  10.487  0.0773  0.1439 -0.0489
   70loPI    C2 1106  18.866  17.239  10.501  0.1616  0.0008 -0.0873
   70loPI    C3 1107  18.864  16.839  10.494 -0.0074 -0.0011  0.0129
   70loPI   PO4 1108  18.374  17.113  10.204 -0.0129  0.0464 -0.0423
   70loPI   GL1 1109  18.275  16.857   9.805  0.1323  0.2590  0.0025
   70loPI   GL2 1110  18.173  16.676   9.457 -0.3617  0.1611 -0.2430
   70loPI   C1A 1111  18.467  17.126   9.433  0.1561  0.0563 -0.1582
   70loPI   C2A 1112  18.558  17.097   9.005  0.3511 -0.2493 -0.1074
   70loPI   C3A 1113  18.470  17.037   8.670  0.1094 -0.1467  0.2477
   70loPI   C4A 1114  18.475  16.790   8.336 -0.1128 -0.0059 -0.0534
   70loPI   C5A 1115  18.355  16.748   7.984 -0.0510 -0.1548  0.1306
   70loPI   C6A 1116  18.532  16.710   7.546 -0.2040 -0.2221 -0.2477
   70loPI   C1B 1117  18.171  16.778   9.119 -0.0455 -0.3900  0.3431
   70loPI   C2B 1118  18.086  16.705   8.739 -0.2236 -0.0264 -0.2981
   70loPI   C3B 1119  17.891  16.763   8.270 -0.2726  0.2618  0.1530
   70loPI   C4B 1120  17.447  16.745   8.000  0.0757  0.1517 -0.0743
   71loPI    C1 1121   1.182  13.193  10.529 -0.0182  0.0800 -0.2853
   71loPI    C2 1122   0.922  12.890  10.557  0.0071  0.0605 -0.2591
   71loPI    C3 1123   1.245  12.898  10.792 -0.1994  0.3118  0.0247
   71loPI   PO4 1124   1.102  13.157  10.171 -0.3237 -0.1957 -0.1094
   71loPI   GL1 1125   1.247  12.955   9.746  0.0752  0.3087 -0.2820
   71loPI   GL2 1126   1.530  12.810   9.735  0.3972 -0.1637 -0.1259
   71loPI   C1A 1127   1.068  12.975   9.364  0.0881  0.3128 -0.0322
   71loPI   C2A 1128   1.204  12.949   8.900 -0.1571  0.2204 -0.4851
   71loPI   C3A 1129   1.380  12.744   8.545  0.1312 -0.1079 -0.1489
   71loPI   C4A 1130   1.310  12.554   8.176  0.0043 -0.1342 -0.4497
   71loPI   C5A 1131   1.178  12.347   7.873  0.2216  0.1607 -0.1736
   71loPI   C6A 1132   0.875  12.258   7.540 -0.1631 -0.2532  0.0008
   71loPI   C1B 1133   1.471  12.582   9.341 -0.2267  0.2400  0.1280
   71loPI   C2B 1134   1.347  12.424   8.924 -0.0792 -0.2735  0.2157
   71loPI   C3B 1135   1.179  12.283   8.644  0.2209  0.0950  0.0307
   71loPI   C4B 1136   0.863  12.277   8.244 -0.1165 -0.1959  0.0130
   72loPI    C1 1137  14.652   3.904   9.763 -0.0985 -0.1133 -0.0338
   72loPI    C2 1138  14.808   3.536   9.762 -0.0439 -0.0932  0.2592
   72loPI    C3 1139  14.523   3.631  10.026 -0.1309  0.0456  0.1169
   72loPI   PO4 1140  14.575   3.878   9.479  0.1560 -0.5041  0.0306
   72loPI   GL1 1141  14.684   3.476   9.110 -0.1642 -0.0030  0.1069
   72loPI   GL2 1142  14.739   3.833   8.995 -0.1808  0.0078 -0.0067
   72loPI   C1A 1143  14.915   3.081   8.964  0.0992  0.0833 -0.2144
   72loPI   C2A 1144  14.892   2.790   8.552  0.0529  0.1895 -0.0486
   72loPI   C3A 1145  15.044   2.765   8.213  0.2313 -0.1115 -0.3323
   72loPI   C4A 1146  15.135   2.619   7.821  0.0844  0.4295  0.0065
   72loPI   C5A 1147  14.925   2.287   7.528 -0.0345  0.2482 -0.0284
   72loPI   C6A 1148  14.924   1.887   7.325 -0.0861 -0.0913  0.1165
   72loPI   C1B 1149  14.629   3.812   8.630  0.4837 -0.3414 -0.2942
   72loPI   C2B 1150  14.574   3.589   8.234 -0.2620  0.0640 -0.0155
   72loPI   C3B 1151  14.857   3.476   7.954  0.2186 -0.1328  0.0262
   72loPI   C4B 1152  15.169   3.674   7.686  0.1702  0.0234  0.0741
   73loPI    C1 1153   9.594  12.751   8.968  0.2442 -0.3518 -0.1069
   73loPI    C2 1154   9.855  12.883   9.241  0.2151 -0.1073 -0.1952
   73loPI    C3 1155   9.462  12.914   9.309  0.2079 -0.0827 -0.2466
   73loPI   PO4 1156   9.669  12.504   8.917  0.3241 -0.0710 -0.0110
   73loPI   GL1 1157   9.809  12.258   8.609  0.2612 -0.1215 -0.0507
   73loPI   GL2 1158   9.702  11.952   8.629 -0.0480  0.3304  0.1946
   73loPI   C1A 1159   9.858  12.425   8.258 -0.0654  0.0905  0.0178
   73loPI   C2A 1160   9.734  12.203   7.795 -0.1155  0.3453  0.1472
   73loPI   C3A 1161   9.515  12.179   7.374  0.3671 -0.0304  0.4384
   73loPI   C4A 1162   9.497  12.291   6.979 -0.1302 -0.2603  0.0816
   73loPI   C5A 1163   9.521  12.329   6.678 -0.2120 -0.0495 -0.1208
   73loPI   C6A 1164   9.554  12.310   6.213 -0.0383  0.1414  0.1241
   73loPI   C1B 1165   9.569  11.910   8.226  0.1467 -0.1649  0.1167
   73loPI   C2B 1166   9.288  11.920   7.830  0.0540 -0.0564  0.2603
   73loPI   C3B 1167   9.059  11.830   7.437  0.1732 -0.0650 -0.0333
   73loPI   C4B 1168   9.038  12.032   7.014  0.1280  0.1149 -0.4552
   74loPI    C1 1169  15.546   1.625  10.133 -0.2431 -0.1106 -0.1059
   74loPI    C2 1170  15.286   1.924  10.183 -0.0117  0.0436  0.2180
   74loPI    C3 1171  15.614   1.905  10.411  0.1598 -0.2603 -0.0459
   74loPI   PO4 1172  15.452   1.440  10.032 -0.0212  0.0336 -0.0671
   74loPI   GL1 1173  15.503   1.321   9.689 -0.3144 -0.0035 -0.1014
   74loPI   GL2 1174  15.415   1.163   9.363  0.5307  0.1525  0.1045
   74loPI   C1A 1175  15.906   1.495   9.261 -0.0908 -0.1353 -0.1628
   74loPI   C2A 1176  15.910   1.459   8.812 -0.2051  0.0903  0.3614
   74loPI   C3A 1177  15.509   1.423   8.469  0.0332 -0.0627  0.4660
   74loPI   C4A 1178  15.528   1.379   8.029 -0.0233 -0.0650 -0.4250
   74loPI   C5A 1179  15.512   1.137   7.736  0.1729 -0.2476 -0.1092
   74loPI   C6A 1180  15.262   1.004   7.360  0.0470  0.3755 -0.0844
   74loPI   C1B 1181  15.230   1.354   8.925 -0.2684  0.0887 -0.2154
   74loPI   C2B 1182  15.002   1.511   8.567 -0.0140  0.1703 -0.3966
   74loPI   C3B 1183  15.128   1.674   8.169 -0.2089  0.5412 -0.1021
   74loPI   C4B 1184  15.213   1.891   7.804  0.2860 -0.2125  0.5875
   75loPI    C1 1185  13.884   3.634  10.092 -0.0827  0.1646  0.3397
   75loPI    C2 1186  14.073   3.283  10.063  0.0402  0.2530  0.0241
   75loPI    C3 1187  14.164   3.535  10.360  0.0063  0.0532  0.2067
   75loPI   PO4 1188  13.980   3.769   9.748 -0.0857 -0.1964 -0.1870
   75loPI   GL1 1189  13.880   3.625   9.355 -0.1688 -0.1612 -0.1652
   75loPI   GL2 1190  14.123   3.841   9.159 -0.1470  0.2187  0.1969
   75loPI   C1A 1191  13.689   3.444   8.993 -0.0594  0.2392  0.0593
   75loPI   C2A 1192  13.760   3.218   8.591  0.0105 -0.1227 -0.1943
   75loPI   C3A 1193  13.636   3.027   8.186  0.0686 -0.0776  0.1450
   75loPI   C4A 1194  13.511   2.914   7.818 -0.0166 -0.2688  0.2303
   75loPI   C5A 1195  13.443   2.812   7.352  0.1412  0.2204 -0.2145
   75loPI   C6A 1196  13.464   3.086   6.964  0.0476 -0.3711  0.3205
   75loPI   C1B 1197  14.164   4.000   8.891  0.2799 -0.1750 -0.0533
   75loPI   C2B 1198  14.140   4.157   8.470 -0.2134  0.1316 -0.0509
   75loPI   C3B 1199  14.387   4.127   8.191  0.4387  0.1854  0.2508
   75loPI   C4B 1200  14.347   3.821   7.809  0.1160 -0.5336  0.2949
   76loPI    C1 1201  16.638  18.193   9.977  0.1311 -0.0205 -0.0329
   76loPI    C2 1202  16.683  17.863   9.755  0.1031  0.1090 -0.2335
   76loPI    C3 1203  16.714  17.842  10.153  0.1016 -0.1350 -0.2448
   76loPI   PO4 1204  16.739  18.348   9.885 -0.4037 -0.1915 -0.1370
   76loPI   GL1 1205  16.810  18.217   9.467  0.0220  0.0377  0.0836
   76loPI   GL2 1206  17.020  18.361   9.258 -0.2543 -0.1214  0.2246
   76loPI   C1A 1207  16.883  17.806   9.296 -0.0616 -0.1717  0.2662
   76loPI   C2A 1208  16.976  17.630   8.913 -0.3351 -0.0284  0.0449
   76loPI   C3A 1209  17.037  17.706   8.524  0.2283 -0.2554 -0.2371
   76loPI   C4A 1210  17.015  17.422   8.209  0.0242  0.0491 -0.1106
   76loPI   C5A 1211  16.986  17.395   7.797  0.2068 -0.0169 -0.0451
   76loPI   C6A 1212  16.662  17.393   7.479  0.0628  0.0772 -0.1953
   76loPI   C1B 1213  16.830  18.255   8.872  0.1358  0.0583  0.2736
   76loPI   C2B 1214  17.000  18.206   8.474  0.0099  0.1314  0.0306
   76loPI   C3B 1215  17.146  18.262   8.039 -0.0264  0.2707  0.0627
   76loPI   C4B 1216  17.314  18.647   7.845  0.0788 -0.0030  0.0674
   77loPI    C1 1217   9.196   0.795   9.298  0.0516  0.0742 -0.2549
   77loPI    C2 1218   9.331   1.087   9.061 -0.0306  0.1911 -0.1597
   77loPI    C3 1219   9.275   1.156   9.450 -0.0384  0.0438 -0.1339
   77loPI   PO4 1220   8.896   0.769   9.165 -0.2343 -0.3446  0.0039
   77loPI   GL1 1221   8.694   0.811   8.698 -0.2356 -0.0170 -0.0161
   77loPI   GL2 1222   9.018   0.770   8.717 -0.4351 -0.0294  0.1532
   77loPI   C1A 1223   8.635   0.860   8.286  0.1240  0.0144  0.2044
   77loPI   C2A 1224   8.690   0.780   7.784  0.0740 -0.1837  0.0755
   77loPI   C3A 1225   8.625   0.787   7.355 -0.1026  0.2483  0.1081
   77loPI   C4A 1226   8.231   1.119   7.032 -0.2955  0.2519 -0.0075
   77loPI   C5A 1227   7.785   1.088   6.990 -0.1076  0.0860 -0.3035
   77loPI   C6A 1228   7.612   1.000   6.594 -0.0388  0.0522  0.0668
   77loPI   C1B 1229   9.093   0.653   8.353 -0.1786  0.1307 -0.1297
   77loPI   C2B 1230   9.087   0.522   7.965 -0.2462 -0.0361  0.0320
   77loPI   C3B 1231   9.072   0.270   7.596 -0.0038  0.0323  0.1965
   77loPI   C4B 1232   9.155   0.101   7.167  0.1774 -0.2354 -0.2215
   78loPI    C1 1233  16.847   2.494  10.147  0.0696 -0.1089 -0.0178
   78loPI    C2 1234  17.107   2.643  10.411  0.3221 -0.2628 -0.1750
   78loPI    C3 1235  16.885   2.324  10.507 -0.0384  0.0538  0.0713
   78loPI   PO4 1236  16.967   2.390   9.957  0.1063  0.1447 -0.1432
   78loPI   GL1 1237  16.787   2.279   9.650  0.1951  0.0422 -0.2300
   78loPI   GL2 1238  16.750   2.031   9.606 -0.0333 -0.0027  0.3294
   78loPI   C1A 1239  16.846   2.287   9.134 -0.0889 -0.1247  0.3338
   78loPI   C2A 1240  16.808   2.109   8.729 -0.0482 -0.0609 -0.2708
   78loPI   C3A 1241  16.820   2.027   8.265 -0.0199 -0.1310 -0.1350
   78loPI   C4A 1242  16.886   1.877   7.901  0.0600  0.1027 -0.1763
   78loPI   C5A 1243  17.075   1.615   7.726  0.1857 -0.1421 -0.0710
   78loPI   C6A 1244  17.095   1.213   7.604 -0.3173 -0.3135 -0.1571
   78loPI   C1B 1245  16.775   1.807   9.213  0.2082  0.0818 -0.1222
   78loPI   C2B 1246  16.912   1.593   8.806  0.0270 -0.2615  0.0024
   78loPI   C3B 1247  16.955   1.439   8.380 -0.3123 -0.3612 -0.1097
   78loPI   C4B 1248  17.220   1.252   8.089  0.1342 -0.0473  0.2071
   79loPI    C1 1249  13.519   2.496  10.071 -0.0966  0.1785  0.1863
   79loPI    C2 1250  13.863   2.438  10.267 -0.0978 -0.2329  0.0757
   79loPI    C3 1251  13.590   2.691  10.413  0.1936 -0.0030  0.2334
   79loPI   PO4 1252  13.489   2.249   9.979  0.3611  0.2144 -0.1286
   79loPI   GL1 1253  13.535   2.019   9.592 -0.0669 -0.0008  0.0350
   79loPI   GL2 1254  13.512   1.647   9.587 -0.1007 -0.0185  0.1513
   79loPI   C1A 1255  13.726   2.226   9.172 -0.1386  0.0445 -0.1681
   79loPI   C2A 1256  13.579   2.374   8.641 -0.0839  0.0312 -0.2120
   79loPI   C3A 1257  13.495   2.422   8.178  0.0727  0.1046  0.1449
   79loPI   C4A 1258  13.486   2.402   7.693  0.2648 -0.0363  0.2501
   79loPI   C5A 1259  13.600   2.294   7.220  0.1369  0.0489 -0.0683
   79loPI   C6A 1260  14.096   2.188   7.106 -0.1579  0.0133  0.0388
   79loPI   C1B 1261  13.782   1.742   9.258  0.3580  0.2119  0.3267
   79loPI   C2B 1262  13.940   1.874   8.925 -0.0896  0.2828 -0.1020
   79loPI   C3B 1263  14.096   1.745   8.515 -0.2876 -0.1793 -0.0903
   79loPI   C4B 1264  14.159   1.768   8.008 -0.0798  0.0972 -0.0830
   80loPI    C1 1265   8.321  14.032   9.505 -0.0667  0.2634  0.0163
   80loPI    C2 1266   8.498  14.332   9.703  0.3215  0.0899 -0.0586
   80loPI    C3 1267   8.514  13.959   9.848 -0.2140  0.1085  0.0674
   80loPI   PO4 1268   8.230  13.964   9.158 -0.0295 -0.0160  0.2082
   80loPI   GL1 1269   8.244  13.692   8.899 -0.1615  0.0334 -0.0594
   80loPI   GL2 1270   8.128  13.978   8.704 -0.3346 -0.0617 -0.1063
   80loPI   C1A 1271   8.186  13.530   8.510 -0.1121 -0.0580 -0.1230
   80loPI   C2A 1272   8.351  13.605   8.139  0.1809  0.3119 -0.2524
   80loPI   C3A 1273   8.588  13.648   7.750 -0.1006  0.2892 -0.0904
   80loPI   C4A 1274   8.918  13.401   7.484  0.1861 -0.2287  0.0645
   80loPI   C5A 1275   9.093  13.640   7.225 -0.2019 -0.5027 -0.2258
   80loPI   C6A 1276   9.280  13.918   7.221 -0.0933 -0.1063  0.3092
   80loPI   C1B 1277   7.963  13.886   8.309 -0.1552  0.0764 -0.0349
   80loPI   C2B 1278   7.942  13.909   7.932  0.3185 -0.3120 -0.0038
   80loPI   C3B 1279   7.896  13.682   7.634 -0.1923  0.4757  0.3248
   80loPI   C4B 1280   8.124  13.475   7.280  0.1455  0.2842  0.2786
   81loPI    C1 1281   3.294   2.789   9.580  0.0878 -0.1216  0.0419
   81loPI    C2 1282   3.015   2.554   9.744 -0.0907  0.0449 -0.0199
   81loPI    C3 1283   3.253   2.775   9.978  0.1663 -0.2924  0.0450
   81loPI   PO4 1284   3.296   2.685   9.281 -0.0718 -0.1407  0.2268
   81loPI   GL1 1285   3.152   2.859   8.826 -0.1863 -0.0686 -0.0787
   81loPI   GL2 1286   2.844   2.879   8.823 -0.1397 -0.4030  0.0635
   81loPI   C1A 1287   3.505   2.823   8.486  0.0418 -0.2901 -0.0546
   81loPI   C2A 1288   3.723   2.817   8.253  0.0873 -0.1813  0.1027
   81loPI   C3A 1289   3.653   2.923   7.789 -0.2413 -0.0163  0.1506
   81loPI   C4A 1290   3.787   2.947   7.319 -0.3991  0.0523  0.0355
   81loPI   C5A 1291   3.408   2.930   7.123  0.4826  0.2441 -0.1114
   81loPI   C6A 1292   3.153   2.960   6.831  0.4736 -0.2222  0.1372
   81loPI   C1B 1293   2.976   2.988   8.360 -0.0984 -0.0118 -0.0640
   81loPI   C2B 1294   2.853   3.060   7.979 -0.2016 -0.0453 -0.0401
   81loPI   C3B 1295   2.669   3.148   7.675  0.1271 -0.0471 -0.5173
   81loPI   C4B 1296   2.511   3.274   7.337 -0.0852 -0.0756  0.1600
   82loPI    C1 1297  19.318  14.269  10.222 -0.0911  0.0702 -0.1211
   82loPI    C2 1298  19.451  14.629  10.108  0.3130 -0.0388 -0.0106
   82loPI    C3 1299  19.624  14.440  10.415 -0.0748 -0.2110  0.1085
   82loPI   PO4 1300  19.404  14.127  10.024 -0.3467  0.1887  0.1974
   82loPI   GL1 1301  19.139  13.928   9.637 -0.0430  0.0988  0.0505
   82loPI   GL2 1302  18.998  14.229   9.480  0.3241  0.2589  0.1474
   82loPI   C1A 1303  18.905  13.620   9.213 -0.2704  0.2401  0.0557
   82loPI   C2A 1304  18.833  13.538   8.741  0.2588 -0.2767 -0.0172
   82loPI   C3A 1305  18.755  13.365   8.290 -0.0882  0.2047  0.0987
   82loPI   C4A 1306  18.799  13.277   7.784 -0.4036 -0.0708 -0.4260
   82loPI   C5A 1307  18.465  13.050   7.518 -0.1463 -0.3371  0.0367
   82loPI   C6A 1308  18.093  12.831   7.473 -0.0571 -0.0915 -0.2161
   82loPI   C1B 1309  18.883  14.116   9.048  0.0344 -0.3469  0.1243
   82loPI   C2B 1310  18.984  14.060   8.675  0.0041 -0.2531  0.2522
   82loPI   C3B 1311  18.804  14.089   8.270 -0.1507  0.1471  0.0752
   82loPI   C4B 1312  18.837  14.162   7.850 -0.0156  0.0022  0.2419
   83loPI    C1 1313   3.924  15.219   9.624 -0.0413  0.2912 -0.0538
   83loPI    C2 1314   3.861  15.561   9.822  0.0234  0.2113  0.1069
   83loPI    C3 1315   3.967  15.232  10.022 -0.1440  0.0697 -0.0343
   83loPI   PO4 1316   3.875  15.340   9.336  0.2245 -0.0511  0.0807
   83loPI   GL1 1317   3.778  15.230   8.902 -0.2493  0.3088  0.1947
   83loPI   GL2 1318   4.024  15.371   8.566  0.0459 -0.0470  0.1550
   83loPI   C1A 1319   3.452  15.326   8.424 -0.2212 -0.0355 -0.0973
   83loPI   C2A 1320   3.289  15.264   7.972 -0.1067  0.1966 -0.0351
   83loPI   C3A 1321   3.486  15.036   7.597 -0.0537 -0.0657 -0.2666
   83loPI   C4A 1322   3.610  15.273   7.216 -0.2205 -0.0717 -0.0605
   83loPI   C5A 1323   3.635  15.555   6.936 -0.1223 -0.1118  0.0044
   83loPI   C6A 1324   3.508  15.908   6.720 -0.2282 -0.0405  0.3543
   83loPI   C1B 1325   4.189  15.491   8.182 -0.0411  0.2267 -0.3426
   83loPI   C2B 1326   4.360  15.361   7.756 -0.0565 -0.0826  0.0511
   83loPI   C3B 1327   4.512  15.128   7.450  0.3520 -0.1014  0.3559
   83loPI   C4B 1328   4.364  14.714   7.496 -0.1693  0.1261 -0.0830
   84loPI    C1 1329   4.159   9.152  10.226  0.2479  0.0699 -0.1192
   84loPI    C2 1330   4.417   9.401  10.403  0.1761 -0.0542  0.1655
   84loPI    C3 1331   4.546   9.056  10.246  0.2404  0.0573 -0.0299
   84loPI   PO4 1332   4.027   9.314  10.090 -0.2276  0.1427  0.1365
   84loPI   GL1 1333   4.024   9.470   9.695 -0.2361  0.0497  0.2645
   84loPI   GL2 1334   3.874   9.549   9.476  0.0645  0.0284  0.0686
   84loPI   C1A 1335   4.146   9.206   9.256  0.1447 -0.6160  0.2671
   84loPI   C2A 1336   4.174   9.247   8.771 -0.1103 -0.1092  0.1469
   84loPI   C3A 1337   4.106   9.186   8.450  0.0918 -0.2950  0.0114
   84loPI   C4A 1338   4.056   9.427   8.016  0.0879 -0.0127  0.0181
   84loPI   C5A 1339   4.062   9.565   7.601  0.1185 -0.0686  0.0669
   84loPI   C6A 1340   4.378   9.809   7.377 -0.0781 -0.2213 -0.0291
   84loPI   C1B 1341   3.887   9.591   9.058 -0.0970  0.1985 -0.2288
   84loPI   C2B 1342   3.837   9.710   8.596  0.0604 -0.0786  0.0583
   84loPI   C3B 1343   3.673   9.728   8.138 -0.0896 -0.1146 -0.0824
   84loPI   C4B 1344   3.504   9.524   7.855  0.1320  0.2145  0.1688
   85loPI    C1 1345  13.713  11.888  10.227  0.1624  0.1188 -0.0793
   85loPI    C2 1346  14.091  11.982  10.316  0.1411  0.1869 -0.0599
   85loPI    C3 1347  13.830  11.906  10.609  0.1802 -0.0227 -0.0777
   85loPI   PO4 1348  13.767  11.642   9.960  0.1040 -0.0697  0.1554
   85loPI   GL1 1349  13.853  11.599   9.582  0.0217 -0.1766 -0.2284
   85loPI   GL2 1350  13.450  11.683   9.533 -0.1657  0.2425 -0.1632
   85loPI   C1A 1351  13.933  11.348   9.180 -0.0650 -0.1432 -0.1037
   85loPI   C2A 1352  14.165  11.173   8.688  0.1632  0.1712 -0.0919
   85loPI   C3A 1353  14.261  11.294   8.279 -0.0287  0.1800  0.1812
   85loPI   C4A 1354  14.601  11.429   7.917 -0.1733  0.1018  0.3792
   85loPI   C5A 1355  14.948  11.439   7.751  0.1203  0.2377  0.2531
   85loPI   C6A 1356  15.094  11.035   7.685  0.0184  0.0023  0.0425
   85loPI   C1B 1357  13.539  11.664   9.111 -0.0201  0.2321  0.1407
   85loPI   C2B 1358  13.517  11.746   8.674 -0.0575 -0.1330 -0.3736
   85loPI   C3B 1359  13.476  11.711   8.210  0.1022 -0.0040  0.2396
   85loPI   C4B 1360  13.368  11.696   7.782 -0.0339 -0.0382  0.3407
   86loPI    C1 1361  19.153  17.919  10.051  0.0364 -0.1574  0.2460
   86loPI    C2 1362  18.854  18.094  10.251 -0.1802 -0.0727 -0.1417
   86loPI    C3 1363  19.147  18.317  10.093 -0.1079 -0.1224 -0.0790
   86loPI   PO4 1364  19.065  17.720   9.896 -0.1271 -0.0848 -0.3533
   86loPI   GL1 1365  19.043  17.450   9.529  0.2783  0.1638 -0.0318
   86loPI   GL2 1366  19.023  17.805   9.356  0.1554  0.2875 -0.0096
   86loPI   C1A 1367  19.146  17.337   9.092  0.1918 -0.0086  0.1806
   86loPI   C2A 1368  19.007  17.321   8.652  0.2834  0.1287  0.0098
   86loPI   C3A 1369  18.923  17.309   8.260  0.1208  0.1365 -0.1857
   86loPI   C4A 1370  18.946  17.282   7.755  0.2699  0.1379 -0.2202
   86loPI   C5A 1371  19.221  17.340   7.442 -0.3653 -0.1757  0.0536
   86loPI   C6A 1372  19.539  17.103   7.373 -0.0050 -0.1725  0.0437
   86loPI   C1B 1373  18.938  17.812   8.960 -0.2208  0.0394  0.2231
   86loPI   C2B 1374  18.766  17.712   8.560 -0.2858 -0.1102  0.0869
   86loPI   C3B 1375  18.943  17.771   8.179  0.2151 -0.2058 -0.0830
   86loPI   C4B 1376  19.088  17.854   7.778 -0.3307 -0.1269 -0.1086
   87loPI    C1 1377   6.095  15.552   9.806 -0.1367 -0.0038 -0.0249
   87loPI    C2 1378   6.212  15.198   9.952 -0.0670  0.0146 -0.0358
   87loPI    C3 1379   5.962  15.428  10.163  0.1004  0.0793  0.0944
   87loPI   PO4 1380   6.095  15.498   9.515 -0.0427 -0.0243 -0.0955
   87loPI   GL1 1381   6.133  15.209   9.298 -0.1635 -0.2052  0.0984
   87loPI   GL2 1382   5.933  15.236   9.032  0.1740 -0.2562 -0.0839
   87loPI   C1A 1383   5.874  14.794   9.248  0.1553 -0.4415  0.0213
   87loPI   C2A 1384   5.685  14.564   8.921 -0.4662 -0.5095  0.1919
   87loPI   C3A 1385   5.603  14.530   8.576 -0.2334  0.0992 -0.0870
   87loPI   C4A 1386   5.511  14.379   8.151  0.1508  0.2232  0.0503
   87loPI   C5A 1387   5.588  14.114   7.708 -0.1018 -0.5978  0.3213
   87loPI   C6A 1388   5.514  13.886   7.333 -0.2827  0.2426  0.3499
   87loPI   C1B 1389   5.821  14.997   8.609  0.1707 -0.0157 -0.0875
   87loPI   C2B 1390   5.706  14.821   8.104  0.1093  0.1011 -0.3516
   87loPI   C3B 1391   5.617  14.739   7.639 -0.3315  0.0004  0.1075
   87loPI   C4B 1392   5.575  14.443   7.267 -0.3477 -0.3470  0.0770
   88loPI    C1 1393   9.174  14.803   9.466  0.2849 -0.2617 -0.1414
   88loPI    C2 1394   9.068  15.157   9.618  0.0990 -0.1223 -0.5796
   88loPI    C3 1395   9.172  14.858   9.862 -0.0046  0.1486 -0.1937
   88loPI   PO4 1396   9.125  14.619   9.249 -0.1185  0.1756  0.0090
   88loPI   GL1 1397   8.937  14.608   8.868  0.1966  0.0940 -0.1851
   88loPI   GL2 1398   9.194  14.595   8.738  0.0375  0.4317 -0.2526
   88loPI   C1A 1399   8.727  14.584   8.485 -0.0645  0.3026  0.3181
   88loPI   C2A 1400   8.535  14.563   8.119 -0.0046 -0.2458  0.0329
   88loPI   C3A 1401   8.644  14.548   7.646  0.0034 -0.0403  0.2120
   88loPI   C4A 1402   8.660  14.614   7.242 -0.0813  0.0447 -0.0826
   88loPI   C5A 1403   8.553  14.479   6.785  0.2012  0.4930  0.1136
   88loPI   C6A 1404   8.460  14.074   6.760 -0.0451  0.1544 -0.3939
   88loPI   C1B 1405   9.188  14.710   8.341  0.0210  0.3475  0.0925
   88loPI   C2B 1406   9.225  14.743   7.878 -0.1053 -0.1758 -0.0895
   88loPI   C3B 1407   9.377  14.698   7.495  0.0259 -0.1799 -0.2031
   88loPI   C4B 1408   9.571  15.097   7.341 -0.0555 -0.2715 -0.1085
   89loPI    C1 1409  11.898  15.977   9.270  0.1060  0.3293 -0.1825
   89loPI    C2 1410  12.109  15.922   9.605 -0.0698  0.0324 -0.1163
   89loPI    C3 1411  12.238  15.766   9.260 -0.1335 -0.0725 -0.0930
   89loPI   PO4 1412  11.827  16.170   9.203 -0.1223  0.1240 -0.0524
   89loPI   GL1 1413  11.869  16.252   8.797 -0.3762 -0.1134  0.0354
   89loPI   GL2 1414  12.086  16.436   8.656 -0.4690  0.4136 -0.0007
   89loPI   C1A 1415  11.457  16.208   8.614  0.1699 -0.1543 -0.3223
   89loPI   C2A 1416  11.457  16.386   8.275 -0.1391  0.0693  0.0718
   89loPI   C3A 1417  11.554  16.446   7.851  0.1290 -0.2395  0.3412
   89loPI   C4A 1418  11.691  16.577   7.487  0.0666 -0.1518  0.3020
   89loPI   C5A 1419  11.777  16.621   6.994 -0.1625  0.0006  0.0188
   89loPI   C6A 1420  11.892  16.908   6.563 -0.1593  0.1672  0.3283
   89loPI   C1B 1421  12.276  16.364   8.247  0.0269  0.3038  0.0951
   89loPI   C2B 1422  12.305  16.511   7.959  0.0266  0.1913 -0.0533
   89loPI   C3B 1423  12.486  16.372   7.625  0.0356  0.0475  0.0574
   89loPI   C4B 1424  12.536  16.300   7.175 -0.2140 -0.0024  0.2563
   90loPI    C1 1425   1.683  19.104   9.510  0.2646  0.0273  0.0400
   90loPI    C2 1426   1.927  18.787   9.496  0.1036 -0.1019  0.1262
   90loPI    C3 1427   2.048  19.126   9.671  0.2250 -0.1620  0.1594
   90loPI   PO4 1428   1.589  19.187   9.323  0.1880  0.1860  0.1908
   90loPI   GL1 1429   1.693  19.103   8.844 -0.3355 -0.0896  0.2134
   90loPI   GL2 1430   1.872  18.905   9.038  0.0790  0.3194  0.0581
   90loPI   C1A 1431   1.579  19.242   8.420 -0.1966  0.0619 -0.3613
   90loPI   C2A 1432   1.615  19.148   8.033  0.2640  0.1855 -0.1875
   90loPI   C3A 1433   1.678  19.081   7.629  0.1101 -0.0530 -0.0824
   90loPI   C4A 1434   1.742  19.039   7.274  0.0570  0.1628 -0.2815
   90loPI   C5A 1435   2.135  18.991   7.030  0.1216 -0.1212 -0.0760
   90loPI   C6A 1436   2.249  18.603   6.845  0.3037 -0.0666  0.4264
   90loPI   C1B 1437   1.924  18.763   8.563  0.1280 -0.0082  0.1379
   90loPI   C2B 1438   1.977  18.820   8.110  0.1015 -0.4145  0.1713
   90loPI   C3B 1439   2.008  18.739   7.769  0.0196  0.2643 -0.0051
   90loPI   C4B 1440   2.186  18.962   7.512 -0.0205  0.4902 -0.1688
   91loPI    C1 1441  12.673   9.244  10.131 -0.0128  0.2984  0.0281
   91loPI    C2 1442  12.438   8.939  10.241  0.3438 -0.0510 -0.1527
   91loPI    C3 1443  12.289   9.310  10.223 -0.0536 -0.1831  0.2343
   91loPI   PO4 1444  12.794   9.073   9.894  0.0075  0.1103  0.2628
   91loPI   GL1 1445  12.847   9.125   9.478  0.2761 -0.2792  0.2089
   91loPI   GL2 1446  13.038   9.156   9.253 -0.3743 -0.2319 -0.1385
   91loPI   C1A 1447  12.592   8.903   9.213  0.1108 -0.1041  0.0849
   91loPI   C2A 1448  12.403   9.048   8.776 -0.1579  0.0174  0.0962
   91loPI   C3A 1449  12.585   9.137   8.354  0.0581  0.2377  0.3968
   91loPI   C4A 1450  12.662   9.414   8.011 -0.1642 -0.2084 -0.3659
   91loPI   C5A 1451  12.647   9.586   7.538  0.0918  0.0370 -0.0569
   91loPI   C6A 1452  12.746   9.557   7.192 -0.3189 -0.0240 -0.1786
   91loPI   C1B 1453  12.947   9.133   8.868 -0.0504 -0.0197  0.0155
   91loPI   C2B 1454  13.094   9.107   8.470 -0.1417  0.1999 -0.0577
   91loPI   C3B 1455  12.992   8.965   7.982 -0.0945 -0.0114  0.0664
   91loPI   C4B 1456  12.827   8.596   7.686  0.1532  0.1624  0.0011
   92loPI    C1 1457  12.374  14.182   9.922  0.0442  0.0444  0.0088
   92loPI    C2 1458  12.628  13.874   9.900  0.1644  0.1431  0.0023
   92loPI    C3 1459  12.622  14.106  10.226  0.0170  0.0853  0.0415
   92loPI   PO4 1460  12.330  14.242   9.688  0.0226  0.1408 -0.3160
   92loPI   GL1 1461  12.318  14.101   9.282 -0.2543  0.1557 -0.2239
   92loPI   GL2 1462  12.551  13.977   9.275  0.0786  0.0988 -0.0067
   92loPI   C1A 1463  12.106  14.271   8.956  0.0913  0.3382 -0.1330
   92loPI   C2A 1464  12.011  14.195   8.660 -0.0119 -0.0271 -0.0685
   92loPI   C3A 1465  11.888  14.017   8.312  0.0182  0.2490  0.1326
   92loPI   C4A 1466  11.956  14.017   7.894  0.1070 -0.0026 -0.0670
   92loPI   C5A 1467  11.756  13.889   7.526 -0.4460 -0.0064  0.2467
   92loPI   C6A 1468  11.522  13.974   7.210 -0.0701  0.1320 -0.0130
   92loPI   C1B 1469  12.508  14.145   8.821  0.0086  0.1065 -0.1599
   92loPI   C2B 1470  12.417  14.099   8.390 -0.2195  0.3327  0.0415
   92loPI   C3B 1471  12.471  14.066   7.997  0.2641  0.1924  0.2596
   92loPI   C4B 1472  12.430  14.012   7.589  0.1310  0.1625  0.1136
   93loPI    C1 1473   2.965  12.119   9.935  0.1367 -0.1426  0.0170
   93loPI    C2 1474   3.044  12.475  10.099 -0.0901 -0.0227 -0.1285
   93loPI    C3 1475   3.096  12.140  10.312  0.0211  0.1038  0.0452
   93loPI   PO4 1476   2.800  12.227   9.746 -0.0619 -0.0430 -0.1181
   93loPI   GL1 1477   2.709  12.153   9.299  0.0936  0.0075  0.0778
   93loPI   GL2 1478   2.406  12.014   9.398  0.1181  0.5385 -0.1261
   93loPI   C1A 1479   2.702  12.125   8.922 -0.1865 -0.0042  0.0232
   93loPI   C2A 1480   2.810  12.118   8.443  0.0508 -0.0105  0.0408
   93loPI   C3A 1481   3.059  12.080   8.032  0.0422  0.2212 -0.0472
   93loPI   C4A 1482   3.042  12.123   7.641  0.0909  0.1119  0.0888
   93loPI   C5A 1483   2.909  12.277   7.313  0.1233  0.1151  0.0564
   93loPI   C6A 1484   2.629  12.250   7.060  0.3848  0.1359  0.0671
   93loPI   C1B 1485   2.033  11.699   9.197  0.0380  0.1355  0.0004
   93loPI   C2B 1486   1.985  11.398   9.020 -0.0240 -0.2581  0.0232
   93loPI   C3B 1487   2.050  11.168   8.677 -0.1714  0.4825 -0.1029
   93loPI   C4B 1488   2.231  11.004   8.225  0.1160  0.4859 -0.2171
   94loPI    C1 1489   9.788   7.601  10.068 -0.1808 -0.0238  0.0129
   94loPI    C2 1490   9.521   7.870  10.196 -0.2386  0.0490 -0.2553
   94loPI    C3 1491   9.665   7.596  10.449 -0.0537  0.4333  0.0654
   94loPI   PO4 1492   9.802   7.753   9.807 -0.2968  0.0362 -0.2127
   94loPI   GL1 1493   9.896   7.578   9.379 -0.3434 -0.0532 -0.1763
   94loPI   GL2 1494  10.014   7.962   9.391  0.1565 -0.1041 -0.1720
   94loPI   C1A 1495   9.899   7.523   9.006 -0.3556  0.3347 -0.3646
   94loPI   C2A 1496  10.062   7.649   8.551 -0.1118  0.1277 -0.0867
   94loPI   C3A 1497  10.103   7.642   8.128 -0.0598 -0.1680 -0.0223
   94loPI   C4A 1498  10.115   7.392   7.670 -0.1582 -0.0344 -0.0766
   94loPI   C5A 1499   9.947   7.203   7.322 -0.0024  0.1932  0.0899
   94loPI   C6A 1500   9.671   7.022   6.942 -0.1873  0.2750 -0.0343
   94loPI   C1B 1501  10.171   7.939   8.936  0.0846  0.1472  0.1275
   94loPI   C2B 1502  10.313   8.100   8.542  0.2091  0.0330 -0.1096
   94loPI   C3B 1503  10.437   8.046   8.146  0.0386  0.0459 -0.2253
   94loPI   C4B 1504  10.385   7.987   7.746 -0.1053  0.2319 -0.0142
   95loPI    C1 1505   4.800   3.413   9.674 -0.3107  0.4014 -0.1444
   95loPI    C2 1506   4.503   3.339   9.931 -0.0853  0.1880  0.0600
   95loPI    C3 1507   4.703   3.684   9.951 -0.1665  0.2346  0.0728
   95loPI   PO4 1508   4.690   3.517   9.401 -0.1623  0.0230 -0.0122
   95loPI   GL1 1509   4.987   3.543   9.044 -0.2257  0.1236  0.0579
   95loPI   GL2 1510   5.110   3.791   9.144 -0.0296 -0.2190 -0.5510
   95loPI   C1A 1511   5.313   3.802   8.654  0.0381  0.1329  0.0896
   95loPI   C2A 1512   5.287   3.933   8.276  0.0449  0.0139 -0.1520
   95loPI   C3A 1513   5.304   4.112   7.810 -0.1169 -0.1617 -0.2507
   95loPI   C4A 1514   5.338   4.200   7.391  0.1276  0.2660 -0.3018
   95loPI   C5A 1515   5.448   4.431   7.047 -0.1821 -0.4246  0.2192
   95loPI   C6A 1516   5.698   4.577   6.699  0.1292  0.1841 -0.0811
   95loPI   C1B 1517   4.923   4.098   8.790 -0.1463 -0.1923 -0.0997
   95loPI   C2B 1518   4.834   4.126   8.366  0.2495  0.2055 -0.3026
   95loPI   C3B 1519   4.861   4.202   8.060 -0.2510  0.2925 -0.0275
   95loPI   C4B 1520   4.835   4.287   7.651 -0.1548  0.0615  0.0964
   96loPI    C1 1521  11.394  10.063   9.436  0.1947  0.0986  0.1698
   96loPI    C2 1522  11.266  10.362   9.203  0.0275  0.0679  0.2203
   96loPI    C3 1523  11.239  10.393   9.600 -0.0429 -0.0374  0.2240
   96loPI   PO4 1524  11.339   9.761   9.348  0.0690  0.1872  0.1408
   96loPI   GL1 1525  11.259   9.450   9.116 -0.0442 -0.1575  0.0276
   96loPI   GL2 1526  10.940   9.404   9.138  0.1729  0.0494 -0.2763
   96loPI   C1A 1527  11.389   9.294   8.798  0.2414 -0.1744 -0.0317
   96loPI   C2A 1528  11.515   9.116   8.331  0.1636 -0.1385  0.1677
   96loPI   C3A 1529  11.713   9.150   7.985  0.3426  0.1363  0.0798
   96loPI   C4A 1530  11.986   9.017   7.694  0.1861 -0.4181 -0.0053
   96loPI   C5A 1531  12.227   8.644   7.451  0.2968  0.0450 -0.2277
   96loPI   C6A 1532  12.170   8.286   7.564  0.0313 -0.1828 -0.1117
   96loPI   C1B 1533  10.819   9.520   8.740  0.0663  0.1679  0.2423
   96loPI   C2B 1534  10.664   9.511   8.317 -0.0515  0.1711  0.1470
   96loPI   C3B 1535  10.858   9.360   7.942  0.2372 -0.0962  0.1067
   96loPI   C4B 1536  10.949   9.278   7.504  0.2634  0.2462 -0.0503
   97loPI    C1 1537  17.728  13.997  10.055 -0.3908  0.0937 -0.0521
   97loPI    C2 1538  17.798  14.288  10.320  0.0358 -0.0437 -0.0067
   97loPI    C3 1539  17.780  13.907  10.441 -0.2387 -0.0651 -0.1079
   97loPI   PO4 1540  17.858  14.056   9.888 -0.0995  0.2769 -0.2229
   97loPI   GL1 1541  17.934  14.150   9.439  0.2977 -0.4065  0.3402
   97loPI   GL2 1542  17.622  14.284   9.513  0.2735 -0.1872 -0.0565
   97loPI   C1A 1543  17.860  14.045   9.077  0.0840 -0.1395 -0.0711
   97loPI   C2A 1544  17.890  14.102   8.626  0.0867  0.1191  0.2348
   97loPI   C3A 1545  18.058  14.118   8.230 -0.3547 -0.1263  0.1201
   97loPI   C4A 1546  18.237  14.181   7.864 -0.0174 -0.1280  0.2698
   97loPI   C5A 1547  18.477  14.095   7.494  0.0009  0.2600 -0.1302
   97loPI   C6A 1548  18.809  13.855   7.432  0.3727  0.1778 -0.0504
   97loPI   C1B 1549  17.433  14.294   9.107 -0.0956 -0.1559  0.3574
   97loPI   C2B 1550  17.406  14.318   8.622  0.0354  0.1177 -0.3112
   97loPI   C3B 1551  17.251  14.349   8.173 -0.1334  0.2102  0.0774
   97loPI   C4B 1552  17.300  14.277   7.764  0.2766  0.1070  0.1025
   98loPI    C1 1553  17.815  17.633   9.880 -0.1827 -0.1169  0.1518
   98loPI    C2 1554  17.919  17.614  10.265  0.2256 -0.1600  0.0435
   98loPI    C3 1555  18.192  17.548   9.981  0.0136  0.2312 -0.2592
   98loPI   PO4 1556  17.646  17.745   9.805  0.3282  0.2804 -0.0694
   98loPI   GL1 1557  17.434  17.785   9.456 -0.0268  0.0759 -0.1702
   98loPI   GL2 1558  17.816  17.812   9.350 -0.1882  0.1434  0.2009
   98loPI   C1A 1559  17.416  17.947   8.997 -0.0447 -0.1024 -0.3340
   98loPI   C2A 1560  17.674  18.111   8.612  0.0513  0.1152  0.1026
   98loPI   C3A 1561  17.647  18.371   8.254  0.0804  0.1050  0.1956
   98loPI   C4A 1562  17.660  18.308   7.811  0.1958 -0.1284 -0.1240
   98loPI   C5A 1563  17.728  18.428   7.455 -0.0276  0.1230 -0.1084
   98loPI   C6A 1564  17.678  18.717   7.183  0.2244  0.2609  0.1751
   98loPI   C1B 1565  17.917  17.776   8.929  0.1592  0.1650  0.0021
   98loPI   C2B 1566  17.991  17.780   8.458  0.0792 -0.0201  0.2233
   98loPI   C3B 1567  17.897  17.880   8.036 -0.1961  0.0184  0.3151
   98loPI   C4B 1568  17.812  17.814   7.635 -0.2035 -0.0036  0.2766
   99loPI    C1 1569   5.726  13.476   9.708 -0.2926 -0.0442 -0.1109
   99loPI    C2 1570   5.715  13.509  10.106  0.0844 -0.2400 -0.0794
   99loPI    C3 1571   5.452  13.710   9.882 -0.0660 -0.0465  0.2612
   99loPI   PO4 1572   6.006  13.366   9.654  0.2614  0.3594 -0.1000
   99loPI   GL1 1573   5.953  13.203   9.183 -0.2169 -0.1702  0.0274
   99loPI   GL2 1574   5.604  13.135   9.120 -0.0625  0.1459  0.2068
   99loPI   C1A 1575   6.064  13.204   8.734 -0.0061  0.0709  0.0560
   99loPI   C2A 1576   6.332  13.060   8.425  0.2089 -0.1053 -0.0403
   99loPI   C3A 1577   6.256  12.948   8.032  0.2016  0.0210 -0.2610
   99loPI   C4A 1578   6.086  13.009   7.601  0.0504  0.0230 -0.0790
   99loPI   C5A 1579   6.064  13.104   7.092 -0.0649  0.2411 -0.2293
   99loPI   C6A 1580   6.250  13.282   6.665 -0.3848  0.0999 -0.2999
   99loPI   C1B 1581   5.563  13.093   8.711  0.1087 -0.3640  0.2831
   99loPI   C2B 1582   5.779  13.057   8.269 -0.2701 -0.1199  0.0146
   99loPI   C3B 1583   5.739  12.730   7.898  0.2375  0.0806  0.0692
   99loPI   C4B 1584   5.788  12.297   7.523 -0.1937 -0.3296 -0.0814
  100loPI    C1 1585   6.645   0.285   9.412  0.0551 -0.0828  0.0075
  100loPI    C2 1586   6.979   0.413   9.590  0.0470  0.1479 -0.1390
  100loPI    C3 1587   6.645   0.362   9.804  0.1173  0.1303 -0.0330
  100loPI   PO4 1588   6.601   0.362   9.117 -0.0801  0.1411 -0.0312
  100loPI   GL1 1589   6.856   0.290   8.797 -0.1532 -0.0706 -0.0935
  100loPI   GL2 1590   6.798  -0.053   8.828  0.2676 -0.0075  0.1227
  100loPI   C1A 1591   6.557   0.358   8.327  0.0906 -0.2758 -0.0657
  100loPI   C2A 1592   6.373   0.318   7.926  0.0946  0.1273 -0.0691
  100loPI   C3A 1593   6.640   0.504   7.635 -0.1789  0.0804 -0.0010
  100loPI   C4A 1594   6.614   0.605   7.187 -0.2830  0.0054 -0.1402
  100loPI   C5A 1595   6.836   0.662   6.782  0.0714  0.0706 -0.1026
  100loPI   C6A 1596   6.799   0.572   6.436  0.0158  0.1058  0.0245
  100loPI   C1B 1597   7.037   0.049   8.366 -0.1571 -0.2080 -0.1698
  100loPI   C2B 1598   7.048  -0.219   8.008  0.2507 -0.1696 -0.1237
  100loPI   C3B 1599   7.102  -0.598   7.725 -0.0555  0.2619 -0.1055
  100loPI   C4B 1600   7.020  -0.969   7.579  0.1905 -0.0755  0.1102
  101loPI    C1 1601   5.711   9.243  10.016 -0.0924 -0.2454 -0.2008
  101loPI    C2 1602   5.384   9.272  10.243  0.1184  0.1373  0.0647
  101loPI    C3 1603   5.698   9.061  10.372 -0.0404 -0.2846 -0.2186
  101loPI   PO4 1604   5.596   9.162   9.719  0.0493 -0.0244 -0.0879
  101loPI   GL1 1605   5.302   9.258   9.349  0.0748 -0.2632 -0.0086
  101loPI   GL2 1606   4.988   9.085   9.332  0.2000 -0.2494  0.1528
  101loPI   C1A 1607   5.378   9.362   8.928 -0.0770  0.3380 -0.1741
  101loPI   C2A 1608   5.325   9.241   8.367  0.2254  0.2510 -0.0537
  101loPI   C3A 1609   5.423   9.359   7.924  0.3583  0.3191  0.0631
  101loPI   C4A 1610   5.720   9.278   7.577  0.0999  0.1421 -0.0489
  101loPI   C5A 1611   5.886   8.894   7.514 -0.1306  0.1077 -0.2606
  101loPI   C6A 1612   6.432   8.605   7.661 -0.0442  0.3283  0.0199
  101loPI   C1B 1613   4.728   9.300   8.913  0.1118 -0.0110 -0.3839
  101loPI   C2B 1614   4.591   9.098   8.501  0.3436 -0.2325 -0.2641
  101loPI   C3B 1615   4.420   8.941   8.159  0.1668 -0.1570  0.1347
  101loPI   C4B 1616   4.226   8.895   7.811  0.2934  0.3948  0.1268
  102loPI    C1 1617   1.219  19.055   9.758  0.1010 -0.1032 -0.0432
  102loPI    C2 1618   1.112  19.373   9.975 -0.2703 -0.1003 -0.2239
  102loPI    C3 1619   1.497  19.268   9.951 -0.1864  0.1071  0.1463
  102loPI   PO4 1620   1.137  19.033   9.528 -0.1977 -0.1323 -0.0395
  102loPI   GL1 1621   1.128  19.088   9.159  0.0126 -0.2128  0.2064
  102loPI   GL2 1622   1.335  18.818   9.070  0.0681  0.1301 -0.1353
  102loPI   C1A 1623   1.176  19.049   8.654  0.3252 -0.0058 -0.2008
  102loPI   C2A 1624   1.250  18.864   8.299 -0.3525  0.2211 -0.1261
  102loPI   C3A 1625   1.531  18.536   7.955 -0.0670  0.1146  0.0783
  102loPI   C4A 1626   1.228  18.220   7.628 -0.1218 -0.2329  0.1510
  102loPI   C5A 1627   1.060  18.028   7.191  0.0122 -0.1108 -0.1276
  102loPI   C6A 1628   0.977  17.953   6.818 -0.0081  0.2605  0.0376
  102loPI   C1B 1629   1.562  18.460   8.852  0.0216  0.2994 -0.0302
  102loPI   C2B 1630   1.510  18.414   8.509 -0.2063  0.0681  0.0464
  102loPI   C3B 1631   1.103  18.396   8.277 -0.0040  0.1199  0.1617
  102loPI   C4B 1632   0.878  18.440   7.908 -0.0420  0.1539  0.1870
  103loPI    C1 1633  11.032  11.254   9.542 -0.2407  0.0534 -0.0619
  103loPI    C2 1634  11.139  11.516   9.824 -0.0631 -0.1420  0.0549
  103loPI    C3 1635  10.845  11.255   9.896 -0.2149 -0.0014 -0.0480
  103loPI   PO4 1636  11.036  11.344   9.228 -0.0012  0.2640  0.1117
  103loPI   GL1 1637  10.873  11.137   8.896  0.2999 -0.3685  0.1264
  103loPI   GL2 1638  11.189  11.059   8.784 -0.1052  0.3151 -0.0510
  103loPI   C1A 1639  10.757  10.963   8.513 -0.3313 -0.1369  0.2909
  103loPI   C2A 1640  10.601  11.020   8.085  0.1479  0.1872  0.0457
  103loPI   C3A 1641  10.534  10.955   7.682  0.0444  0.1834 -0.1186
  103loPI   C4A 1642  10.728  10.707   7.408  0.2428  0.1727 -0.0057
  103loPI   C5A 1643  10.685  10.444   7.034  0.3576  0.1647 -0.3759
  103loPI   C6A 1644  10.469  10.300   6.728  0.1189 -0.2307 -0.0644
  103loPI   C1B 1645  11.177  11.279   8.443  0.4214  0.1725  0.2237
  103loPI   C2B 1646  10.870  11.437   8.273 -0.3317 -0.1487  0.2085
  103loPI   C3B 1647  10.807  11.422   7.863 -0.0267 -0.2570  0.3986
  103loPI   C4B 1648  10.695  11.612   7.485  0.0222 -0.0246 -0.1009
  104loPI    C1 1649   5.230  15.738   9.833 -0.0015  0.0220  0.0463
  104loPI    C2 1650   5.566  15.538   9.918 -0.1448 -0.2114  0.0721
  104loPI    C3 1651   5.394  15.769  10.196 -0.1193 -0.2569  0.1255
  104loPI   PO4 1652   5.267  15.795   9.532 -0.4700 -0.1938  0.2869
  104loPI   GL1 1653   5.041  15.521   9.267  0.1501  0.1488 -0.2001
  104loPI   GL2 1654   4.876  15.381   8.994  0.2529  0.1339 -0.0767
  104loPI   C1A 1655   5.400  15.385   8.910  0.2905  0.0738  0.1517
  104loPI   C2A 1656   5.511  15.342   8.391  0.5371 -0.0753  0.1365
  104loPI   C3A 1657   5.657  15.491   8.084 -0.3532  0.1103  0.0904
  104loPI   C4A 1658   5.823  15.530   7.636  0.1473  0.1365 -0.0181
  104loPI   C5A 1659   6.105  15.857   7.376 -0.3419  0.0342  0.0114
  104loPI   C6A 1660   6.026  16.278   7.244  0.0806  0.0129 -0.0528
  104loPI   C1B 1661   5.000  15.283   8.547 -0.3450 -0.1496 -0.2261
  104loPI   C2B 1662   5.083  15.295   8.135 -0.4463  0.3035 -0.1687
  104loPI   C3B 1663   5.349  15.188   7.817  0.3784 -0.0931 -0.0695
  104loPI   C4B 1664   5.418  15.254   7.428  0.2588 -0.0735  0.3419
  105loPI    C1 1665   8.456  11.960   9.670 -0.3386  0.0136  0.0232
  105loPI    C2 1666   8.322  12.291   9.489 -0.3619  0.0719  0.1463
  105loPI    C3 1667   8.398  12.294   9.882 -0.0460  0.0259  0.0878
  105loPI   PO4 1668   8.251  11.689   9.547 -0.1437 -0.3764 -0.1312
  105loPI   GL1 1669   8.203  11.346   9.143  0.2640  0.1051  0.2263
  105loPI   GL2 1670   7.940  11.429   8.973  0.2478  0.0478  0.0171
  105loPI   C1A 1671   8.232  11.103   8.716  0.1912 -0.1139  0.1460
  105loPI   C2A 1672   8.077  11.014   8.293  0.2056 -0.0173  0.0537
  105loPI   C3A 1673   8.228  10.980   7.904 -0.1019  0.2475  0.2450
  105loPI   C4A 1674   8.419  11.007   7.470  0.1636 -0.3076 -0.1916
  105loPI   C5A 1675   8.583  11.232   7.083 -0.1454  0.1496 -0.1298
  105loPI   C6A 1676   8.423  11.319   6.674 -0.0515 -0.2334  0.0880
  105loPI   C1B 1677   7.839  11.408   8.589  0.0278  0.1025  0.2493
  105loPI   C2B 1678   7.775  11.341   8.080 -0.0416  0.0269  0.1094
  105loPI   C3B 1679   7.573  11.407   7.711  0.1791  0.1575  0.1687
  105loPI   C4B 1680   7.334  11.418   7.400 -0.0864  0.2318  0.0355
  106loPI    C1 1681   1.254  17.280  10.014  0.0117  0.2802  0.0295
  106loPI    C2 1682   0.984  16.994  10.088  0.1777  0.1076 -0.0245
  106loPI    C3 1683   1.235  17.112  10.376  0.1920  0.1109 -0.0383
  106loPI   PO4 1684   1.408  17.250   9.807  0.0713 -0.0878 -0.1511
  106loPI   GL1 1685   1.501  17.230   9.439 -0.0204 -0.1058 -0.3874
  106loPI   GL2 1686   1.762  17.285   9.366 -0.0656  0.1273  0.1183
  106loPI   C1A 1687   1.469  17.443   8.984  0.0017 -0.0315  0.0704
  106loPI   C2A 1688   1.631  17.503   8.509 -0.1345  0.2227 -0.0406
  106loPI   C3A 1689   1.335  17.544   8.156  0.4594  0.0701 -0.1879
  106loPI   C4A 1690   1.088  17.391   7.884  0.2567 -0.1439 -0.0605
  106loPI   C5A 1691   1.114  17.466   7.476 -0.1193  0.0794  0.1698
  106loPI   C6A 1692   1.088  17.485   7.082 -0.6841  0.2338  0.0707
  106loPI   C1B 1693   1.942  17.283   8.881  0.0818 -0.1381  0.0397
  106loPI   C2B 1694   2.333  17.367   8.689  0.1003 -0.3356 -0.1824
  106loPI   C3B 1695   2.310  17.294   8.312 -0.1333 -0.0030 -0.0617
  106loPI   C4B 1696   2.315  17.257   7.821 -0.0042  0.0678  0.0405
  107loPI    C1 1697   0.945  14.586   9.769  0.0307  0.0467 -0.0875
  107loPI    C2 1698   1.127  14.287   9.963 -0.0165  0.0894  0.0229
  107loPI    C3 1699   1.224  14.667  10.044  0.0123  0.1055 -0.0859
  107loPI   PO4 1700   0.898  14.500   9.545 -0.1320  0.2512  0.2157
  107loPI   GL1 1701   0.659  14.291   9.300 -0.0011  0.2743 -0.4199
  107loPI   GL2 1702   0.313  14.036   9.400  0.0449  0.1459  0.0250
  107loPI   C1A 1703   0.759  14.387   8.897 -0.2255 -0.0235 -0.2164
  107loPI   C2A 1704   0.727  14.239   8.482 -0.0315  0.0834 -0.0703
  107loPI   C3A 1705   0.464  14.212   8.064 -0.1621  0.0971 -0.2743
  107loPI   C4A 1706   0.443  14.133   7.603 -0.1571  0.3511 -0.0484
  107loPI   C5A 1707   0.447  14.245   7.140  0.0616  0.0261 -0.1127
  107loPI   C6A 1708   0.675  14.334   6.737 -0.1387 -0.3015  0.2612
  107loPI   C1B 1709   0.353  13.987   8.997  0.1405 -0.4126 -0.0233
  107loPI   C2B 1710   0.183  14.316   8.701 -0.2698  0.0617 -0.1725
  107loPI   C3B 1711   0.012  14.121   8.324  0.1146  0.0959 -0.0305
  107loPI   C4B 1712  -0.026  14.076   7.883  0.0028  0.0219 -0.1177
  108loPI    C1 1713  12.480   0.147   9.468  0.1174 -0.2180 -0.0987
  108loPI    C2 1714  12.550   0.166   9.861  0.1782  0.1001 -0.1221
  108loPI    C3 1715  12.854   0.114   9.606  0.2018  0.3890 -0.1558
  108loPI   PO4 1716  12.213   0.010   9.378 -0.2450  0.3186 -0.1462
  108loPI   GL1 1717  12.192   0.124   8.946  0.0843  0.0471  0.2944
  108loPI   GL2 1718  12.046   0.317   8.917 -0.3111  0.2653 -0.1291
  108loPI   C1A 1719  12.575   0.082   8.752  0.0224  0.0455 -0.0482
  108loPI   C2A 1720  12.744   0.257   8.303 -0.2009 -0.0032 -0.2195
  108loPI   C3A 1721  12.809   0.431   7.899 -0.0775 -0.1154  0.1182
  108loPI   C4A 1722  12.768   0.546   7.413  0.4960  0.0432  0.0996
  108loPI   C5A 1723  12.980   0.701   7.009 -0.2521 -0.3602  0.2221
  108loPI   C6A 1724  12.979   0.939   6.574 -0.2215  0.1133  0.1327
  108loPI   C1B 1725  12.002   0.499   8.586  0.2244 -0.2139 -0.0986
  108loPI   C2B 1726  12.142   0.529   8.178 -0.0917  0.1331  0.1306
  108loPI   C3B 1727  12.204   0.620   7.692 -0.2050 -0.2872 -0.0168
  108loPI   C4B 1728  12.196   0.577   7.252 -0.0417 -0.0735 -0.1106
  109loPI    C1 1729  10.200  11.058   9.352  0.0362 -0.1641  0.0531
  109loPI    C2 1730  10.358  11.109   9.716  0.0338 -0.0792  0.0426
  109loPI    C3 1731  10.596  11.028   9.405  0.0270 -0.2408  0.0784
  109loPI   PO4 1732   9.966  10.945   9.336 -0.0678 -0.0103 -0.1229
  109loPI   GL1 1733   9.674  10.908   8.951  0.1729  0.0459  0.3435
  109loPI   GL2 1734   9.681  10.552   8.978 -0.0155  0.0052 -0.3540
  109loPI   C1A 1735   9.708  10.994   8.490  0.0484  0.0045 -0.0707
  109loPI   C2A 1736   9.634  10.777   8.122  0.1181 -0.1539 -0.0710
  109loPI   C3A 1737   9.620  10.654   7.686 -0.1657 -0.5124 -0.0433
  109loPI   C4A 1738   9.711  10.603   7.335  0.2645  0.2603  0.1664
  109loPI   C5A 1739   9.725  10.762   6.823 -0.3182 -0.0079  0.1444
  109loPI   C6A 1740   9.894  10.619   6.424  0.3906 -0.2097 -0.0618
  109loPI   C1B 1741  10.054  10.659   8.764 -0.4358 -0.0570 -0.0822
  109loPI   C2B 1742  10.228  10.590   8.252  0.0851  0.2416 -0.1169
  109loPI   C3B 1743  10.412  10.494   7.900 -0.5564  0.1393  0.1570
  109loPI   C4B 1744  10.531  10.240   7.576 -0.0352 -0.0393  0.4562
  110loPI    C1 1745  11.366  17.118   9.525 -0.1062  0.1037 -0.0803
  110loPI    C2 1746  11.495  17.286   9.865  0.0736 -0.1341 -0.0284
  110loPI    C3 1747  11.125  17.360   9.733 -0.0016 -0.0491  0.2254
  110loPI   PO4 1748  11.550  17.149   9.317 -0.2095  0.1403 -0.1238
  110loPI   GL1 1749  11.595  17.041   8.945 -0.3672  0.0357  0.1779
  110loPI   GL2 1750  11.355  16.836   8.671 -0.0520 -0.4632  0.1391
  110loPI   C1A 1751  11.829  16.816   8.663 -0.3174  0.1152 -0.1658
  110loPI   C2A 1752  11.905  16.656   8.156 -0.1613 -0.0869  0.1686
  110loPI   C3A 1753  11.909  16.849   7.798 -0.2345 -0.0949  0.1713
  110loPI   C4A 1754  12.162  16.667   7.421 -0.0591 -0.0389  0.2500
  110loPI   C5A 1755  12.298  16.644   6.997 -0.0366 -0.1034  0.2783
  110loPI   C6A 1756  12.354  16.815   6.635  0.0335  0.3057  0.0586
  110loPI   C1B 1757  11.420  16.915   8.197 -0.1801  0.3444  0.0434
  110loPI   C2B 1758  11.410  17.017   7.735 -0.3724  0.0689  0.0175
  110loPI   C3B 1759  11.584  17.145   7.461 -0.1135 -0.1771 -0.0064
  110loPI   C4B 1760  11.604  17.084   7.052 -0.1490  0.1173 -0.0961
  111loPI    C1 1761   6.600   7.321  10.245  0.1479  0.1145  0.1921
  111loPI    C2 1762   6.512   6.989  10.449  0.1179  0.1682  0.2668
  111loPI    C3 1763   6.876   7.150  10.478  0.1781  0.0613  0.1178
  111loPI   PO4 1764   6.425   7.133   9.920 -0.2298  0.2321  0.2480
  111loPI   GL1 1765   6.299   7.044   9.511  0.1064  0.0561 -0.3353
  111loPI   GL2 1766   6.016   6.892   9.489 -0.0179 -0.1024 -0.3139
  111loPI   C1A 1767   6.293   7.427   9.284  0.0413  0.2507  0.3225
  111loPI   C2A 1768   6.244   7.522   8.927 -0.0237 -0.0617  0.4721
  111loPI   C3A 1769   6.105   7.380   8.534  0.1080  0.4607  0.0354
  111loPI   C4A 1770   5.963   7.364   8.066  0.5447  0.0206  0.3107
  111loPI   C5A 1771   5.758   7.353   7.720 -0.0345 -0.2022  0.0477
  111loPI   C6A 1772   5.824   7.076   7.473  0.0414 -0.2404  0.1402
  111loPI   C1B 1773   6.100   7.002   9.025 -0.1924 -0.0433 -0.2201
  111loPI   C2B 1774   5.833   6.957   8.697 -0.1124 -0.3674  0.6296
  111loPI   C3B 1775   5.872   6.878   8.329  0.1925  0.1158 -0.2094
  111loPI   C4B 1776   5.949   6.838   7.874 -0.2660 -0.0915 -0.1061
  112loPI    C1 1777  18.075   9.086  10.699 -0.0673  0.0723  0.1523
  112loPI    C2 1778  18.322   9.006  11.003  0.0607  0.1070  0.0580
  112loPI    C3 1779  18.288   9.380  10.867  0.0087  0.0905  0.0253
  112loPI   PO4 1780  18.129   8.850  10.504 -0.1569 -0.3281 -0.0286
  112loPI   GL1 1781  18.432   9.014  10.111  0.2217 -0.1951 -0.0117
  112loPI   GL2 1782  18.761   9.152  10.035  0.1796 -0.0759 -0.2943
  112loPI   C1A 1783  18.246   8.979   9.693  0.0545 -0.1493  0.1566
  112loPI   C2A 1784  18.528   9.244   9.403  0.1337 -0.1258  0.1921
  112loPI   C3A 1785  18.282   9.463   9.002 -0.2025 -0.2317 -0.0518
  112loPI   C4A 1786  18.065   9.545   8.678 -0.3685 -0.1777  0.1978
  112loPI   C5A 1787  18.140   9.685   8.348  0.0096 -0.1017  0.1490
  112loPI   C6A 1788  18.120   9.429   7.921 -0.4098 -0.1113 -0.0331
  112loPI   C1B 1789  18.969   9.053   9.563 -0.2715  0.1095 -0.4018
  112loPI   C2B 1790  18.955   9.134   9.152 -0.3196  0.1434  0.1628
  112loPI   C3B 1791  19.098   9.248   8.737 -0.1985  0.4073 -0.0992
  112loPI   C4B 1792  19.119   9.524   8.364  0.2438 -0.3570 -0.2930
  113loPI    C1 1793  17.688   9.604  10.396  0.0788  0.1421 -0.0517
  113loPI    C2 1794  17.515   9.801  10.698  0.0605 -0.0866  0.0898
  113loPI    C3 1795  17.814   9.546  10.771  0.0096 -0.1959 -0.0777
  113loPI   PO4 1796  17.744   9.892  10.224 -0.0695  0.2525  0.1975
  113loPI   GL1 1797  17.813  10.059   9.913 -0.0515  0.1131 -0.0714
  113loPI   GL2 1798  17.614   9.820   9.734 -0.2022  0.0014  0.0793
  113loPI   C1A 1799  17.666  10.299   9.621  0.4189 -0.1393  0.0013
  113loPI   C2A 1800  17.370  10.386   9.324  0.2741 -0.1122  0.1459
  113loPI   C3A 1801  17.150  10.360   8.900  0.1608 -0.3621  0.3039
  113loPI   C4A 1802  17.311  10.234   8.514  0.0820 -0.2308 -0.0170
  113loPI   C5A 1803  17.352   9.912   8.187 -0.3340 -0.0851  0.2001
  113loPI   C6A 1804  17.029   9.844   7.861  0.0713  0.3089 -0.2078
  113loPI   C1B 1805  17.508   9.373   9.539 -0.1795 -0.4393  0.1664
  113loPI   C2B 1806  17.184   9.312   9.214  0.1166 -0.0971 -0.2797
  113loPI   C3B 1807  17.119   9.261   8.743 -0.1043  0.0512 -0.2729
  113loPI   C4B 1808  17.331   9.269   8.253 -0.4802  0.5238 -0.0280
  114loPI    C1 1809  16.866  16.990  10.253 -0.2268 -0.0740  0.1131
  114loPI    C2 1810  17.058  16.689  10.433 -0.0956 -0.2450 -0.3003
  114loPI    C3 1811  16.663  16.666  10.371 -0.1610 -0.1377  0.0520
  114loPI   PO4 1812  17.006  17.001   9.965 -0.4124  0.0921  0.0922
  114loPI   GL1 1813  17.267  16.797   9.602  0.0248 -0.1140  0.0863
  114loPI   GL2 1814  17.199  16.991   9.247 -0.1725  0.0608 -0.2895
  114loPI   C1A 1815  17.237  16.470   9.232 -0.2657 -0.0230 -0.0519
  114loPI   C2A 1816  17.119  16.494   8.765 -0.3146  0.0442 -0.1747
  114loPI   C3A 1817  17.080  16.671   8.429 -0.0816 -0.2109  0.2353
  114loPI   C4A 1818  16.977  16.867   8.053  0.1375  0.0226 -0.2744
  114loPI   C5A 1819  17.139  16.965   7.693  0.0248 -0.0222  0.2037
  114loPI   C6A 1820  17.099  17.238   7.283  0.2277  0.0182 -0.0471
  114loPI   C1B 1821  17.136  17.084   8.851  0.4663  0.2573  0.1720
  114loPI   C2B 1822  17.484  17.485   8.606  0.2766  0.2825 -0.1236
  114loPI   C3B 1823  17.452  17.844   8.268  0.0261  0.0564  0.0640
  114loPI   C4B 1824  17.310  17.808   7.845  0.0467 -0.4011  0.0994
  115loPI    C1 1825   9.040   2.526   9.656 -0.2665  0.0761 -0.2688
  115loPI    C2 1826   9.047   2.391  10.032  0.2329  0.1289 -0.2521
  115loPI    C3 1827   9.022   2.784   9.961  0.3415  0.1328 -0.2696
  115loPI   PO4 1828   8.903   2.449   9.479 -0.1606  0.4614 -0.1566
  115loPI   GL1 1829   8.704   2.713   9.196 -0.1424  0.1373  0.1398
  115loPI   GL2 1830   8.411   2.627   9.016  0.2438 -0.0409  0.1689
  115loPI   C1A 1831   8.818   2.942   8.852  0.0525 -0.0710  0.1158
  115loPI   C2A 1832   8.946   2.924   8.481 -0.1043  0.1700 -0.3352
  115loPI   C3A 1833   8.937   2.969   8.088  0.1218 -0.0452 -0.1305
  115loPI   C4A 1834   9.012   2.984   7.699  0.2210 -0.0147 -0.1833
  115loPI   C5A 1835   8.878   2.765   7.390  0.1555 -0.2436  0.3259
  115loPI   C6A 1836   8.804   2.449   7.035 -0.0388 -0.1474 -0.1039
  115loPI   C1B 1837   8.313   2.766   8.588  0.3036 -0.2294 -0.0417
  115loPI   C2B 1838   8.299   2.793   8.188 -0.0536  0.5036 -0.1671
  115loPI   C3B 1839   8.395   2.862   7.811  0.0700 -0.2501  0.0655
  115loPI   C4B 1840   8.384   2.676   7.411 -0.0003 -0.1126 -0.2419
  116loPI    C1 1841   8.873   9.248   9.968 -0.0046 -0.1852 -0.1045
  116loPI    C2 1842   8.695   9.180  10.320  0.1483 -0.0934 -0.0083
  116loPI    C3 1843   8.948   9.487  10.279 -0.2047  0.1669 -0.3196
  116loPI   PO4 1844   8.689   9.314   9.753 -0.0635 -0.1308  0.0630
  116loPI   GL1 1845   8.871   9.073   9.478  0.2649  0.1246  0.4329
  116loPI   GL2 1846   9.016   8.842   9.454 -0.1516  0.2296 -0.3409
  116loPI   C1A 1847   8.989   9.278   9.069 -0.0720  0.0526  0.1265
  116loPI   C2A 1848   9.028   9.062   8.645  0.0184 -0.3479  0.0103
  116loPI   C3A 1849   9.112   8.986   8.352 -0.1932  0.2063  0.0046
  116loPI   C4A 1850   9.004   8.903   8.017 -0.1147  0.5532  0.2357
  116loPI   C5A 1851   9.002   9.028   7.562 -0.0260 -0.1480 -0.2297
  116loPI   C6A 1852   9.093   9.241   7.148 -0.1092 -0.0692 -0.2274
  116loPI   C1B 1853   9.211   8.680   9.158  0.2559  0.0604 -0.0661
  116loPI   C2B 1854   9.260   8.485   8.832  0.0246  0.0255  0.2319
  116loPI   C3B 1855   9.338   8.195   8.666 -0.0407  0.0600  0.2317
  116loPI   C4B 1856   9.217   7.912   8.292  0.0164 -0.1578 -0.1091
  117loPI    C1 1857   7.975   2.052   9.668 -0.2184  0.1150 -0.2252
  117loPI    C2 1858   7.697   1.819   9.835  0.0449  0.0457  0.1283
  117loPI    C3 1859   7.776   2.178   9.991  0.0937  0.1016 -0.0234
  117loPI   PO4 1860   7.888   2.018   9.371 -0.1190 -0.3091  0.2155
  117loPI   GL1 1861   7.890   1.881   8.999 -0.2133 -0.1900 -0.0486
  117loPI   GL2 1862   8.238   2.124   9.009 -0.0220 -0.1043  0.0196
  117loPI   C1A 1863   7.994   1.791   8.642 -0.0227 -0.4115  0.2717
  117loPI   C2A 1864   8.093   1.768   8.140 -0.1143  0.2714 -0.1791
  117loPI   C3A 1865   8.214   1.817   7.763 -0.1517 -0.0792  0.1232
  117loPI   C4A 1866   8.130   1.916   7.293  0.1272  0.2735 -0.2998
  117loPI   C5A 1867   8.132   1.881   6.908 -0.1232 -0.0502 -0.2035
  117loPI   C6A 1868   8.453   1.791   6.619  0.0173 -0.0189  0.0185
  117loPI   C1B 1869   8.606   2.338   8.713  0.1708  0.1523  0.2155
  117loPI   C2B 1870   8.712   2.502   8.334 -0.0200 -0.0814  0.1606
  117loPI   C3B 1871   8.801   2.532   7.945  0.1369  0.2288  0.0477
  117loPI   C4B 1872   8.729   2.378   7.605 -0.1075  0.0918 -0.2486
  118loPI    C1 1873  18.737   1.019   9.799  0.2709 -0.2952 -0.0965
  118loPI    C2 1874  19.000   1.273   9.961 -0.0572 -0.1428  0.2128
  118loPI    C3 1875  19.129   0.943   9.775  0.3597  0.0768  0.0990
  118loPI   PO4 1876  18.609   1.209   9.607 -0.5003 -0.0153 -0.1378
  118loPI   GL1 1877  18.467   1.258   9.219 -0.2840 -0.2451 -0.0190
  118loPI   GL2 1878  18.126   1.200   9.215  0.1029 -0.0076 -0.0670
  118loPI   C1A 1879  18.878   1.371   8.996 -0.0901 -0.2036 -0.2779
  118loPI   C2A 1880  18.763   1.323   8.571 -0.1604  0.1268 -0.0430
  118loPI   C3A 1881  18.950   1.123   8.154 -0.3525 -0.2882 -0.0138
  118loPI   C4A 1882  18.867   1.232   7.628 -0.0456  0.1067  0.2893
  118loPI   C5A 1883  18.781   1.537   7.246  0.0437 -0.0162 -0.0218
  118loPI   C6A 1884  19.037   1.918   7.244 -0.0339 -0.2620 -0.1154
  118loPI   C1B 1885  17.858   1.351   8.858  0.4274  0.2871  0.2289
  118loPI   C2B 1886  17.877   1.614   8.507  0.1590 -0.0567  0.0512
  118loPI   C3B 1887  17.938   1.662   8.065  0.2607 -0.2432 -0.0323
  118loPI   C4B 1888  17.860   1.472   7.644 -0.0302 -0.1246 -0.0437
  119loPI    C1 1889  11.584  14.401   9.107 -0.1301  0.1391  0.0497
  119loPI    C2 1890  11.863  14.331   9.384 -0.1046  0.1616  0.0297
  119loPI    C3 1891  11.476  14.293   9.476 -0.0904 -0.0323  0.0119
  119loPI   PO4 1892  11.545  14.605   8.952  0.1901  0.1142  0.1249
  119loPI   GL1 1893  11.903  14.670   8.715  0.2126  0.2007 -0.0207
  119loPI   GL2 1894  11.709  14.859   8.519  0.0545  0.1877  0.1437
  119loPI   C1A 1895  12.111  14.547   8.309  0.0894 -0.1972 -0.1805
  119loPI   C2A 1896  12.117  14.455   7.906 -0.1136  0.1641 -0.2188
  119loPI   C3A 1897  12.064  14.372   7.485 -0.0719  0.1059  0.0291
  119loPI   C4A 1898  12.099  14.086   7.138  0.0188 -0.3905 -0.4202
  119loPI   C5A 1899  11.944  13.650   6.932 -0.5093 -0.0227  0.1373
  119loPI   C6A 1900  11.689  13.536   6.580  0.1688  0.0386  0.1279
  119loPI   C1B 1901  11.593  14.980   8.088  0.0815 -0.2592  0.1035
  119loPI   C2B 1902  11.553  15.098   7.611  0.1969  0.2501 -0.1684
  119loPI   C3B 1903  11.483  15.352   7.196  0.4216 -0.1806 -0.2661
  119loPI   C4B 1904  11.170  15.460   6.845  0.0610  0.1587  0.1630
  120loPI    C1 1905   2.175   7.735  10.516 -0.0927  0.0972  0.0828
  120loPI    C2 1906   2.184   7.638  10.904 -0.0125  0.0578  0.0711
  120loPI    C3 1907   1.932   7.451  10.656  0.0972 -0.0779  0.0610
  120loPI   PO4 1908   2.460   7.743  10.333 -0.3993 -0.2317 -0.0574
  120loPI   GL1 1909   2.526   7.438   9.896 -0.2328 -0.3635  0.3262
  120loPI   GL2 1910   2.717   7.394   9.746 -0.0699  0.0278  0.1802
  120loPI   C1A 1911   2.206   7.644   9.593  0.1570 -0.2075  0.1226
  120loPI   C2A 1912   1.947   7.449   9.272  0.2837 -0.2598 -0.3805
  120loPI   C3A 1913   1.660   7.703   9.125  0.0797 -0.0435 -0.2418
  120loPI   C4A 1914   1.433   7.633   8.692 -0.1193  0.1066  0.0229
  120loPI   C5A 1915   1.639   7.660   8.235 -0.0026 -0.0418 -0.0002
  120loPI   C6A 1916   1.764   7.366   7.939 -0.3780 -0.2877 -0.0689
  120loPI   C1B 1917   2.604   7.408   9.327  0.1268 -0.2610 -0.3405
  120loPI   C2B 1918   2.692   7.504   8.930  0.1736  0.0024  0.3074
  120loPI   C3B 1919   2.568   7.566   8.518 -0.4009 -0.0776  0.0295
  120loPI   C4B 1920   2.097   7.376   8.353  0.2257 -0.1368 -0.2019
  121loPI    C1 1921   8.991  13.106   9.657 -0.0662 -0.1829 -0.0730
  121loPI    C2 1922   9.227  13.219   9.960 -0.1054  0.2293 -0.1905
  121loPI    C3 1923   9.139  12.832   9.908  0.1841  0.1183  0.1150
  121loPI   PO4 1924   9.016  13.302   9.429  0.2122  0.2586 -0.1563
  121loPI   GL1 1925   9.177  13.171   8.962  0.1826  0.2643 -0.1871
  121loPI   GL2 1926   9.006  13.274   8.740  0.0989  0.2034  0.1669
  121loPI   C1A 1927   9.523  13.105   8.646 -0.1165  0.0855  0.0200
  121loPI   C2A 1928   9.476  12.927   8.140  0.0746  0.0674 -0.1789
  121loPI   C3A 1929   9.693  12.697   7.710 -0.0895  0.2915  0.1853
  121loPI   C4A 1930   9.864  12.654   7.265 -0.0654 -0.1421  0.0257
  121loPI   C5A 1931   9.985  12.242   7.164 -0.1234 -0.3045  0.0948
  121loPI   C6A 1932   9.876  11.863   6.983  0.0916 -0.3090  0.0789
  121loPI   C1B 1933   8.985  13.252   8.327 -0.2547 -0.0052 -0.0412
  121loPI   C2B 1934   9.159  13.269   7.930 -0.0595  0.1096 -0.2764
  121loPI   C3B 1935   9.288  13.026   7.540  0.1996 -0.1189 -0.0279
  121loPI   C4B 1936   9.432  12.828   7.141  0.0297  0.2697  0.0889
  122loPI    C1 1937   7.953   9.973   9.742 -0.1445 -0.0060  0.0533
  122loPI    C2 1938   8.295  10.163   9.826 -0.0224  0.0004 -0.4271
  122loPI    C3 1939   8.267   9.767   9.877 -0.0419  0.0397 -0.1125
  122loPI   PO4 1940   7.794  10.068   9.549 -0.0318 -0.1019  0.0922
  122loPI   GL1 1941   7.769  10.157   9.120  0.1483  0.1465 -0.0206
  122loPI   GL2 1942   7.443  10.080   9.072 -0.0696  0.2206 -0.1990
  122loPI   C1A 1943   7.802  10.198   8.754  0.1914 -0.1777  0.2544
  122loPI   C2A 1944   7.757  10.468   8.392  0.1225  0.2041  0.1270
  122loPI   C3A 1945   7.803  10.552   7.980 -0.0316 -0.4249  0.1759
  122loPI   C4A 1946   8.122  10.534   7.683  0.1023 -0.0043  0.0947
  122loPI   C5A 1947   8.403  10.490   7.284  0.0334  0.2583  0.1707
  122loPI   C6A 1948   8.815  10.289   7.333 -0.3577  0.4600 -0.0186
  122loPI   C1B 1949   7.324   9.902   8.694 -0.1176 -0.1904  0.2888
  122loPI   C2B 1950   7.178   9.717   8.308 -0.3156 -0.1470  0.1762
  122loPI   C3B 1951   7.206   9.497   7.874  0.2210  0.0366 -0.0923
  122loPI   C4B 1952   7.408   9.224   7.636  0.1061 -0.1018 -0.1247
  123loPI    C1 1953  19.086   1.766   9.928  0.0330  0.1596  0.2027
  123loPI    C2 1954  19.421   1.716  10.140  0.0893 -0.1585  0.0443
  123loPI    C3 1955  19.065   1.691  10.320  0.1419 -0.2091  0.1417
  123loPI   PO4 1956  19.221   1.609   9.659 -0.1074  0.1185 -0.1281
  123loPI   GL1 1957  19.369   1.474   9.240  0.0763 -0.1410 -0.0730
  123loPI   GL2 1958  19.273   1.143   9.319 -0.2432  0.0669  0.2054
  123loPI   C1A 1959  19.285   1.438   8.682 -0.3642  0.2255 -0.0765
  123loPI   C2A 1960  19.191   1.577   8.259 -0.1213  0.4561  0.1165
  123loPI   C3A 1961  19.190   1.508   7.858 -0.1488 -0.0760 -0.0488
  123loPI   C4A 1962  19.285   1.537   7.408  0.0497  0.2105  0.1482
  123loPI   C5A 1963  19.564   1.393   7.138  0.0274  0.0427  0.0060
  123loPI   C6A 1964  19.950   1.217   6.911  0.3397 -0.0252 -0.3478
  123loPI   C1B 1965  19.260   1.028   8.930 -0.2857  0.1130  0.0580
  123loPI   C2B 1966  19.351   1.015   8.464 -0.1705 -0.0410  0.0696
  123loPI   C3B 1967  19.442   1.158   8.075  0.3863 -0.1446 -0.0709
  123loPI   C4B 1968  19.646   1.374   7.680 -0.1723  0.1603 -0.0328
  124loPI    C1 1969  16.471   3.584  10.230  0.1382  0.1356 -0.0212
  124loPI    C2 1970  16.367   3.349  10.536  0.1174  0.0870 -0.0653
  124loPI    C3 1971  16.643   3.633  10.587  0.0806  0.1094  0.0102
  124loPI   PO4 1972  16.538   3.357  10.014 -0.0827  0.0633  0.1316
  124loPI   GL1 1973  16.361   3.240   9.584 -0.3146 -0.0206  0.0494
  124loPI   GL2 1974  16.093   3.480   9.457  0.0345 -0.0359 -0.1033
  124loPI   C1A 1975  16.581   3.149   9.349 -0.1078  0.0910 -0.0953
  124loPI   C2A 1976  16.477   3.110   8.825  0.0957  0.2081  0.0563
  124loPI   C3A 1977  16.408   3.115   8.360 -0.1909  0.0827  0.0558
  124loPI   C4A 1978  16.081   2.755   8.294 -0.1870 -0.0697 -0.0726
  124loPI   C5A 1979  16.149   2.791   7.892 -0.1269 -0.0273 -0.1988
  124loPI   C6A 1980  16.401   2.692   7.503 -0.0847  0.2513  0.0094
  124loPI   C1B 1981  16.299   3.545   9.073 -0.1143  0.0873 -0.0645
  124loPI   C2B 1982  16.183   3.644   8.633  0.0270 -0.0090 -0.2262
  124loPI   C3B 1983  16.159   3.552   8.198 -0.0352  0.1267 -0.0749
  124loPI   C4B 1984  16.284   3.269   7.870  0.0342 -0.0335  0.1055
  125loPI    C1 1985   7.978   6.350  10.040  0.3570 -0.0510  0.0891
  125loPI    C2 1986   8.034   6.217  10.413  0.2583  0.1331  0.1707
  125loPI    C3 1987   7.698   6.126  10.218  0.2445  0.1599  0.1819
  125loPI   PO4 1988   8.148   6.321   9.898  0.0953 -0.0785 -0.2315
  125loPI   GL1 1989   8.159   6.354   9.497 -0.0223 -0.1843 -0.0928
  125loPI   GL2 1990   8.364   6.050   9.489 -0.1129 -0.3013 -0.0317
  125loPI   C1A 1991   8.407   6.561   9.141  0.2293  0.1375 -0.2163
  125loPI   C2A 1992   8.238   6.693   8.758  0.0526  0.1640 -0.2632
  125loPI   C3A 1993   8.282   6.633   8.357  0.0546  0.2451  0.0288
  125loPI   C4A 1994   8.195   6.664   7.975 -0.2419 -0.4114  0.1214
  125loPI   C5A 1995   8.182   6.926   7.575  0.1574  0.1162 -0.0859
  125loPI   C6A 1996   8.034   7.314   7.321 -0.0937  0.1549 -0.1159
  125loPI   C1B 1997   8.696   6.168   9.247 -0.0021  0.2635  0.1025
  125loPI   C2B 1998   8.639   6.230   8.841 -0.3695 -0.3708 -0.0208
  125loPI   C3B 1999   8.597   6.275   8.412  0.1024  0.4212  0.0796
  125loPI   C4B 2000   8.551   6.237   7.958  0.0664  0.2309 -0.0749
  126loPI    C1 2001   2.865  18.937   9.317 -0.1041 -0.1508  0.1652
  126loPI    C2 2002   2.701  18.698   9.042  0.0248  0.0876 -0.1254
  126loPI    C3 2003   2.959  18.549   9.309 -0.0558 -0.1354 -0.1695
  126loPI   PO4 2004   2.792  19.173   9.172  0.1992 -0.0423 -0.2647
  126loPI   GL1 2005   2.884  19.231   8.840 -0.1221  0.0628 -0.3724
  126loPI   GL2 2006   3.086  19.190   8.556 -0.1060 -0.1187  0.0049
  126loPI   C1A 2007   2.639  19.314   8.455 -0.3176 -0.0788  0.1060
  126loPI   C2A 2008   2.477  19.060   8.002  0.0096 -0.2216  0.1131
  126loPI   C3A 2009   2.711  19.033   7.577  0.2511 -0.0387 -0.1058
  126loPI   C4A 2010   2.748  19.204   7.146 -0.0061 -0.2155  0.2448
  126loPI   C5A 2011   3.012  19.386   6.914  0.1677 -0.2740  0.1208
  126loPI   C6A 2012   3.306  19.311   6.484 -0.0045  0.1915  0.1262
  126loPI   C1B 2013   3.397  19.158   8.288 -0.3569 -0.2955 -0.1807
  126loPI   C2B 2014   3.482  19.139   7.917 -0.0889  0.0955 -0.0798
  126loPI   C3B 2015   3.705  19.099   7.450 -0.2623 -0.1802 -0.1747
  126loPI   C4B 2016   4.051  18.794   7.321  0.2150  0.2508 -0.1482
  127loPI    C1 2017   7.662   5.637  10.036 -0.0556 -0.1834  0.0552
  127loPI    C2 2018   7.396   5.690  10.330 -0.1562  0.0475 -0.0746
  127loPI    C3 2019   7.445   5.328  10.168 -0.0182 -0.1073  0.3007
  127loPI   PO4 2020   7.574   5.794   9.849 -0.0082 -0.3371  0.0801
  127loPI   GL1 2021   7.398   5.833   9.414  0.2372 -0.0157 -0.5874
  127loPI   GL2 2022   7.236   5.556   9.535 -0.1228  0.1363 -0.0835
  127loPI   C1A 2023   7.516   5.824   9.002  0.0246  0.1009  0.2702
  127loPI   C2A 2024   7.573   5.861   8.553  0.1462 -0.0882 -0.4626
  127loPI   C3A 2025   7.605   5.784   8.064  0.1686  0.1355  0.0022
  127loPI   C4A 2026   7.567   5.848   7.499  0.0194  0.0913 -0.2105
  127loPI   C5A 2027   7.660   5.432   7.193 -0.3248  0.0780 -0.0757
  127loPI   C6A 2028   7.674   5.024   7.265 -0.0167  0.1718  0.0744
  127loPI   C1B 2029   7.144   5.474   9.021 -0.1047  0.0430 -0.0378
  127loPI   C2B 2030   7.013   5.425   8.598  0.1324 -0.0053 -0.0559
  127loPI   C3B 2031   6.870   5.342   8.221  0.1148  0.0669 -0.1400
  127loPI   C4B 2032   6.905   5.208   7.917 -0.0761 -0.1398 -0.2775
  128loPI    C1 2033   0.335  14.544   9.591  0.0828 -0.2133 -0.0863
  128loPI    C2 2034   0.532  14.714   9.894 -0.1932 -0.2918  0.1411
  128loPI    C3 2035   0.549  14.318   9.842 -0.0227 -0.2618 -0.0394
  128loPI   PO4 2036   0.364  14.694   9.446 -0.1131  0.0400 -0.1137
  128loPI   GL1 2037   0.438  14.783   9.074 -0.0707 -0.0276 -0.0746
  128loPI   GL2 2038   0.455  15.157   8.964 -0.0567 -0.0489 -0.2527
  128loPI   C1A 2039   0.550  14.727   8.653  0.2967  0.1536  0.1302
  128loPI   C2A 2040   0.686  14.750   8.203  0.0794 -0.3752  0.1595
  128loPI   C3A 2041   0.709  14.518   7.791  0.2273  0.0634  0.2153
  128loPI   C4A 2042   0.857  14.413   7.376 -0.0372  0.0476 -0.2150
  128loPI   C5A 2043   1.039  14.224   7.008  0.0772  0.0153 -0.1071
  128loPI   C6A 2044   1.231  14.162   6.646  0.0982 -0.1848 -0.1459
  128loPI   C1B 2045   0.531  15.221   8.557 -0.1502  0.2767 -0.0854
  128loPI   C2B 2046   0.885  15.226   8.260 -0.3487 -0.0009 -0.0959
  128loPI   C3B 2047   1.226  15.176   7.930  0.2369  0.1034  0.0586
  128loPI   C4B 2048   1.572  14.970   7.731 -0.0613  0.0216 -0.1329
  129loPI    C1 2049   3.577  18.010   9.625 -0.1892 -0.1470 -0.3576
  129loPI    C2 2050   3.647  17.668   9.819 -0.0162  0.1373  0.0979
  129loPI    C3 2051   3.564  18.000  10.025 -0.3144  0.3454 -0.3430
  129loPI   PO4 2052   3.684  17.883   9.337 -0.0368 -0.3635 -0.0633
  129loPI   GL1 2053   3.739  17.628   8.954 -0.0475 -0.2601 -0.0749
  129loPI   GL2 2054   3.425  17.560   9.000  0.2251 -0.0558  0.1982
  129loPI   C1A 2055   3.734  17.753   8.579  0.2707  0.1887  0.2051
  129loPI   C2A 2056   3.572  17.693   8.109  0.0757  0.1566  0.0537
  129loPI   C3A 2057   3.472  17.751   7.754  0.5258  0.1251 -0.0718
  129loPI   C4A 2058   3.160  17.825   7.549  0.0644 -0.1944  0.4703
  129loPI   C5A 2059   2.743  17.824   7.238 -0.1600 -0.2309 -0.1457
  129loPI   C6A 2060   2.426  17.534   7.103 -0.3115  0.2682  0.0868
  129loPI   C1B 2061   3.272  17.574   8.590  0.2889  0.0515 -0.0342
  129loPI   C2B 2062   3.081  17.739   8.137 -0.5267 -0.1076  0.2885
  129loPI   C3B 2063   2.817  17.951   7.938  0.0653  0.0570 -0.2256
  129loPI   C4B 2064   2.584  18.127   7.575 -0.0668 -0.0786 -0.0833
  130loPI    C1 2065  10.702  10.363   9.434  0.1021  0.2044  0.1365
  130loPI    C2 2066  10.438  10.605   9.612  0.0280  0.1890  0.0481
  130loPI    C3 2067  10.643  10.338   9.829 -0.0370  0.1935  0.1153
  130loPI   PO4 2068  10.775  10.556   9.214 -0.0440 -0.1794 -0.2427
  130loPI   GL1 2069  10.895  10.582   8.844 -0.1403 -0.2262  0.2861
  130loPI   GL2 2070  10.597  10.507   8.706  0.0688  0.0108 -0.1163
  130loPI   C1A 2071  11.206  10.290   8.688 -0.1760  0.3666 -0.0203
  130loPI   C2A 2072  11.198  10.223   8.305 -0.1224 -0.0767 -0.2936
  130loPI   C3A 2073  11.294  10.081   8.011 -0.1202  0.0753  0.3699
  130loPI   C4A 2074  11.594  10.170   7.634  0.0469  0.0715 -0.4552
  130loPI   C5A 2075  11.729  10.471   7.377 -0.1642 -0.3316  0.2178
  130loPI   C6A 2076  12.208  10.663   7.297  0.4260  0.1628  0.3539
  130loPI   C1B 2077  10.706  10.503   8.337  0.0067  0.1709 -0.2018
  130loPI   C2B 2078  10.889  10.356   7.949  0.1169 -0.0736  0.3173
  130loPI   C3B 2079  11.074  10.195   7.541 -0.0609  0.0210  0.0233
  130loPI   C4B 2080  11.189   9.825   7.517  0.0307  0.2200  0.0020
  131loPI    C1 2081  18.160  15.832  10.001  0.0024 -0.2914  0.0941
  131loPI    C2 2082  17.844  15.883  10.241 -0.0963 -0.2318 -0.0467
  131loPI    C3 2083  18.126  15.616  10.336 -0.0785 -0.1312  0.1906
  131loPI   PO4 2084  18.094  15.921   9.772 -0.2240  0.1820 -0.1320
  131loPI   GL1 2085  18.065  16.204   9.452  0.1102 -0.2797  0.1211
  131loPI   GL2 2086  18.212  16.248   9.138 -0.2826  0.0573  0.0425
  131loPI   C1A 2087  17.725  16.388   9.161 -0.0992  0.0400  0.0181
  131loPI   C2A 2088  17.645  16.363   8.816  0.1002  0.0219 -0.0351
  131loPI   C3A 2089  17.484  16.352   8.420 -0.3109 -0.1612  0.3329
  131loPI   C4A 2090  17.708  16.323   8.003 -0.1119 -0.3575 -0.0568
  131loPI   C5A 2091  18.066  16.426   7.619  0.1053  0.1858  0.2662
  131loPI   C6A 2092  18.288  16.281   7.311 -0.1061 -0.3527  0.2516
  131loPI   C1B 2093  18.264  15.939   8.750 -0.3707  0.0958  0.1043
  131loPI   C2B 2094  18.489  15.877   8.301 -0.0409  0.0280 -0.3077
  131loPI   C3B 2095  18.370  15.579   8.057  0.1507  0.0295  0.5349
  131loPI   C4B 2096  18.133  15.313   7.914  0.1121  0.0634 -0.1048
  132loPI    C1 2097  13.926   8.062   9.770  0.0101  0.0623 -0.2975
  132loPI    C2 2098  13.595   8.167   9.572 -0.1413 -0.1392 -0.1561
  132loPI    C3 2099  13.601   8.179   9.972  0.0347 -0.1039 -0.1590
  132loPI   PO4 2100  14.108   8.160   9.593  0.0203 -0.2870  0.0592
  132loPI   GL1 2101  14.204   8.581   9.361  0.4671 -0.1033 -0.2143
  132loPI   GL2 2102  14.208   8.415   9.170  0.0320 -0.2128 -0.2713
  132loPI   C1A 2103  14.083   8.856   8.946 -0.2304 -0.1172 -0.2520
  132loPI   C2A 2104  14.089   8.840   8.511  0.1054  0.1464  0.1544
  132loPI   C3A 2105  14.162   8.939   8.151 -0.2154  0.3371  0.1238
  132loPI   C4A 2106  14.119   9.037   7.663 -0.0923 -0.0836  0.2565
  132loPI   C5A 2107  13.941   9.240   7.277 -0.2332 -0.2318 -0.1712
  132loPI   C6A 2108  13.513   9.136   7.245 -0.2778 -0.2109 -0.0824
  132loPI   C1B 2109  14.168   8.257   8.808  0.4308 -0.0537 -0.0460
  132loPI   C2B 2110  14.155   8.377   8.439 -0.2557  0.1508  0.0451
  132loPI   C3B 2111  14.266   8.402   8.060 -0.0639  0.1231  0.0060
  132loPI   C4B 2112  14.387   8.237   7.750 -0.0686 -0.4185 -0.1830
  133loPI    C1 2113   5.408   4.580   9.660  0.0197 -0.0857 -0.2085
  133loPI    C2 2114   5.345   4.521  10.051 -0.2977 -0.1143 -0.2615
  133loPI    C3 2115   5.718   4.551   9.911 -0.1841  0.0093  0.0593
  133loPI   PO4 2116   5.131   4.453   9.544 -0.1552 -0.0086  0.0793
  133loPI   GL1 2117   5.204   4.462   9.138 -0.1561  0.5075  0.2496
  133loPI   GL2 2118   4.957   4.693   9.178  0.0616 -0.1672 -0.2936
  133loPI   C1A 2119   5.016   4.566   8.719  0.1610  0.0438  0.5184
  133loPI   C2A 2120   4.762   4.629   8.310 -0.2370  0.2515 -0.0339
  133loPI   C3A 2121   4.477   4.473   8.014  0.0105 -0.1732 -0.1712
  133loPI   C4A 2122   4.378   4.566   7.620  0.1792  0.0441  0.2946
  133loPI   C5A 2123   4.576   4.763   7.323  0.1363 -0.1082  0.0339
  133loPI   C6A 2124   4.825   5.183   7.231 -0.0157 -0.0554  0.0744
  133loPI   C1B 2125   4.561   4.717   8.893  0.1620  0.0182  0.1906
  133loPI   C2B 2126   4.293   4.828   8.492 -0.5766  0.2734 -0.3492
  133loPI   C3B 2127   4.391   4.983   8.091 -0.3931 -0.2718 -0.0862
  133loPI   C4B 2128   4.360   5.212   7.640 -0.0320 -0.0676  0.1085
  134loPI    C1 2129   2.309  15.143   9.322  0.2542 -0.1036  0.0524
  134loPI    C2 2130   2.113  15.454   9.480 -0.1865 -0.1300 -0.4165
  134loPI    C3 2131   2.440  15.311   9.661 -0.3722  0.1624  0.1770
  134loPI   PO4 2132   2.239  15.234   9.045 -0.1443 -0.0826 -0.1482
  134loPI   GL1 2133   2.551  15.341   8.810 -0.0659 -0.0458  0.6462
  134loPI   GL2 2134   2.668  15.086   8.883  0.1703 -0.2451 -0.1100
  134loPI   C1A 2135   2.411  15.407   8.471 -0.0342  0.1973 -0.1170
  134loPI   C2A 2136   2.400  15.182   8.066 -0.1375  0.3227  0.1033
  134loPI   C3A 2137   2.460  14.969   7.814  0.0600 -0.2525 -0.1237
  134loPI   C4A 2138   2.110  14.971   7.482 -0.1845  0.2558  0.3239
  134loPI   C5A 2139   1.736  14.664   7.268  0.1375  0.0140 -0.1295
  134loPI   C6A 2140   1.385  14.626   6.941  0.0900  0.2268 -0.2695
  134loPI   C1B 2141   2.851  14.960   8.574  0.0548  0.1335  0.4748
  134loPI   C2B 2142   2.907  14.907   8.163 -0.0837 -0.2086 -0.4380
  134loPI   C3B 2143   2.911  14.901   7.671 -0.2414  0.3389  0.2235
  134loPI   C4B 2144   2.690  14.958   7.325 -0.0841 -0.0624 -0.0728
  135loPI    C1 2145  18.390  12.894  10.384 -0.0090 -0.0298 -0.0824
  135loPI    C2 2146  18.610  13.212  10.489 -0.1209  0.0095  0.0359
  135loPI    C3 2147  18.220  13.199  10.580 -0.1310 -0.1336 -0.0246
  135loPI   PO4 2148  18.493  12.794  10.139 -0.1147 -0.0257  0.2210
  135loPI   GL1 2149  18.692  12.803   9.724  0.1737 -0.1138 -0.2964
  135loPI   GL2 2150  18.478  13.151   9.600 -0.0924 -0.0352 -0.2909
  135loPI   C1A 2151  19.068  12.745   9.509 -0.0009 -0.1413 -0.0414
  135loPI   C2A 2152  19.225  12.689   9.098 -0.0938 -0.0209  0.1669
  135loPI   C3A 2153  19.179  12.637   8.716 -0.0920  0.0072 -0.0777
  135loPI   C4A 2154  19.201  12.692   8.291 -0.1033  0.3001 -0.0844
  135loPI   C5A 2155  19.003  12.631   7.820 -0.0988  0.1800  0.1845
  135loPI   C6A 2156  18.775  12.507   7.518  0.0298 -0.0412 -0.0410
  135loPI   C1B 2157  18.410  13.290   9.127  0.4451  0.0494 -0.0140
  135loPI   C2B 2158  18.322  13.309   8.708  0.1210 -0.3147 -0.1145
  135loPI   C3B 2159  18.215  13.250   8.367  0.3087 -0.2998 -0.4196
  135loPI   C4B 2160  18.273  13.121   7.993 -0.5341  0.1980 -0.3039
  136loPI    C1 2161   1.702   2.332   9.753  0.1806 -0.0076 -0.2248
  136loPI    C2 2162   1.923   2.127  10.016 -0.1527 -0.0863  0.0004
  136loPI    C3 2163   1.638   2.376  10.145 -0.2504 -0.0455 -0.2859
  136loPI   PO4 2164   1.664   2.081   9.524 -0.2004 -0.1225  0.1819
  136loPI   GL1 2165   1.507   2.098   9.102 -0.2138  0.1721  0.2012
  136loPI   GL2 2166   1.257   1.943   9.112  0.2676 -0.2442 -0.2368
  136loPI   C1A 2167   1.663   2.098   8.686 -0.0549 -0.0033 -0.0394
  136loPI   C2A 2168   1.939   2.160   8.305 -0.0970  0.3242 -0.0518
  136loPI   C3A 2169   1.833   2.116   7.891 -0.0227  0.0118 -0.0294
  136loPI   C4A 2170   1.549   2.196   7.535  0.1270  0.0933 -0.1012
  136loPI   C5A 2171   1.239   2.231   7.225 -0.0507 -0.0177 -0.4757
  136loPI   C6A 2172   1.167   1.910   7.074 -0.0064 -0.0051 -0.1122
  136loPI   C1B 2173   1.152   1.998   8.610 -0.1501 -0.1288  0.0923
  136loPI   C2B 2174   1.315   2.073   8.288 -0.0985 -0.3329 -0.0753
  136loPI   C3B 2175   1.254   1.955   7.886 -0.0958  0.1873  0.2442
  136loPI   C4B 2176   1.267   1.694   7.506 -0.3775  0.2283 -0.0334
  137loPI    C1 2177  16.995   4.202  10.117  0.1013 -0.0907 -0.0994
  137loPI    C2 2178  16.776   4.490  10.287 -0.0235 -0.0641 -0.3015
  137loPI    C3 2179  16.964   4.221  10.516 -0.0555  0.0672 -0.1178
  137loPI   PO4 2180  16.942   4.308   9.852 -0.2354 -0.0914  0.2935
  137loPI   GL1 2181  16.724   4.449   9.437  0.0066  0.2663 -0.0107
  137loPI   GL2 2182  16.785   4.140   9.385 -0.1127 -0.1342 -0.4015
  137loPI   C1A 2183  16.539   4.507   9.086 -0.1561  0.2292 -0.0635
  137loPI   C2A 2184  16.581   4.573   8.625 -0.0927  0.0836 -0.0135
  137loPI   C3A 2185  16.370   4.515   8.217 -0.2904  0.2597 -0.1663
  137loPI   C4A 2186  16.082   4.698   7.807 -0.1771  0.1311 -0.2892
  137loPI   C5A 2187  16.179   4.545   7.386 -0.1232 -0.0557  0.1179
  137loPI   C6A 2188  16.296   4.113   7.209  0.0769 -0.2568  0.1741
  137loPI   C1B 2189  16.872   4.206   8.914 -0.0224  0.1063 -0.2059
  137loPI   C2B 2190  16.823   4.126   8.480 -0.0538 -0.2026 -0.0453
  137loPI   C3B 2191  16.837   4.217   8.027  0.0804 -0.1276 -0.2406
  137loPI   C4B 2192  16.554   4.401   7.769  0.1527 -0.0639  0.3210
  138loPI    C1 2193   6.472   4.843   9.649  0.1665 -0.0554  0.0612
  138loPI    C2 2194   6.209   4.545   9.607 -0.0665  0.1441  0.0877
  138loPI    C3 2195   6.563   4.526   9.421 -0.1732 -0.0397 -0.1020
  138loPI   PO4 2196   6.295   5.053   9.576  0.0657  0.0668  0.2985
  138loPI   GL1 2197   6.156   4.939   9.155  0.0640  0.1387 -0.0727
  138loPI   GL2 2198   6.511   4.921   9.129 -0.1562  0.0475 -0.0006
  138loPI   C1A 2199   6.228   5.374   8.980 -0.1926  0.2903 -0.1821
  138loPI   C2A 2200   6.095   5.736   8.904  0.2096  0.1893 -0.3669
  138loPI   C3A 2201   6.122   5.971   8.525  0.2712  0.0972  0.1092
  138loPI   C4A 2202   6.059   5.918   8.136  0.0481 -0.0257 -0.3104
  138loPI   C5A 2203   5.826   6.030   7.819 -0.1045  0.0125  0.0225
  138loPI   C6A 2204   5.765   5.891   7.422 -0.2579 -0.2487  0.7787
  138loPI   C1B 2205   6.612   5.150   8.691 -0.0382  0.0015  0.1015
  138loPI   C2B 2206   6.405   5.130   8.229  0.0718 -0.2307  0.0678
  138loPI   C3B 2207   6.364   5.205   7.786 -0.0124  0.0376  0.3223
  138loPI   C4B 2208   6.228   5.248   7.427  0.0689 -0.0380 -0.3016
  139loPI    C1 2209   0.246  18.139  10.323 -0.0051  0.2375 -0.2815
  139loPI    C2 2210   0.124  18.494  10.461  0.1697  0.2114 -0.0537
  139loPI    C3 2211  -0.079  18.163  10.555  0.1405  0.2241 -0.0724
  139loPI   PO4 2212   0.255  18.186  10.083 -0.1484  0.2753 -0.1246
  139loPI   GL1 2213   0.122  17.963   9.688 -0.0451  0.3368 -0.1251
  139loPI   GL2 2214   0.208  17.783   9.518 -0.1099 -0.1203 -0.0231
  139loPI   C1A 2215   0.220  18.211   9.294  0.2066  0.1432  0.3702
  139loPI   C2A 2216   0.083  18.177   8.855 -0.3308  0.0972 -0.2197
  139loPI   C3A 2217   0.097  18.038   8.480 -0.5376 -0.1351 -0.2744
  139loPI   C4A 2218   0.311  18.001   8.100 -0.0587 -0.2025  0.4461
  139loPI   C5A 2219   0.211  17.947   7.674 -0.2945  0.1731 -0.0037
  139loPI   C6A 2220  -0.111  17.819   7.302 -0.2741  0.1916 -0.0049
  139loPI   C1B 2221   0.244  17.727   9.090 -0.0384  0.0852 -0.0837
  139loPI   C2B 2222   0.149  17.572   8.721 -0.0153  0.2978  0.3160
  139loPI   C3B 2223   0.150  17.419   8.410 -0.1147 -0.2810  0.2405
  139loPI   C4B 2224   0.085  17.473   7.906 -0.1625  0.1905 -0.1255
  140loPI    C1 2225   0.776  17.483  10.246  0.0302 -0.1062 -0.0723
  140loPI    C2 2226   0.413  17.401  10.394  0.0165  0.1154  0.0196
  140loPI    C3 2227   0.633  17.695  10.554  0.2611 -0.0555  0.0018
  140loPI   PO4 2228   0.782  17.501   9.984 -0.3931 -0.0141 -0.2251
  140loPI   GL1 2229   0.874  17.234   9.643 -0.1192 -0.1052 -0.0882
  140loPI   GL2 2230   0.586  17.423   9.448  0.0886 -0.0340 -0.0454
  140loPI   C1A 2231   1.020  17.153   9.251 -0.0721 -0.0385 -0.1411
  140loPI   C2A 2232   1.205  16.920   8.929 -0.0667  0.0815 -0.1415
  140loPI   C3A 2233   1.105  16.679   8.560 -0.2614 -0.2086 -0.1458
  140loPI   C4A 2234   0.879  16.574   8.303 -0.2752  0.2666  0.0862
  140loPI   C5A 2235   0.751  16.432   7.864 -0.2405 -0.2936 -0.2385
  140loPI   C6A 2236   0.954  16.482   7.424  0.1424 -0.1189  0.1760
  140loPI   C1B 2237   0.670  17.569   8.930 -0.2300 -0.2177  0.2863
  140loPI   C2B 2238   0.636  17.566   8.465  0.2671  0.0530  0.2647
  140loPI   C3B 2239   0.563  17.430   8.048  0.1003  0.1794 -0.1459
  140loPI   C4B 2240   0.429  17.493   7.515  0.0883 -0.0588  0.2416
  141loPI    C1 2241  13.650   0.879  10.060  0.4148  0.2462  0.1263
  141loPI    C2 2242  13.647   0.785  10.449  0.1980  0.0558  0.0805
  141loPI    C3 2243  13.553   1.156  10.332  0.3021  0.1243  0.2110
  141loPI   PO4 2244  13.546   0.710   9.915 -0.2091 -0.2083  0.1220
  141loPI   GL1 2245  13.707   0.451   9.546 -0.0874 -0.0893 -0.0699
  141loPI   GL2 2246  14.014   0.280   9.415 -0.0323 -0.2484 -0.1527
  141loPI   C1A 2247  13.476   0.451   9.192 -0.0143  0.2520 -0.1041
  141loPI   C2A 2248  13.465   0.466   8.819 -0.0532  0.3203  0.1184
  141loPI   C3A 2249  13.423   0.362   8.426  0.4336 -0.3829  0.2772
  141loPI   C4A 2250  13.199   0.073   7.993 -0.1154  0.2256 -0.1407
  141loPI   C5A 2251  13.032   0.092   7.510 -0.2399 -0.3783 -0.0362
  141loPI   C6A 2252  12.749   0.015   7.121 -0.2773 -0.0921  0.2832
  141loPI   C1B 2253  13.936   0.361   8.954 -0.1157  0.1919 -0.2290
  141loPI   C2B 2254  13.896   0.207   8.595 -0.1492  0.1458 -0.1069
  141loPI   C3B 2255  13.899   0.360   8.214 -0.1749  0.3611 -0.0519
  141loPI   C4B 2256  13.596   0.592   8.008 -0.3873  0.1162 -0.1472
  142loPI    C1 2257   5.281  10.108  10.095  0.0405 -0.1221 -0.2135
  142loPI    C2 2258   5.598  10.351  10.119  0.1693 -0.2708 -0.3789
  142loPI    C3 2259   5.234  10.485  10.219  0.2974 -0.1267 -0.0953
  142loPI   PO4 2260   5.311  10.065   9.860 -0.0191 -0.0220  0.0751
  142loPI   GL1 2261   5.198  10.158   9.397 -0.0148  0.1566  0.1182
  142loPI   GL2 2262   5.013   9.875   9.389 -0.0198 -0.2943  0.2690
  142loPI   C1A 2263   5.184  10.192   9.047 -0.0317 -0.0389 -0.2156
  142loPI   C2A 2264   5.162  10.157   8.617  0.0708 -0.3235 -0.0375
  142loPI   C3A 2265   5.112  10.056   8.247 -0.0216 -0.1168  0.0161
  142loPI   C4A 2266   5.225   9.847   7.720  0.2188  0.3642  0.2973
  142loPI   C5A 2267   5.458   9.619   7.421  0.2790  0.0961 -0.1836
  142loPI   C6A 2268   5.520   9.749   7.067 -0.0992 -0.1899 -0.1441
  142loPI   C1B 2269   4.975   9.773   8.944 -0.1905  0.0458  0.1378
  142loPI   C2B 2270   4.869   9.587   8.493  0.2298  0.1650 -0.0309
  142loPI   C3B 2271   5.000   9.508   8.008  0.1311  0.0020  0.0368
  142loPI   C4B 2272   5.005   9.453   7.570  0.1004 -0.3888 -0.0654
  143loPI    C1 2273  19.138   9.788  10.428 -0.4084  0.0827 -0.0845
  143loPI    C2 2274  19.348   9.680  10.105 -0.1572  0.1009  0.0698
  143loPI    C3 2275  19.103   9.418  10.281  0.1063 -0.0786  0.1745
  143loPI   PO4 2276  19.061  10.067  10.427 -0.4276  0.2331 -0.1180
  143loPI   GL1 2277  18.922  10.198  10.105 -0.0049 -0.1631  0.0927
  143loPI   GL2 2278  19.076  10.510   9.952  0.0580 -0.3309 -0.2597
  143loPI   C1A 2279  19.164  10.036   9.719  0.2767 -0.0077  0.0094
  143loPI   C2A 2280  19.486  10.013   9.538  0.4469  0.1996 -0.3069
  143loPI   C3A 2281  19.498   9.976   9.076 -0.1400 -0.3417  0.0725
  143loPI   C4A 2282  19.274   9.896   8.615 -0.0694  0.1027 -0.2293
  143loPI   C5A 2283  18.824   9.954   8.416  0.0026 -0.1444  0.1556
  143loPI   C6A 2284  18.708   9.741   8.055 -0.0530  0.0974 -0.2367
  143loPI   C1B 2285  19.401  10.519   9.656 -0.0936 -0.1391  0.1115
  143loPI   C2B 2286  19.533  10.468   9.179  0.2953  0.1587  0.3302
  143loPI   C3B 2287  19.724  10.296   8.733 -0.0917  0.4529  0.0283
  143loPI   C4B 2288  19.796  10.124   8.232  0.1671 -0.2033 -0.1908
  144loPI    C1 2289  17.645  18.296   9.892 -0.0411  0.0704 -0.2298
  144loPI    C2 2290  17.965  18.119  10.055  0.0867  0.3468 -0.1751
  144loPI    C3 2291  17.601  18.054  10.208  0.1638  0.3296  0.0030
  144loPI   PO4 2292  17.701  18.179   9.626 -0.3903 -0.0955 -0.2092
  144loPI   GL1 2293  17.792  18.302   9.168 -0.3698 -0.0036 -0.2564
  144loPI   GL2 2294  17.508  18.379   9.258  0.0499 -0.3204 -0.1129
  144loPI   C1A 2295  18.085  18.380   8.876  0.0686  0.4382  0.2062
  144loPI   C2A 2296  18.144  18.295   8.403 -0.0044 -0.0742 -0.0912
  144loPI   C3A 2297  18.263  18.336   7.972 -0.1328  0.1400  0.2246
  144loPI   C4A 2298  18.143  18.226   7.648  0.1457 -0.0260 -0.2465
  144loPI   C5A 2299  18.257  17.984   7.356 -0.3566 -0.0562 -0.1958
  144loPI   C6A 2300  18.406  17.604   7.177  0.1933  0.0990 -0.0063
  144loPI   C1B 2301  17.300  18.432   8.816 -0.1264  0.1557 -0.2028
  144loPI   C2B 2302  17.388  18.797   8.485 -0.5965  0.1916 -0.2703
  144loPI   C3B 2303  17.477  19.044   8.122 -0.0645  0.3272  0.2513
  144loPI   C4B 2304  17.695  18.968   7.820  0.5397 -0.0268  0.1729
  145loPI    C1 2305  19.322   5.851  10.077  0.2152 -0.1604 -0.0790
  145loPI    C2 2306  19.648   5.652  10.195  0.2856 -0.0582 -0.0998
  145loPI    C3 2307  19.312   5.630  10.410  0.3577 -0.0239  0.0178
  145loPI   PO4 2308  19.340   5.829   9.751 -0.1773 -0.3522 -0.2440
  145loPI   GL1 2309  19.415   5.772   9.289  0.2831 -0.2395  0.0174
  145loPI   GL2 2310  19.672   5.796   9.307 -0.1165  0.0043  0.0515
  145loPI   C1A 2311  19.243   5.620   8.795  0.0885  0.0233  0.0877
  145loPI   C2A 2312  19.300   5.694   8.390 -0.0666  0.0831 -0.0057
  145loPI   C3A 2313  19.379   5.909   8.043  0.0905  0.1232  0.1332
  145loPI   C4A 2314  19.646   5.653   7.690 -0.0840  0.0117 -0.0480
  145loPI   C5A 2315  19.944   5.761   7.386  0.0018  0.4781  0.0740
  145loPI   C6A 2316  19.855   5.843   6.943  0.0103  0.1048 -0.1319
  145loPI   C1B 2317  19.753   5.764   8.890 -0.2146  0.0341  0.3068
  145loPI   C2B 2318  19.795   5.853   8.498  0.1507  0.1524  0.0600
  145loPI   C3B 2319  19.972   5.973   8.066  0.1805 -0.0543 -0.0790
  145loPI   C4B 2320  19.743   6.104   7.710 -0.4087  0.3117 -0.0699
  146loPI    C1 2321   4.221  17.861   9.375 -0.0116 -0.0816  0.0601
  146loPI    C2 2322   4.111  18.088   9.686 -0.1985 -0.0125 -0.0551
  146loPI    C3 2323   4.440  17.862   9.710 -0.0439  0.2225  0.0835
  146loPI   PO4 2324   4.231  17.971   9.079 -0.1233  0.0343 -0.0280
  146loPI   GL1 2325   4.279  17.928   8.624 -0.0360  0.3537 -0.0055
  146loPI   GL2 2326   4.594  18.030   8.675 -0.0733  0.2794  0.1531
  146loPI   C1A 2327   3.989  18.077   8.233  0.2171  0.1506  0.0832
  146loPI   C2A 2328   3.856  18.267   7.821 -0.2428 -0.3601  0.0194
  146loPI   C3A 2329   3.627  18.094   7.425 -0.0593 -0.0288 -0.0909
  146loPI   C4A 2330   3.754  18.279   7.117  0.0321 -0.1917  0.2903
  146loPI   C5A 2331   3.797  18.373   6.727  0.1058 -0.1672  0.2069
  146loPI   C6A 2332   3.359  18.361   6.678 -0.2091 -0.2144 -0.0109
  146loPI   C1B 2333   4.454  18.093   8.121  0.0486  0.0803 -0.2106
  146loPI   C2B 2334   4.408  18.087   7.658 -0.2196  0.1777 -0.2428
  146loPI   C3B 2335   4.183  18.186   7.364  0.0911  0.1484 -0.1321
  146loPI   C4B 2336   4.206  18.397   7.011  0.1013 -0.0822  0.1397
  147loPI    C1 2337   3.452   5.363   9.781 -0.0479 -0.0231 -0.1555
  147loPI    C2 2338   3.646   5.711   9.810 -0.1235  0.0190 -0.1526
  147loPI    C3 2339   3.852   5.369   9.786 -0.0494  0.0618 -0.1296
  147loPI   PO4 2340   3.269   5.479   9.575  0.0038  0.1817 -0.2491
  147loPI   GL1 2341   2.928   5.715   9.611 -0.0591 -0.0949  0.0894
  147loPI   GL2 2342   2.629   5.688   9.482  0.0552 -0.3180  0.1374
  147loPI   C1A 2343   3.070   5.957   9.214  0.0296 -0.1854  0.2966
  147loPI   C2A 2344   2.992   5.967   8.806  0.1275  0.0330  0.0817
  147loPI   C3A 2345   3.025   6.229   8.475  0.0460  0.1442 -0.2326
  147loPI   C4A 2346   2.897   6.348   8.128  0.0231  0.2210 -0.0199
  147loPI   C5A 2347   2.903   6.524   7.803 -0.0713  0.0970  0.3130
  147loPI   C6A 2348   2.754   6.688   7.402 -0.0435  0.0417  0.1750
  147loPI   C1B 2349   2.612   6.073   9.175 -0.2774 -0.0142  0.1940
  147loPI   C2B 2350   2.612   6.345   8.850  0.0144 -0.3209  0.0959
  147loPI   C3B 2351   2.454   6.441   8.414 -0.2794 -0.0076 -0.2707
  147loPI   C4B 2352   2.398   6.535   8.097 -0.3988 -0.1720 -0.0081
  148loPI    C1 2353   3.956  16.409   9.667  0.0895 -0.0696  0.1395
  148loPI    C2 2354   4.179  16.170   9.899  0.1525 -0.0257  0.1243
  148loPI    C3 2355   3.919  16.425  10.065  0.1594 -0.0320  0.1446
  148loPI   PO4 2356   3.839  16.233   9.495  0.0439 -0.0817  0.0680
  148loPI   GL1 2357   3.917  16.259   9.083 -0.0532 -0.2915  0.2144
  148loPI   GL2 2358   3.780  16.616   9.024 -0.0753  0.2036 -0.0151
  148loPI   C1A 2359   3.651  16.211   8.677  0.3851  0.0590  0.0570
  148loPI   C2A 2360   3.925  16.345   8.312 -0.0280  0.2816 -0.4204
  148loPI   C3A 2361   4.040  16.277   7.874  0.1870 -0.0941  0.2292
  148loPI   C4A 2362   3.860  16.362   7.549 -0.0156 -0.0363  0.2185
  148loPI   C5A 2363   3.776  16.594   7.104 -0.0477  0.0053  0.0877
  148loPI   C6A 2364   3.923  16.861   6.759 -0.0946  0.2033  0.0330
  148loPI   C1B 2365   3.641  16.698   8.612  0.0378 -0.2244  0.0220
  148loPI   C2B 2366   3.492  16.739   8.146 -0.0591 -0.0004 -0.0044
  148loPI   C3B 2367   3.488  16.814   7.668 -0.1560 -0.1700  0.1486
  148loPI   C4B 2368   3.285  16.483   7.360 -0.4071 -0.1269 -0.0756
  149loPI    C1 2369   5.720   6.444   9.911 -0.0022 -0.2294  0.0831
  149loPI    C2 2370   5.714   6.475  10.310  0.1019  0.0947  0.0624
  149loPI    C3 2371   5.544   6.160  10.131  0.0123 -0.0286  0.3589
  149loPI   PO4 2372   5.960   6.354   9.801  0.1806  0.0711 -0.1851
  149loPI   GL1 2373   6.013   6.340   9.343  0.4557 -0.0223 -0.1124
  149loPI   GL2 2374   5.666   6.323   9.314 -0.1152  0.0175  0.0504
  149loPI   C1A 2375   6.037   6.402   8.909  0.2233  0.0131  0.0785
  149loPI   C2A 2376   6.184   6.453   8.507  0.4444 -0.4439 -0.3360
  149loPI   C3A 2377   6.511   6.705   8.305  0.0675 -0.3381 -0.0873
  149loPI   C4A 2378   6.558   6.774   7.832  0.3970  0.0959  0.1045
  149loPI   C5A 2379   6.247   6.693   7.510 -0.0295 -0.2738  0.0652
  149loPI   C6A 2380   6.343   6.661   7.085  0.1895 -0.1227  0.2428
  149loPI   C1B 2381   5.463   6.268   8.922 -0.2833 -0.0802 -0.0927
  149loPI   C2B 2382   5.702   6.298   8.554 -0.2836  0.1614  0.0034
  149loPI   C3B 2383   5.825   6.425   8.146 -0.0442 -0.0610 -0.3952
  149loPI   C4B 2384   6.318   6.371   7.980 -0.1572 -0.1521  0.1775
  150loPI    C1 2385  11.425  18.003   9.099  0.2299  0.1827 -0.0518
  150loPI    C2 2386  11.152  18.231   9.282 -0.0837 -0.1649 -0.0748
  150loPI    C3 2387  11.480  18.113   9.479 -0.1805 -0.1338  0.1069
  150loPI   PO4 2388  11.435  18.060   8.887 -0.0235 -0.1107 -0.1644
  150loPI   GL1 2389  11.665  18.379   8.749  0.1581 -0.1393  0.2157
  150loPI   GL2 2390  11.516  18.688   8.718 -0.1581  0.1560  0.0439
  150loPI   C1A 2391  11.686  18.419   8.303  0.1799 -0.1120  0.1345
  150loPI   C2A 2392  11.702  18.611   7.966  0.2522  0.1850  0.2113
  150loPI   C3A 2393  11.621  18.649   7.457 -0.1889  0.5724  0.0238
  150loPI   C4A 2394  11.518  18.855   7.031  0.1960 -0.0632 -0.2826
  150loPI   C5A 2395  11.466  19.151   6.690  0.0820 -0.4092  0.1811
  150loPI   C6A 2396  11.528  19.530   6.812 -0.1655 -0.1565  0.1047
  150loPI   C1B 2397  11.579  18.991   8.288 -0.3142 -0.0431 -0.0238
  150loPI   C2B 2398  11.919  19.054   8.052 -0.1102  0.0928 -0.1054
  150loPI   C3B 2399  12.043  19.110   7.589  0.3965  0.2807  0.1889
  150loPI   C4B 2400  11.974  18.913   7.223  0.0313 -0.0240 -0.0633
  151loPI    C1 2401  18.122   1.103   9.953 -0.0036 -0.0405 -0.1285
  151loPI    C2 2402  18.129   0.792  10.203 -0.0201 -0.0047 -0.0834
  151loPI    C3 2403  18.450   1.028  10.169  0.1314 -0.2480 -0.3984
  151loPI   PO4 2404  17.907   0.958   9.704  0.0795 -0.2764 -0.0188
  151loPI   GL1 2405  17.458   1.040   9.653 -0.1882  0.2691  0.1092
  151loPI   GL2 2406  17.095   1.023   9.702 -0.0086  0.2433  0.1174
  151loPI   C1A 2407  17.495   1.019   9.225 -0.2596 -0.2173  0.0688
  151loPI   C2A 2408  17.367   0.795   8.816  0.2079  0.1263  0.3499
  151loPI   C3A 2409  17.440   0.717   8.319 -0.1577  0.4987 -0.1163
  151loPI   C4A 2410  17.509   0.546   7.936  0.0949 -0.2008  0.1150
  151loPI   C5A 2411  17.680   0.208   7.997 -0.1064 -0.0683 -0.1849
  151loPI   C6A 2412  18.043  -0.079   8.103 -0.1790  0.0709  0.1668
  151loPI   C1B 2413  16.836   1.236   9.268 -0.0887  0.1102  0.0222
  151loPI   C2B 2414  16.937   1.033   8.916  0.1463 -0.0322 -0.1131
  151loPI   C3B 2415  16.977   0.880   8.464 -0.2446 -0.2421 -0.2134
  151loPI   C4B 2416  16.956   0.599   8.074  0.0232 -0.1348  0.1723
  152loPI    C1 2417   7.402   0.535   9.106  0.1354  0.4724 -0.3163
  152loPI    C2 2418   7.027   0.666   9.151 -0.1004 -0.2662  0.0328
  152loPI    C3 2419   7.309   0.772   9.414 -0.0555  0.2805 -0.2230
  152loPI   PO4 2420   7.457   0.622   8.875  0.1845  0.1148 -0.3289
  152loPI   GL1 2421   7.179   0.549   8.548  0.0018 -0.0902  0.0653
  152loPI   GL2 2422   7.067   0.901   8.741  0.1447  0.0339 -0.0326
  152loPI   C1A 2423   7.139   0.492   8.100 -0.0080  0.0121  0.3302
  152loPI   C2A 2424   7.098   0.241   7.769 -0.3462  0.0514 -0.0994
  152loPI   C3A 2425   7.244   0.051   7.472 -0.2194 -0.0287 -0.3180
  152loPI   C4A 2426   7.587  -0.140   7.095  0.2549 -0.1341 -0.0532
  152loPI   C5A 2427   7.715  -0.473   6.735  0.1943 -0.0514 -0.0458
  152loPI   C6A 2428   7.998  -0.620   6.397  0.1448 -0.1167  0.0724
  152loPI   C1B 2429   6.997   0.928   8.271  0.0941  0.1488  0.0170
  152loPI   C2B 2430   7.039   0.893   7.813  0.2932 -0.0582  0.0266
  152loPI   C3B 2431   7.110   0.658   7.472  0.1166 -0.0640  0.3509
  152loPI   C4B 2432   7.333   0.711   7.113  0.0769  0.1113 -0.0710
  153loPI    C1 2433   9.074  17.285   9.770  0.0962 -0.1289  0.1263
  153loPI    C2 2434   9.262  16.938   9.707  0.0542 -0.2337  0.5458
  153loPI    C3 2435   9.457  17.243   9.877  0.1996  0.0812 -0.1494
  153loPI   PO4 2436   8.892  17.274   9.576 -0.1163  0.0316 -0.0044
  153loPI   GL1 2437   8.753  17.305   9.039  0.1134 -0.3573  0.1035
  153loPI   GL2 2438   8.588  17.508   8.964  0.2272  0.2529 -0.3149
  153loPI   C1A 2439   8.733  17.197   8.592  0.1325 -0.3878 -0.3973
  153loPI   C2A 2440   8.726  17.175   8.129 -0.0319  0.1602  0.1860
  153loPI   C3A 2441   8.564  17.324   7.827  0.0411  0.0210  0.1972
  153loPI   C4A 2442   8.581  17.315   7.403  0.1059  0.1109 -0.2669
  153loPI   C5A 2443   8.386  17.592   6.997 -0.2056 -0.2961 -0.0245
  153loPI   C6A 2444   8.396  18.019   6.850  0.2682 -0.2267  0.1119
  153loPI   C1B 2445   8.343  17.672   8.586 -0.0501 -0.2206  0.1973
  153loPI   C2B 2446   8.206  17.338   8.325 -0.0102 -0.5435  0.1959
  153loPI   C3B 2447   8.106  17.261   7.973 -0.2893  0.0098 -0.3704
  153loPI   C4B 2448   8.030  17.273   7.568 -0.1797  0.3350  0.0902
  154loPI    C1 2449   4.503   5.920  10.040  0.0730  0.0510  0.1598
  154loPI    C2 2450   4.674   6.043  10.380  0.0256  0.2879  0.0998
  154loPI    C3 2451   4.365   6.246  10.227  0.1624  0.2895 -0.1809
  154loPI   PO4 2452   4.584   5.899   9.809 -0.0887 -0.2078  0.0691
  154loPI   GL1 2453   4.520   5.675   9.421  0.0964 -0.4288 -0.0268
  154loPI   GL2 2454   4.479   5.417   9.501 -0.3165 -0.3272  0.2271
  154loPI   C1A 2455   4.285   5.621   9.099  0.1318  0.1790  0.0618
  154loPI   C2A 2456   4.046   5.663   8.665  0.2882  0.1106 -0.2733
  154loPI   C3A 2457   3.981   5.745   8.276  0.0282 -0.1775 -0.2694
  154loPI   C4A 2458   3.672   6.015   7.942  0.1352 -0.0714 -0.2769
  154loPI   C5A 2459   3.413   6.131   7.560 -0.2267 -0.1373  0.3735
  154loPI   C6A 2460   3.193   6.495   7.416  0.2592  0.1550 -0.0058
  154loPI   C1B 2461   4.543   5.161   9.156 -0.2872 -0.0540  0.1602
  154loPI   C2B 2462   4.938   5.148   8.894 -0.0254  0.2297 -0.0174
  154loPI   C3B 2463   5.219   5.389   8.654  0.0387  0.2045  0.3578
  154loPI   C4B 2464   5.420   5.413   8.305  0.1371 -0.3293 -0.2147
  155loPI    C1 2465  12.053  17.474   9.441  0.0032  0.0453  0.3252
  155loPI    C2 2466  12.229  17.186   9.227  0.0985  0.2639  0.1047
  155loPI    C3 2467  12.364  17.274   9.593  0.2089  0.1768  0.0856
  155loPI   PO4 2468  12.070  17.706   9.222 -0.3447 -0.0660 -0.1717
  155loPI   GL1 2469  12.384  17.705   8.863  0.2719  0.1084 -0.3938
  155loPI   GL2 2470  12.744  17.802   8.830 -0.0242  0.1818  0.3252
  155loPI   C1A 2471  12.312  17.744   8.324 -0.1781  0.1853  0.0604
  155loPI   C2A 2472  12.148  17.691   7.912  0.0021  0.0006  0.1402
  155loPI   C3A 2473  11.976  17.799   7.501 -0.2715 -0.0015 -0.3790
  155loPI   C4A 2474  11.637  17.829   7.200 -0.1601  0.1564 -0.2075
  155loPI   C5A 2475  11.560  18.024   6.896 -0.2732 -0.0281  0.2687
  155loPI   C6A 2476  11.623  18.490   6.691 -0.1265 -0.1406 -0.0580
  155loPI   C1B 2477  12.915  17.895   8.458  0.0652 -0.1443 -0.1068
  155loPI   C2B 2478  12.780  17.755   8.029  0.1660  0.0006  0.1936
  155loPI   C3B 2479  12.929  17.698   7.598 -0.0416  0.0787  0.2434
  155loPI   C4B 2480  13.234  17.991   7.464  0.0732 -0.0813 -0.2565
  156loPI    C1 2481  12.372   4.454   9.936  0.1075  0.1849 -0.2312
  156loPI    C2 2482  11.985   4.532   9.871  0.0385 -0.0660 -0.1315
  156loPI    C3 2483  12.112   4.442  10.240  0.1999  0.0578 -0.1564
  156loPI   PO4 2484  12.467   4.370   9.716 -0.2321  0.1003  0.0201
  156loPI   GL1 2485  12.405   4.361   9.291  0.2689  0.2097 -0.4336
  156loPI   GL2 2486  12.082   4.564   9.374  0.2501  0.2036  0.0008
  156loPI   C1A 2487  12.090   4.177   9.068 -0.2104 -0.2119  0.1320
  156loPI   C2A 2488  12.045   4.266   8.569 -0.0262  0.3138 -0.1031
  156loPI   C3A 2489  11.992   4.294   8.098  0.1252  0.1385 -0.1351
  156loPI   C4A 2490  12.107   4.265   7.604  0.0399 -0.0787  0.1394
  156loPI   C5A 2491  12.306   4.266   7.182  0.4377  0.0666  0.2607
  156loPI   C6A 2492  12.357   4.005   6.945 -0.0265 -0.1257 -0.1008
  156loPI   C1B 2493  12.372   4.555   8.854 -0.0890  0.2634  0.0397
  156loPI   C2B 2494  12.484   4.858   8.548 -0.3141  0.2033 -0.1992
  156loPI   C3B 2495  12.473   5.039   8.002  0.0876  0.5576  0.1873
  156loPI   C4B 2496  12.479   5.366   7.668  0.0083  0.0418  0.0725
  157loPI    C1 2497   9.150   9.928   9.552 -0.3396  0.0263  0.0308
  157loPI    C2 2498   9.097   9.541   9.466  0.0215 -0.0464  0.1196
  157loPI    C3 2499   9.053   9.671   9.842  0.1858 -0.0567  0.1432
  157loPI   PO4 2500   9.342  10.022   9.353  0.0942  0.0111  0.0875
  157loPI   GL1 2501   9.224  10.272   8.995  0.0836  0.0130 -0.2907
  157loPI   GL2 2502   9.052  10.083   8.733 -0.2101  0.1327  0.0659
  157loPI   C1A 2503   9.555  10.135   8.774  0.1255 -0.1195 -0.1996
  157loPI   C2A 2504   9.792   9.771   8.551  0.1201 -0.0738 -0.1841
  157loPI   C3A 2505   9.818   9.701   8.160 -0.1725 -0.1875 -0.1588
  157loPI   C4A 2506   9.853   9.627   7.673  0.1776 -0.0034  0.1260
  157loPI   C5A 2507  10.179   9.862   7.444  0.1148 -0.0340 -0.0558
  157loPI   C6A 2508  10.453   9.965   7.105  0.1673 -0.0553  0.2812
  157loPI   C1B 2509   9.248  10.169   8.313  0.0079 -0.0131  0.2889
  157loPI   C2B 2510   9.456   9.975   7.962  0.0524 -0.1334  0.0797
  157loPI   C3B 2511   9.604  10.042   7.575  0.1288 -0.0016 -0.2486
  157loPI   C4B 2512   9.772  10.066   7.266  0.4489  0.2086  0.2090
  158loPI    C1 2513  11.615   1.328   9.338  0.1056 -0.1086 -0.1709
  158loPI    C2 2514  11.255   1.218   9.474  0.1131 -0.0279 -0.0844
  158loPI    C3 2515  11.578   1.172   9.705  0.1456 -0.0172 -0.1278
  158loPI   PO4 2516  11.552   1.528   9.149 -0.0582  0.1222 -0.5303
  158loPI   GL1 2517  11.258   1.653   8.820  0.0676 -0.0614 -0.2539
  158loPI   GL2 2518  11.292   1.792   8.578 -0.1839  0.0300 -0.2056
  158loPI   C1A 2519  11.322   1.286   8.517 -0.1754 -0.0059 -0.0659
  158loPI   C2A 2520  11.171   1.334   8.099  0.1131  0.0881 -0.1553
  158loPI   C3A 2521  10.851   1.251   7.774 -0.0177  0.2397 -0.4487
  158loPI   C4A 2522  10.828   1.101   7.402  0.0169 -0.2145  0.0400
  158loPI   C5A 2523  10.902   0.907   6.943  0.1903  0.1315 -0.1048
  158loPI   C6A 2524  11.083   0.785   6.572 -0.0398  0.2401 -0.0767
  158loPI   C1B 2525  11.488   1.911   8.175 -0.0405 -0.1306  0.1060
  158loPI   C2B 2526  11.354   1.810   7.788 -0.2878  0.1096  0.0106
  158loPI   C3B 2527  11.340   1.965   7.403  0.0941 -0.0557  0.0274
  158loPI   C4B 2528  11.265   1.944   7.008  0.1170 -0.2116 -0.1080
  159loPI    C1 2529  14.916   4.128  10.093  0.2633 -0.0038  0.0561
  159loPI    C2 2530  14.958   4.332  10.435  0.3150 -0.2597  0.2053
  159loPI    C3 2531  14.689   4.037  10.410  0.1476 -0.0905 -0.0508
  159loPI   PO4 2532  15.072   4.425   9.960 -0.1165 -0.0734 -0.4939
  159loPI   GL1 2533  15.052   4.631   9.594  0.0383 -0.0742 -0.0154
  159loPI   GL2 2534  15.139   4.956   9.462  0.0306 -0.2163 -0.0465
  159loPI   C1A 2535  14.942   4.375   9.240  0.0408 -0.1813 -0.0788
  159loPI   C2A 2536  15.152   4.112   8.876 -0.0987 -0.1477  0.1767
  159loPI   C3A 2537  15.253   3.929   8.567  0.1040  0.0045 -0.3864
  159loPI   C4A 2538  15.393   4.048   8.071 -0.0275 -0.2490 -0.1813
  159loPI   C5A 2539  15.363   4.207   7.714 -0.1946 -0.0293 -0.3352
  159loPI   C6A 2540  15.706   4.398   7.515  0.2340 -0.2486  0.1864
  159loPI   C1B 2541  15.216   4.734   9.037  0.1962  0.1084  0.0534
  159loPI   C2B 2542  14.965   4.583   8.752 -0.1820  0.0259 -0.4583
  159loPI   C3B 2543  14.895   4.285   8.478  0.1815 -0.3121 -0.4310
  159loPI   C4B 2544  14.933   3.956   8.133 -0.0301 -0.3915 -0.0016
  160loPI    C1 2545  10.869   0.922   9.351 -0.0875 -0.0797 -0.0041
  160loPI    C2 2546  10.853   0.992   9.744 -0.2570 -0.0913 -0.0078
  160loPI    C3 2547  10.812   0.619   9.606 -0.0647 -0.1055 -0.0296
  160loPI   PO4 2548  10.805   1.157   9.218  0.1981  0.1113  0.0181
  160loPI   GL1 2549  10.838   1.265   8.836  0.0018  0.0700 -0.0103
  160loPI   GL2 2550  10.783   1.523   8.840 -0.0757 -0.0209  0.2880
  160loPI   C1A 2551  10.871   1.105   8.496 -0.0140  0.0634 -0.0713
  160loPI   C2A 2552  10.631   0.930   8.135 -0.3624  0.0593 -0.0543
  160loPI   C3A 2553  10.535   0.901   7.785 -0.1374  0.1147  0.0642
  160loPI   C4A 2554  10.319   1.115   7.394 -0.0102  0.0160  0.1518
  160loPI   C5A 2555  10.441   1.248   6.978 -0.3082  0.1324  0.0313
  160loPI   C6A 2556  10.854   1.472   6.999 -0.2867  0.1583 -0.2877
  160loPI   C1B 2557  10.870   1.611   8.368 -0.0590 -0.2151  0.2413
  160loPI   C2B 2558  10.913   1.732   7.997  0.2301  0.2182 -0.1957
  160loPI   C3B 2559  10.722   2.170   8.047  0.5947  0.2594 -0.1130
  160loPI   C4B 2560  10.426   2.453   7.939  0.2124 -0.4584 -0.3521
  161loPI    C1 2561  12.491   0.739   9.707  0.1568 -0.0091 -0.1510
  161loPI    C2 2562  12.726   0.822  10.020 -0.0627 -0.2245  0.0750
  161loPI    C3 2563  12.367   0.656  10.078 -0.2609  0.0701 -0.2679
  161loPI   PO4 2564  12.618   0.640   9.562 -0.1428  0.0925  0.2425
  161loPI   GL1 2565  12.875   0.391   9.227 -0.5000  0.1688  0.1109
  161loPI   GL2 2566  13.031   0.577   9.270 -0.1407 -0.1528  0.3490
  161loPI   C1A 2567  12.969   0.501   8.688  0.3092  0.2345 -0.1435
  161loPI   C2A 2568  13.077   0.672   8.266  0.1515 -0.1175  0.1064
  161loPI   C3A 2569  13.116   0.849   7.860 -0.0204  0.2642  0.1705
  161loPI   C4A 2570  13.257   0.555   7.522 -0.2807  0.0194  0.0318
  161loPI   C5A 2571  13.525   0.308   7.317 -0.0421 -0.1459  0.3572
  161loPI   C6A 2572  13.926   0.255   7.070  0.2038  0.0771  0.0360
  161loPI   C1B 2573  13.204   0.871   9.019  0.0674  0.1545  0.0092
  161loPI   C2B 2574  13.353   0.906   8.589  0.1188  0.1372 -0.2191
  161loPI   C3B 2575  13.401   1.066   8.264 -0.0662  0.2169 -0.1532
  161loPI   C4B 2576  13.283   1.351   7.933  0.2376  0.1260  0.1600
  162loPI    C1 2577  11.962   8.425   9.850 -0.1045 -0.0506 -0.1100
  162loPI    C2 2578  12.234   8.496  10.135 -0.1814  0.0549 -0.0624
  162loPI    C3 2579  11.890   8.314  10.227 -0.2392  0.1578 -0.0731
  162loPI   PO4 2580  12.188   8.495   9.618  0.1534 -0.1567 -0.2239
  162loPI   GL1 2581  11.976   8.509   9.217 -0.3484 -0.3404 -0.1941
  162loPI   GL2 2582  11.639   8.388   9.295 -0.4325  0.0438 -0.0628
  162loPI   C1A 2583  12.047   8.509   8.744  0.0905  0.1538  0.1481
  162loPI   C2A 2584  12.121   8.495   8.286 -0.1514  0.1832  0.0047
  162loPI   C3A 2585  12.010   8.607   7.950  0.0233  0.0818  0.4853
  162loPI   C4A 2586  11.720   8.526   7.653 -0.1385  0.2378  0.1220
  162loPI   C5A 2587  11.503   8.195   7.359 -0.0085  0.0473 -0.1679
  162loPI   C6A 2588  11.112   8.108   7.389 -0.1221 -0.1040  0.1742
  162loPI   C1B 2589  11.343   8.644   8.991  0.0549  0.2293 -0.0870
  162loPI   C2B 2590  11.094   8.571   8.680 -0.0883  0.2373  0.0135
  162loPI   C3B 2591  10.849   8.619   8.215 -0.1443  0.1606 -0.2105
  162loPI   C4B 2592  10.760   8.299   7.886 -0.2750 -0.2432  0.2331
  163loPI    C1 2593   8.480  16.566   9.407  0.1368  0.2627  0.0942
  163loPI    C2 2594   8.725  16.773   9.645  0.1699  0.0314  0.2648
  163loPI    C3 2595   8.544  16.444   9.782 -0.1712  0.1511  0.1134
  163loPI   PO4 2596   8.552  16.669   9.134  0.1329 -0.2043  0.1970
  163loPI   GL1 2597   8.756  16.460   8.769  0.1128  0.0565  0.3988
  163loPI   GL2 2598   8.958  16.778   8.816  0.1451  0.0104 -0.1502
  163loPI   C1A 2599   8.866  16.347   8.386 -0.4382 -0.0839  0.0013
  163loPI   C2A 2600   9.035  16.267   7.996  0.0447  0.0842  0.1518
  163loPI   C3A 2601   8.947  16.277   7.664 -0.1921 -0.4802 -0.0537
  163loPI   C4A 2602   8.660  15.934   7.423 -0.3080 -0.3402 -0.2552
  163loPI   C5A 2603   8.551  16.038   6.986 -0.1011 -0.0503  0.0642
  163loPI   C6A 2604   8.305  16.333   6.871  0.0421 -0.0819 -0.1273
  163loPI   C1B 2605   9.072  16.843   8.330 -0.1393 -0.0108 -0.1653
  163loPI   C2B 2606   9.045  16.764   7.884  0.2629  0.0759  0.0673
  163loPI   C3B 2607   8.716  16.782   7.471  0.2977 -0.3162  0.2891
  163loPI   C4B 2608   8.377  16.879   7.418 -0.1873 -0.0327 -0.3080
  164loPI    C1 2609  16.696  14.391  10.106  0.0422  0.1685  0.0547
  164loPI    C2 2610  16.431  14.188  10.326 -0.0709  0.1249 -0.1199
  164loPI    C3 2611  16.820  14.094  10.343 -0.0733  0.1473  0.0890
  164loPI   PO4 2612  16.549  14.422   9.889  0.1512  0.0331  0.1579
  164loPI   GL1 2613  16.423  14.402   9.495 -0.0042  0.1665  0.1009
  164loPI   GL2 2614  16.171  14.394   9.403 -0.1995 -0.3761 -0.0791
  164loPI   C1A 2615  16.591  14.026   9.268 -0.1257 -0.0369 -0.0769
  164loPI   C2A 2616  16.308  13.706   9.112  0.1792  0.4233 -0.0068
  164loPI   C3A 2617  16.173  13.486   8.754  0.1068 -0.0514  0.0176
  164loPI   C4A 2618  16.020  13.447   8.354  0.0537 -0.3916  0.2476
  164loPI   C5A 2619  15.926  13.474   7.890 -0.1066  0.2182 -0.2771
  164loPI   C6A 2620  15.583  13.605   7.719  0.0696 -0.0880 -0.1281
  164loPI   C1B 2621  16.318  14.383   8.983 -0.0512  0.2484 -0.2417
  164loPI   C2B 2622  16.354  14.184   8.678  0.2251  0.3527  0.3764
  164loPI   C3B 2623  16.411  14.147   8.278 -0.0624 -0.1038 -0.0355
  164loPI   C4B 2624  16.662  14.271   8.069  0.1060 -0.0707  0.0236
  165loPI    C1 2625  11.419   3.689   9.656  0.0433  0.0511  0.0242
  165loPI    C2 2626  11.604   3.616  10.004  0.0055  0.0959  0.0539
  165loPI    C3 2627  11.818   3.704   9.677  0.0513 -0.1304  0.0212
  165loPI   PO4 2628  11.217   3.534   9.608 -0.3811 -0.1201  0.0879
  165loPI   GL1 2629  11.061   3.359   9.201  0.2775 -0.3290  0.2227
  165loPI   GL2 2630  11.183   3.751   9.210 -0.1811 -0.0713  0.1463
  165loPI   C1A 2631  10.843   3.425   8.827  0.1648  0.3896  0.4187
  165loPI   C2A 2632  10.818   3.739   8.446  0.0294  0.0028 -0.0522
  165loPI   C3A 2633  10.838   3.882   8.042  0.0955 -0.0344 -0.0087
  165loPI   C4A 2634  11.120   3.834   7.815  0.0371  0.1382 -0.1903
  165loPI   C5A 2635  11.168   3.838   7.330 -0.3317  0.0782  0.0128
  165loPI   C6A 2636  11.200   4.023   6.867 -0.0178  0.1742 -0.3977
  165loPI   C1B 2637  11.292   3.660   8.918  0.2623  0.1016 -0.1040
  165loPI   C2B 2638  11.314   3.675   8.542 -0.0560 -0.0989  0.2661
  165loPI   C3B 2639  11.337   3.588   8.139  0.2368 -0.2935  0.1397
  165loPI   C4B 2640  11.188   3.360   7.783  0.2129 -0.0199  0.2451
  166loPI    C1 2641  12.947  11.379  10.055 -0.0669 -0.2082 -0.0663
  166loPI    C2 2642  13.324  11.243  10.059  0.0016 -0.0195  0.2506
  166loPI    C3 2643  13.249  11.627  10.142 -0.2618 -0.0557  0.1891
  166loPI   PO4 2644  12.836  11.330   9.760  0.0446  0.0836  0.0743
  166loPI   GL1 2645  12.985  11.037   9.343 -0.0129 -0.1668  0.1107
  166loPI   GL2 2646  13.252  11.247   9.485  0.0882 -0.0595 -0.1473
  166loPI   C1A 2647  13.091  10.965   8.893 -0.1099 -0.0840 -0.0012
  166loPI   C2A 2648  12.981  10.997   8.462  0.1615 -0.1789  0.2341
  166loPI   C3A 2649  12.826  11.148   8.066 -0.2254  0.1418  0.2167
  166loPI   C4A 2650  12.578  11.154   7.658  0.4893 -0.1015 -0.0064
  166loPI   C5A 2651  12.614  11.374   7.295  0.1379 -0.2347  0.1774
  166loPI   C6A 2652  12.795  11.389   6.874  0.3962  0.2740  0.0459
  166loPI   C1B 2653  13.475  11.179   9.144  0.0414 -0.4264  0.3573
  166loPI   C2B 2654  13.672  11.280   8.808  0.2002  0.2513 -0.0418
  166loPI   C3B 2655  13.821  11.378   8.378 -0.0178  0.2716  0.1078
  166loPI   C4B 2656  13.884  11.527   8.000  0.0098 -0.1565  0.0293
  167loPI    C1 2657  18.604  12.369  10.425 -0.1647  0.0194  0.2670
  167loPI    C2 2658  18.546  12.253  10.803  0.0127 -0.3326  0.1912
  167loPI    C3 2659  18.910  12.226  10.640  0.0025  0.1006  0.0859
  167loPI   PO4 2660  18.425  12.218  10.248  0.2779 -0.1840  0.2133
  167loPI   GL1 2661  18.269  12.171   9.769  0.0450 -0.0647 -0.2521
  167loPI   GL2 2662  18.317  12.467   9.768 -0.3683  0.1727  0.0333
  167loPI   C1A 2663  18.187  12.202   9.283 -0.1157 -0.2807  0.0606
  167loPI   C2A 2664  18.372  12.134   8.854  0.3375 -0.1160 -0.3466
  167loPI   C3A 2665  18.417  11.857   8.488  0.1913  0.2426  0.0065
  167loPI   C4A 2666  18.386  11.405   8.400 -0.1729 -0.1407 -0.1379
  167loPI   C5A 2667  18.339  11.085   8.105 -0.0546  0.0101 -0.4700
  167loPI   C6A 2668  18.193  11.280   7.653  0.0697  0.1462 -0.0209
  167loPI   C1B 2669  18.287  12.742   9.385 -0.4018 -0.2946 -0.2735
  167loPI   C2B 2670  18.339  12.726   8.889 -0.1846 -0.0550 -0.0530
  167loPI   C3B 2671  18.201  12.754   8.398 -0.3394 -0.1352  0.1710
  167loPI   C4B 2672  17.925  12.512   8.074 -0.3983 -0.0076  0.1422
  168loPI    C1 2673   7.528  18.747   9.168  0.2772 -0.0956 -0.1991
  168loPI    C2 2674   7.784  18.714   9.473 -0.0120 -0.0366  0.0547
  168loPI    C3 2675   7.922  18.736   9.098  0.3436 -0.1994  0.1714
  168loPI   PO4 2676   7.381  18.523   9.142 -0.0192 -0.0261  0.1189
  168loPI   GL1 2677   7.352  18.572   8.733 -0.3586 -0.1664 -0.1360
  168loPI   GL2 2678   7.647  18.797   8.677  0.0286  0.0964  0.1050
  168loPI   C1A 2679   7.737  18.257   8.725  0.1278 -0.1988 -0.2457
  168loPI   C2A 2680   7.861  17.974   8.447  0.0026 -0.0315 -0.1089
  168loPI   C3A 2681   7.804  17.744   8.160  0.0096  0.3749  0.1737
  168loPI   C4A 2682   7.629  17.567   7.780 -0.1191 -0.1095 -0.0576
  168loPI   C5A 2683   7.573  17.418   7.364  0.3580  0.2147  0.0936
  168loPI   C6A 2684   7.521  17.459   6.937 -0.0248  0.2372  0.2549
  168loPI   C1B 2685   7.751  18.557   8.284  0.2402 -0.0711 -0.1588
  168loPI   C2B 2686   7.903  18.257   8.028 -0.1025  0.2499 -0.2857
  168loPI   C3B 2687   7.843  17.969   7.646 -0.3881  0.0765  0.1049
  168loPI   C4B 2688   7.980  17.798   7.148  0.1361 -0.0241 -0.2322
  169loPI    C1 2689  18.763   5.114  10.102  0.0855  0.0279  0.0536
  169loPI    C2 2690  18.834   5.447  10.312 -0.0584  0.0926  0.0013
  169loPI    C3 2691  19.011   5.103  10.416  0.0882  0.1840  0.0576
  169loPI   PO4 2692  18.731   5.127   9.805 -0.2545  0.3062  0.0705
  169loPI   GL1 2693  18.727   5.241   9.475 -0.1021  0.2058 -0.2000
  169loPI   GL2 2694  19.045   5.401   9.359 -0.1678  0.1072 -0.4967
  169loPI   C1A 2695  18.677   5.446   9.000 -0.3024  0.3902 -0.2526
  169loPI   C2A 2696  18.827   5.429   8.582  0.1020  0.2697  0.2336
  169loPI   C3A 2697  18.880   5.257   8.133 -0.2572  0.1313 -0.3804
  169loPI   C4A 2698  18.761   5.187   7.746  0.1388 -0.5360  0.2068
  169loPI   C5A 2699  18.619   5.555   7.351 -0.1665 -0.4140 -0.2018
  169loPI   C6A 2700  18.615   5.586   6.879  0.0765 -0.3746 -0.2637
  169loPI   C1B 2701  19.098   5.182   9.001  0.0292 -0.2955  0.0387
  169loPI   C2B 2702  19.287   5.212   8.532 -0.0285  0.1444 -0.1403
  169loPI   C3B 2703  19.542   4.916   8.402 -0.5135  0.0586 -0.0942
  169loPI   C4B 2704  19.576   4.722   7.999 -0.2384  0.0483 -0.0524
  170loPI    C1 2705  13.052   3.692  10.169  0.0014  0.0501 -0.3116
  170loPI    C2 2706  13.438   3.755  10.254 -0.0858 -0.0058  0.1496
  170loPI    C3 2707  13.210   4.057  10.124  0.1014  0.0355 -0.0901
  170loPI   PO4 2708  13.009   3.553   9.939 -0.2340  0.0274 -0.3733
  170loPI   GL1 2709  13.174   3.245   9.550  0.0886  0.0268 -0.0927
  170loPI   GL2 2710  13.170   3.594   9.407  0.1038  0.2930 -0.0558
  170loPI   C1A 2711  13.291   3.008   9.160  0.2384 -0.1989 -0.2398
  170loPI   C2A 2712  13.382   2.902   8.716 -0.0179  0.2110 -0.0090
  170loPI   C3A 2713  13.256   2.783   8.364 -0.0542  0.1668  0.3998
  170loPI   C4A 2714  13.019   2.738   8.031  0.0958  0.0674 -0.1429
  170loPI   C5A 2715  12.975   2.668   7.553  0.2025 -0.2245  0.0389
  170loPI   C6A 2716  12.918   2.936   7.186 -0.0007 -0.0270 -0.3112
  170loPI   C1B 2717  13.197   3.569   8.982  0.1225 -0.1932 -0.1165
  170loPI   C2B 2718  13.264   3.453   8.498  0.2240  0.0984  0.1953
  170loPI   C3B 2719  13.067   3.249   8.190  0.0035  0.1069 -0.0475
  170loPI   C4B 2720  13.051   3.101   7.760 -0.0324 -0.1132  0.0134
  171loPI    C1 2721  14.341  18.275   9.449 -0.0891  0.2038  0.1530
  171loPI    C2 2722  14.715  18.407   9.399 -0.0547  0.1010  0.1362
  171loPI    C3 2723  14.602  18.256   9.752 -0.0604  0.0689  0.1206
  171loPI   PO4 2724  14.193  18.314   9.185 -0.0955 -0.4406 -0.1467
  171loPI   GL1 2725  14.013  18.245   8.847  0.0545 -0.0891 -0.2017
  171loPI   GL2 2726  14.057  18.544   8.719  0.1891  0.1825  0.2207
  171loPI   C1A 2727  13.983  17.956   8.530 -0.1773 -0.0789 -0.1617
  171loPI   C2A 2728  13.961  17.994   8.093  0.1562  0.3208  0.1239
  171loPI   C3A 2729  13.799  18.153   7.652  0.0798 -0.0651  0.0920
  171loPI   C4A 2730  13.917  18.286   7.271  0.0734  0.1400 -0.0852
  171loPI   C5A 2731  14.315  18.476   7.342  0.2199  0.1945  0.0406
  171loPI   C6A 2732  14.649  18.615   7.649 -0.0850  0.1080 -0.2799
  171loPI   C1B 2733  13.888  18.427   8.371  0.0853  0.1110 -0.3231
  171loPI   C2B 2734  13.720  18.535   7.903 -0.1994  0.2414 -0.2948
  171loPI   C3B 2735  13.601  18.882   7.639  0.2598 -0.0066 -0.1934
  171loPI   C4B 2736  13.505  19.126   7.345 -0.0743  0.0588  0.0150
  172loPI    C1 2737   5.172  14.604   9.794  0.0577  0.0674  0.1400
  172loPI    C2 2738   5.127  14.719  10.175  0.1140 -0.3654  0.2833
  172loPI    C3 2739   4.811  14.714   9.929  0.1082  0.0713  0.2733
  172loPI   PO4 2740   5.432  14.702   9.731 -0.1901 -0.1578 -0.1142
  172loPI   GL1 2741   5.335  14.876   9.365 -0.3756 -0.0199  0.0057
  172loPI   GL2 2742   5.218  15.033   9.201  0.0234  0.1418 -0.3843
  172loPI   C1A 2743   5.245  14.501   9.133  0.1837 -0.2891  0.2046
  172loPI   C2A 2744   5.112  14.453   8.646 -0.0765 -0.0741  0.2678
  172loPI   C3A 2745   4.973  14.426   8.253  0.0511  0.2687  0.0038
  172loPI   C4A 2746   4.746  14.520   7.844 -0.0336  0.0334  0.1977
  172loPI   C5A 2747   4.812  14.388   7.408 -0.0797 -0.2748 -0.3348
  172loPI   C6A 2748   5.108  14.328   7.138 -0.0919 -0.2267  0.2707
  172loPI   C1B 2749   5.303  14.902   8.756 -0.2258 -0.1762  0.2009
  172loPI   C2B 2750   5.286  14.867   8.368 -0.2205  0.0796 -0.1572
  172loPI   C3B 2751   5.207  14.737   7.959 -0.2323  0.0467  0.2136
  172loPI   C4B 2752   5.203  14.390   7.672  0.0686 -0.0884 -0.3004
  173loPI    C1 2753  18.685   7.196  10.596 -0.0816  0.0685 -0.0356
  173loPI    C2 2754  18.599   7.563  10.728  0.0206  0.0793  0.0023
  173loPI    C3 2755  18.569   7.250  10.974  0.1080  0.0858  0.0213
  173loPI   PO4 2756  18.610   7.206  10.290  0.1300 -0.2424  0.0971
  173loPI   GL1 2757  18.674   7.303   9.829 -0.0437 -0.0050  0.1422
  173loPI   GL2 2758  18.717   7.619   9.718 -0.2945  0.0862  0.1354
  173loPI   C1A 2759  18.436   7.313   9.421  0.1956  0.3747 -0.0256
  173loPI   C2A 2760  18.452   7.438   9.061 -0.0529  0.0126 -0.3756
  173loPI   C3A 2761  18.386   7.513   8.703  0.2362 -0.0372  0.1007
  173loPI   C4A 2762  18.388   7.633   8.237  0.2548 -0.4793 -0.2100
  173loPI   C5A 2763  18.671   7.786   7.899  0.2082  0.1535  0.4199
  173loPI   C6A 2764  18.959   7.542   7.645 -0.1715 -0.4236  0.2332
  173loPI   C1B 2765  18.832   7.688   9.306  0.3092 -0.1466  0.1695
  173loPI   C2B 2766  18.748   7.843   8.907  0.0030 -0.0878 -0.1861
  173loPI   C3B 2767  18.719   7.927   8.467 -0.0686  0.0520 -0.1574
  173loPI   C4B 2768  19.027   7.980   8.168  0.2115  0.0473  0.0635
  174loPI    C1 2769  18.322  14.015  10.052  0.2007  0.0377 -0.1698
  174loPI    C2 2770  18.211  13.717  10.295  0.0964  0.1997 -0.0162
  174loPI    C3 2771  18.366  14.053  10.448  0.1443  0.2550 -0.1829
  174loPI   PO4 2772  18.373  13.875   9.776  0.0148  0.0605  0.1704
  174loPI   GL1 2773  18.212  13.715   9.445  0.1573 -0.2848 -0.0020
  174loPI   GL2 2774  18.486  13.813   9.281 -0.2995 -0.0856  0.0174
  174loPI   C1A 2775  18.084  13.656   8.984 -0.2821  0.1744  0.3010
  174loPI   C2A 2776  17.934  13.598   8.577  0.0480 -0.2231 -0.3914
  174loPI   C3A 2777  17.997  13.636   8.110  0.3065 -0.2162  0.1124
  174loPI   C4A 2778  18.031  13.747   7.761  0.0172 -0.2056  0.3582
  174loPI   C5A 2779  18.071  13.887   7.359  0.3531 -0.2049  0.1088
  174loPI   C6A 2780  17.702  14.082   7.097 -0.0102 -0.0389  0.3726
  174loPI   C1B 2781  18.490  13.880   8.819  0.0757 -0.1111 -0.0101
  174loPI   C2B 2782  18.442  13.806   8.407  0.0600  0.3671  0.2466
  174loPI   C3B 2783  18.555  13.669   7.900  0.3677  0.0866 -0.1631
  174loPI   C4B 2784  18.459  13.522   7.545  0.0628 -0.3172 -0.1949
  175loPI    C1 2785  11.184   8.311   9.747  0.0412 -0.0221  0.2062
  175loPI    C2 2786  11.413   8.638   9.724 -0.0941  0.0566 -0.0800
  175loPI    C3 2787  11.024   8.672   9.811 -0.0887 -0.0379 -0.0174
  175loPI   PO4 2788  11.108   8.269   9.463  0.1349 -0.0793  0.1075
  175loPI   GL1 2789  11.085   7.974   9.167 -0.1170  0.3458  0.2071
  175loPI   GL2 2790  11.145   7.963   8.862 -0.2484  0.0098  0.2287
  175loPI   C1A 2791  10.651   7.966   8.856  0.0759  0.0353 -0.1618
  175loPI   C2A 2792  10.801   8.208   8.548 -0.0230 -0.3795  0.0783
  175loPI   C3A 2793  11.185   8.261   8.343  0.1721 -0.2277  0.0157
  175loPI   C4A 2794  11.365   8.496   8.194  0.1203  0.0116 -0.1931
  175loPI   C5A 2795  11.563   8.644   8.427 -0.0544  0.1995 -0.2461
  175loPI   C6A 2796  11.702   8.920   8.732  0.1882 -0.1201 -0.0909
  175loPI   C1B 2797  11.366   7.839   8.566  0.0870 -0.0009 -0.0053
  175loPI   C2B 2798  11.368   7.842   8.160  0.1762  0.4556  0.1824
  175loPI   C3B 2799  11.298   8.069   7.847  0.3166  0.2821  0.0133
  175loPI   C4B 2800  11.114   8.503   7.628 -0.0701 -0.0471  0.0460
  176loPI    C1 2801   9.848  15.013   9.297  0.0314 -0.3105  0.1424
  176loPI    C2 2802   9.535  15.244   9.387  0.0281 -0.1314 -0.3000
  176loPI    C3 2803   9.616  14.922   9.609 -0.2728  0.0027  0.0149
  176loPI   PO4 2804   9.867  14.981   9.057  0.0517 -0.0131  0.1419
  176loPI   GL1 2805   9.727  15.056   8.637 -0.0622 -0.1686  0.0008
  176loPI   GL2 2806   9.612  14.845   8.626  0.0882 -0.2165  0.1039
  176loPI   C1A 2807   9.984  15.244   8.285  0.3994 -0.0838 -0.0184
  176loPI   C2A 2808  10.299  15.211   8.013 -0.1895 -0.0933  0.2807
  176loPI   C3A 2809  10.626  15.181   7.738 -0.3043  0.0004  0.2392
  176loPI   C4A 2810  10.933  15.111   7.280 -0.3128 -0.0906 -0.1431
  176loPI   C5A 2811  11.003  14.937   6.917 -0.3319  0.1387 -0.1112
  176loPI   C6A 2812  11.189  14.949   6.500  0.2164 -0.4645  0.3088
  176loPI   C1B 2813   9.649  14.932   8.060 -0.0493  0.0236 -0.0083
  176loPI   C2B 2814   9.916  15.059   7.684  0.1505 -0.1701 -0.1919
  176loPI   C3B 2815  10.303  15.038   7.424  0.2087 -0.0278 -0.0287
  176loPI   C4B 2816  10.494  15.048   6.965 -0.0202 -0.0093  0.1988
  177loPI    C1 2817   9.379  11.804   9.058 -0.0061 -0.0764  0.0654
  177loPI    C2 2818   9.369  12.162   9.235  0.1367 -0.0624  0.0465
  177loPI    C3 2819   9.567  11.860   9.407  0.0388 -0.1251  0.0493
  177loPI   PO4 2820   9.065  11.805   8.968 -0.1734 -0.4575 -0.1120
  177loPI   GL1 2821   8.747  11.673   8.781  0.0596  0.1880  0.1334
  177loPI   GL2 2822   8.881  11.380   8.578  0.2326  0.3460 -0.4590
  177loPI   C1A 2823   8.293  11.603   8.670  0.0010 -0.0318 -0.1142
  177loPI   C2A 2824   8.200  11.542   8.284 -0.0916  0.3007 -0.1470
  177loPI   C3A 2825   8.272  11.493   7.935 -0.4677  0.0799 -0.0297
  177loPI   C4A 2826   8.137  11.443   7.554  0.1560  0.0553  0.0820
  177loPI   C5A 2827   8.248  11.569   7.045  0.0923 -0.0795  0.2752
  177loPI   C6A 2828   8.047  11.789   6.803  0.0293  0.3740  0.2894
  177loPI   C1B 2829   8.755  11.682   8.230 -0.2166  0.0797 -0.1249
  177loPI   C2B 2830   8.744  11.676   7.855 -0.2227  0.5758  0.0326
  177loPI   C3B 2831   8.621  11.672   7.351 -0.1252  0.3618 -0.1348
  177loPI   C4B 2832   8.671  11.720   6.838  0.2981  0.2555 -0.1352
  178loPI    C1 2833   2.265  16.108   9.569  0.0059  0.0457  0.1390
  178loPI    C2 2834   2.405  15.773   9.737 -0.0977 -0.0720 -0.0062
  178loPI    C3 2835   2.658  16.033   9.568 -0.0096 -0.0371  0.1766
  178loPI   PO4 2836   2.023  15.997   9.418 -0.1104 -0.1710 -0.3232
  178loPI   GL1 2837   2.097  15.991   9.026  0.0758  0.0989  0.1237
  178loPI   GL2 2838   1.991  15.689   8.923 -0.0564  0.0475 -0.1388
  178loPI   C1A 2839   2.318  15.867   8.596  0.1287 -0.1749 -0.1016
  178loPI   C2A 2840   2.295  15.956   8.197 -0.1181  0.0157 -0.0638
  178loPI   C3A 2841   2.413  15.850   7.814  0.2905  0.1847  0.1904
  178loPI   C4A 2842   2.424  15.927   7.359 -0.0642  0.0591  0.1472
  178loPI   C5A 2843   2.467  15.777   6.951 -0.0756  0.0486 -0.0235
  178loPI   C6A 2844   2.735  15.818   6.722 -0.2659 -0.1907 -0.2125
  178loPI   C1B 2845   1.876  15.558   8.523 -0.0705 -0.0803  0.1708
  178loPI   C2B 2846   2.042  15.530   8.031 -0.0636  0.1628  0.3228
  178loPI   C3B 2847   2.366  15.453   7.570 -0.0576  0.3678  0.3962
  178loPI   C4B 2848   2.632  15.492   7.346 -0.1648 -0.0031  0.3320
  179loPI    C1 2849   9.601   0.725   9.604  0.0339 -0.0758 -0.0002
  179loPI    C2 2850   9.706   0.552   9.949  0.1331  0.1481  0.0835
  179loPI    C3 2851   9.419   0.831   9.944 -0.2222 -0.2119 -0.0925
  179loPI   PO4 2852   9.624   0.461   9.372 -0.1307 -0.2868 -0.1940
  179loPI   GL1 2853   9.477   0.644   8.917  0.0619 -0.0265  0.0878
  179loPI   GL2 2854   9.398   0.363   8.954  0.0911  0.1452 -0.0642
  179loPI   C1A 2855   9.449   0.955   8.577  0.1812  0.0486  0.2001
  179loPI   C2A 2856   9.502   1.204   8.312 -0.1735 -0.0732 -0.1647
  179loPI   C3A 2857   9.509   1.358   7.991  0.1137  0.0337  0.2040
  179loPI   C4A 2858   9.524   1.397   7.605  0.1252  0.0192 -0.0143
  179loPI   C5A 2859   9.606   1.417   7.145  0.0852 -0.2201 -0.0262
  179loPI   C6A 2860   9.359   1.481   6.814 -0.2024  0.1814  0.1422
  179loPI   C1B 2861   9.506   0.320   8.501  0.4459  0.1481 -0.5983
  179loPI   C2B 2862   9.471   0.270   8.165 -0.2084  0.4733 -0.1687
  179loPI   C3B 2863   9.467   0.150   7.860 -0.0308  0.1934 -0.1425
  179loPI   C4B 2864   9.278  -0.169   7.696 -0.1109 -0.1088  0.5340
  180loPI    C1 2865   7.434   8.193   9.782  0.1963  0.0289 -0.0031
  180loPI    C2 2866   7.220   8.010  10.066  0.3206 -0.1455 -0.0205
  180loPI    C3 2867   7.574   8.173  10.156  0.3140 -0.1130 -0.0536
  180loPI   PO4 2868   7.376   8.205   9.537  0.1036  0.1129  0.2439
  180loPI   GL1 2869   7.573   8.428   9.222  0.0407  0.0994  0.0443
  180loPI   GL2 2870   7.308   8.403   9.007  0.4248  0.1575 -0.2462
  180loPI   C1A 2871   7.623   8.705   8.746  0.1253 -0.0766 -0.0602
  180loPI   C2A 2872   7.662   8.869   8.323  0.0211  0.0016 -0.0628
  180loPI   C3A 2873   7.671   8.831   7.862  0.1784 -0.1144 -0.1041
  180loPI   C4A 2874   7.844   8.696   7.445  0.3346  0.0523 -0.0810
  180loPI   C5A 2875   7.871   8.456   7.086  0.1621 -0.2360  0.0106
  180loPI   C6A 2876   7.821   8.195   6.722 -0.1669  0.4090 -0.2700
  180loPI   C1B 2877   7.125   8.239   8.684 -0.0656 -0.2016 -0.1872
  180loPI   C2B 2878   6.997   8.132   8.366  0.0518 -0.1170 -0.1954
  180loPI   C3B 2879   6.817   7.971   8.114  0.0029  0.1873 -0.3488
  180loPI   C4B 2880   6.974   7.877   7.642  0.3935  0.0334  0.2084
  181loPI    C1 2881  13.798   0.287  10.140 -0.1905  0.2501 -0.0774
  181loPI    C2 2882  14.058   0.413  10.417  0.0645  0.0454 -0.2197
  181loPI    C3 2883  13.700   0.272  10.528 -0.0270  0.4156 -0.0286
  181loPI   PO4 2884  13.945   0.178   9.910  0.2575 -0.1887  0.0296
  181loPI   GL1 2885  13.825  -0.165   9.556  0.5604 -0.1716 -0.4778
  181loPI   GL2 2886  14.133  -0.177   9.459  0.0555 -0.1152  0.5032
  181loPI   C1A 2887  13.676  -0.050   9.173  0.1609 -0.0555 -0.2687
  181loPI   C2A 2888  13.437  -0.047   8.752  0.1683 -0.2563 -0.4147
  181loPI   C3A 2889  13.580  -0.081   8.313 -0.1614 -0.2304 -0.0058
  181loPI   C4A 2890  13.671   0.034   7.876 -0.2483 -0.1428  0.2819
  181loPI   C5A 2891  14.015  -0.053   7.550  0.1469  0.2899 -0.3449
  181loPI   C6A 2892  14.363  -0.019   7.150 -0.1006  0.0588 -0.0751
  181loPI   C1B 2893  14.157  -0.104   9.036 -0.1991  0.1535  0.2681
  181loPI   C2B 2894  14.014  -0.296   8.829  0.0504  0.2491 -0.1222
  181loPI   C3B 2895  14.112  -0.251   8.491  0.1425 -0.0518  0.0834
  181loPI   C4B 2896  13.902  -0.383   8.125 -0.1446 -0.0811  0.0645
  182loPI    C1 2897  14.653   4.929  10.178  0.0784  0.1303 -0.0568
  182loPI    C2 2898  14.885   5.158  10.410  0.1187  0.0834 -0.0506
  182loPI    C3 2899  14.689   4.847  10.567 -0.2075  0.3149  0.0115
  182loPI   PO4 2900  14.760   4.984   9.980 -0.1807 -0.0010  0.3324
  182loPI   GL1 2901  14.587   4.822   9.486 -0.0478  0.0098 -0.1086
  182loPI   GL2 2902  14.429   5.067   9.595 -0.1220 -0.0728 -0.3260
  182loPI   C1A 2903  14.405   4.803   9.091  0.0011  0.2292  0.2367
  182loPI   C2A 2904  14.103   5.035   8.761 -0.0280  0.2035  0.1627
  182loPI   C3A 2905  14.021   5.040   8.374  0.1154  0.1333  0.4447
  182loPI   C4A 2906  13.649   4.982   8.192 -0.0612  0.0206 -0.0296
  182loPI   C5A 2907  13.267   5.090   7.978  0.1955 -0.0189  0.1222
  182loPI   C6A 2908  12.925   5.231   7.805  0.1174  0.5052 -0.1337
  182loPI   C1B 2909  14.072   5.098   9.230 -0.0213  0.1135  0.1234
  182loPI   C2B 2910  13.692   4.910   8.959  0.0501  0.1189  0.1296
  182loPI   C3B 2911  13.418   4.937   8.651  0.2549 -0.2074  0.1787
  182loPI   C4B 2912  13.218   5.346   8.536  0.4056 -0.2860  0.2709
  183loPI    C1 2913   0.840  19.007  10.207 -0.3163  0.1606  0.1827
  183loPI    C2 2914   0.870  19.087  10.598 -0.0100  0.0673  0.1804
  183loPI    C3 2915   1.193  19.112  10.363 -0.1323 -0.1522 -0.0145
  183loPI   PO4 2916   0.625  19.270  10.119 -0.0069 -0.1241 -0.1643
  183loPI   GL1 2917   0.373  19.374   9.703 -0.1833 -0.1262  0.1249
  183loPI   GL2 2918   0.734  19.270   9.618  0.1059  0.2261  0.1457
  183loPI   C1A 2919   0.330  19.577   9.144 -0.1786 -0.4491  0.1265
  183loPI   C2A 2920   0.252  19.565   8.664 -0.0291  0.0732  0.1827
  183loPI   C3A 2921   0.268  19.696   8.246  0.1967 -0.0272  0.1294
  183loPI   C4A 2922   0.231  19.749   7.834 -0.1178  0.0598  0.1327
  183loPI   C5A 2923   0.327  19.727   7.488  0.3834  0.1110 -0.1034
  183loPI   C6A 2924   0.553  19.531   7.167 -0.0045  0.2575  0.1935
  183loPI   C1B 2925   0.563  19.175   9.217 -0.0352 -0.4406  0.0709
  183loPI   C2B 2926   0.666  19.198   8.784 -0.2143 -0.0688  0.3047
  183loPI   C3B 2927   0.681  19.324   8.401  0.0496  0.2494 -0.0182
  183loPI   C4B 2928   0.567  19.346   7.975 -0.2869 -0.3198  0.0198
  184loPI    C1 2929   2.227  14.488   9.551 -0.2134  0.1263  0.0884
  184loPI    C2 2930   1.949  14.490   9.839 -0.1176  0.1375  0.1814
  184loPI    C3 2931   2.334  14.553   9.931 -0.0693  0.0122  0.0683
  184loPI   PO4 2932   2.127  14.660   9.366 -0.1257 -0.2116 -0.0014
  184loPI   GL1 2933   2.093  14.445   8.923 -0.0471 -0.2662 -0.3234
  184loPI   GL2 2934   2.319  14.759   8.847 -0.3401 -0.0152  0.2309
  184loPI   C1A 2935   2.026  14.401   8.526 -0.1861  0.6189  0.0169
  184loPI   C2A 2936   2.172  14.181   8.082 -0.1699 -0.3177  0.1211
  184loPI   C3A 2937   2.210  14.371   7.653 -0.1656 -0.4589 -0.5254
  184loPI   C4A 2938   2.186  14.497   7.240 -0.0513 -0.0157 -0.2675
  184loPI   C5A 2939   1.953  14.489   6.837  0.0945 -0.0815 -0.0379
  184loPI   C6A 2940   1.827  14.185   6.461  0.0066  0.2837 -0.1270
  184loPI   C1B 2941   2.383  14.754   8.371 -0.0219  0.2687 -0.5754
  184loPI   C2B 2942   2.588  14.580   8.086 -0.1175  0.2333 -0.4551
  184loPI   C3B 2943   2.634  14.487   7.632 -0.0308 -0.0968 -0.1150
  184loPI   C4B 2944   2.755  14.413   7.227  0.2933  0.2092 -0.1366
  185loPI    C1 2945   6.715  13.017   9.619 -0.1468  0.1023 -0.0231
  185loPI    C2 2946   6.468  13.113   9.920  0.0506 -0.0137  0.1790
  185loPI    C3 2947   6.864  13.123   9.975  0.0870 -0.1334 -0.0484
  185loPI   PO4 2948   6.646  13.230   9.393 -0.0874 -0.2488  0.5458
  185loPI   GL1 2949   6.477  13.332   9.053 -0.1849 -0.4246  0.0047
  185loPI   GL2 2950   6.561  13.013   8.958  0.3656  0.2780 -0.0625
  185loPI   C1A 2951   6.650  13.505   8.758  0.1002 -0.1465 -0.1190
  185loPI   C2A 2952   6.716  13.447   8.368  0.2815 -0.1459 -0.0962
  185loPI   C3A 2953   6.398  13.428   7.915 -0.0710  0.3889 -0.0172
  185loPI   C4A 2954   6.366  13.488   7.465  0.1965  0.3741  0.3721
  185loPI   C5A 2955   6.561  13.288   7.044  0.1924  0.0289 -0.0079
  185loPI   C6A 2956   6.826  13.394   6.704  0.0642 -0.1047 -0.1762
  185loPI   C1B 2957   6.772  12.996   8.544  0.0790  0.1318 -0.2827
  185loPI   C2B 2958   6.786  13.012   8.016 -0.1092 -0.0920  0.0841
  185loPI   C3B 2959   6.658  13.060   7.611 -0.1385 -0.1452  0.2011
  185loPI   C4B 2960   6.495  12.834   7.278 -0.1470  0.1342 -0.2025
  186loPI    C1 2961  14.100  13.166   9.950  0.2853 -0.0353 -0.1478
  186loPI    C2 2962  14.048  12.844  10.180 -0.1825  0.1835  0.0674
  186loPI    C3 2963  14.394  13.045  10.192  0.1490 -0.3518 -0.1363
  186loPI   PO4 2964  14.050  13.035   9.658  0.0052  0.1414  0.1652
  186loPI   GL1 2965  13.978  12.935   9.228 -0.2799 -0.1748 -0.1155
  186loPI   GL2 2966  14.205  12.716   9.229 -0.0370  0.1379  0.0124
  186loPI   C1A 2967  13.833  13.199   8.956  0.3256  0.1797 -0.2825
  186loPI   C2A 2968  13.853  13.076   8.445  0.1004  0.1375  0.0075
  186loPI   C3A 2969  13.826  12.891   8.041  0.1154  0.1593  0.2372
  186loPI   C4A 2970  13.781  12.955   7.608 -0.0451  0.0443  0.1135
  186loPI   C5A 2971  13.528  12.544   7.231 -0.1377 -0.3652 -0.0488
  186loPI   C6A 2972  13.849  12.263   7.066  0.1796  0.3592  0.0302
  186loPI   C1B 2973  14.240  12.935   8.817 -0.2110  0.0233 -0.0265
  186loPI   C2B 2974  14.316  12.724   8.362 -0.1318 -0.3221 -0.1658
  186loPI   C3B 2975  14.354  12.701   7.917 -0.0238  0.4473  0.2438
  186loPI   C4B 2976  14.562  12.464   7.638 -0.0442 -0.1302  0.1215
  187loPI    C1 2977   5.239  12.644  10.140 -0.1199 -0.1136  0.0147
  187loPI    C2 2978   5.474  12.795  10.427 -0.1553 -0.1395  0.0574
  187loPI    C3 2979   5.340  12.419  10.454 -0.0446 -0.1886 -0.0626
  187loPI   PO4 2980   5.368  12.764   9.927  0.3971 -0.0731 -0.1658
  187loPI   GL1 2981   5.191  12.910   9.502  0.1328 -0.3442 -0.0118
  187loPI   GL2 2982   4.939  13.063   9.557 -0.1579 -0.0138  0.1658
  187loPI   C1A 2983   5.035  12.842   9.049 -0.1000 -0.1118  0.0024
  187loPI   C2A 2984   5.148  12.779   8.665  0.0883  0.1874 -0.1682
  187loPI   C3A 2985   5.256  12.995   8.270 -0.4860 -0.0912 -0.1880
  187loPI   C4A 2986   5.352  13.094   7.811  0.1140  0.3290  0.2148
  187loPI   C5A 2987   5.481  12.879   7.472 -0.0647 -0.0022 -0.1770
  187loPI   C6A 2988   5.809  12.715   7.247  0.4219 -0.0288  0.2635
  187loPI   C1B 2989   4.786  13.218   9.217  0.1554 -0.2141  0.0900
  187loPI   C2B 2990   4.798  13.312   8.800 -0.1168 -0.2383 -0.1564
  187loPI   C3B 2991   4.761  13.398   8.375 -0.0787 -0.0018  0.1122
  187loPI   C4B 2992   4.942  13.460   7.945  0.0959 -0.0615  0.1208
  188loPI    C1 2993  15.641   9.709  10.401  0.1829 -0.2313  0.3843
  188loPI    C2 2994  15.460   9.895  10.705  0.0617 -0.0550  0.2071
  188loPI    C3 2995  15.859   9.871  10.695  0.0730  0.0811  0.2980
  188loPI   PO4 2996  15.451   9.814  10.175 -0.2760  0.0646  0.3544
  188loPI   GL1 2997  15.267   9.985   9.750  0.0043  0.1228  0.0219
  188loPI   GL2 2998  15.194  10.255   9.559  0.2970 -0.0144  0.0654
  188loPI   C1A 2999  15.608   9.988   9.473 -0.1183  0.1438 -0.0189
  188loPI   C2A 3000  15.709  10.015   9.095 -0.4911  0.0205  0.0523
  188loPI   C3A 3001  15.749  10.267   8.784 -0.0967  0.3847 -0.0389
  188loPI   C4A 3002  15.834  10.118   8.350 -0.2401 -0.1080  0.0708
  188loPI   C5A 3003  16.023  10.181   7.913  0.3214  0.0073 -0.0696
  188loPI   C6A 3004  15.688   9.943   7.712  0.3179  0.0612  0.2491
  188loPI   C1B 3005  15.327  10.335   9.102 -0.1077  0.1289 -0.1409
  188loPI   C2B 3006  15.162  10.436   8.720  0.0895 -0.2584 -0.0131
  188loPI   C3B 3007  15.030  10.450   8.233 -0.3836  0.0837  0.0035
  188loPI   C4B 3008  14.915  10.620   7.824  0.0959  0.0794 -0.3427
  189loPI    C1 3009   6.385  14.330   9.751 -0.0185  0.0219  0.0889
  189loPI    C2 3010   6.659  14.082   9.597 -0.4232 -0.3035 -0.1249
  189loPI    C3 3011   6.584  14.077   9.990  0.0517 -0.0300 -0.0236
  189loPI   PO4 3012   6.233  14.333   9.461 -0.1073  0.1041 -0.0275
  189loPI   GL1 3013   6.417  14.281   9.072 -0.1020 -0.1076  0.1066
  189loPI   GL2 3014   6.326  14.680   9.042 -0.2354 -0.0277  0.4354
  189loPI   C1A 3015   6.604  14.463   8.664  0.0652  0.1278 -0.2102
  189loPI   C2A 3016   6.599  14.393   8.251  0.2208 -0.1141 -0.0824
  189loPI   C3A 3017   6.554  14.383   7.957  0.3756  0.3139 -0.0598
  189loPI   C4A 3018   6.396  14.397   7.521  0.1497 -0.1983  0.0489
  189loPI   C5A 3019   6.102  14.641   7.415  0.0983 -0.0809 -0.1587
  189loPI   C6A 3020   5.986  14.672   7.029 -0.0668  0.1280  0.0379
  189loPI   C1B 3021   6.190  14.709   8.801  0.2244 -0.1087  0.1218
  189loPI   C2B 3022   6.321  14.766   8.368 -0.1208  0.1375 -0.1586
  189loPI   C3B 3023   6.435  14.846   7.972 -0.1016 -0.1104 -0.0689
  189loPI   C4B 3024   6.442  15.001   7.544  0.0741  0.2393  0.1885
  190loPI    C1 3025   4.269  16.628   9.293 -0.0049  0.1237  0.1301
  190loPI    C2 3026   4.233  17.007   9.171 -0.1334  0.0345 -0.1146
  190loPI    C3 3027   3.962  16.851   9.420 -0.2354  0.0208 -0.2330
  190loPI   PO4 3028   4.337  16.505   9.069  0.0992  0.4041  0.0576
  190loPI   GL1 3029   4.166  16.484   8.727  0.3175 -0.1505 -0.1063
  190loPI   GL2 3030   4.190  16.762   8.667 -0.0659 -0.1385 -0.1131
  190loPI   C1A 3031   4.371  16.171   8.451  0.1327 -0.1923 -0.1324
  190loPI   C2A 3032   4.496  16.122   8.058 -0.0104 -0.2288  0.0496
  190loPI   C3A 3033   4.472  16.245   7.618  0.0730  0.2488  0.0072
  190loPI   C4A 3034   4.668  16.301   7.222  0.1742  0.0122  0.1197
  190loPI   C5A 3035   4.658  15.963   6.959  0.2251 -0.0024 -0.1165
  190loPI   C6A 3036   4.794  15.662   6.708  0.1141  0.0084  0.0427
  190loPI   C1B 3037   4.035  16.905   8.255 -0.1247 -0.0717  0.5004
  190loPI   C2B 3038   3.954  16.832   7.911 -0.0740  0.1147  0.0883
  190loPI   C3B 3039   3.855  16.973   7.413 -0.3783  0.0537  0.0855
  190loPI   C4B 3040   3.998  17.350   7.038  0.2436  0.0060 -0.1170
  191loPI    C1 3041   7.090   2.347   9.516  0.0311  0.1075  0.0062
  191loPI    C2 3042   7.038   2.089   9.215  0.2173  0.0429  0.0286
  191loPI    C3 3043   6.784   2.090   9.523  0.0784  0.0480 -0.0849
  191loPI   PO4 3044   7.134   2.525   9.380 -0.0154 -0.0420 -0.0161
  191loPI   GL1 3045   7.086   2.579   8.924  0.3182 -0.3873  0.0531
  191loPI   GL2 3046   6.859   2.769   8.754 -0.0830 -0.1461 -0.0067
  191loPI   C1A 3047   7.516   2.703   8.769  0.0700  0.0454 -0.0030
  191loPI   C2A 3048   7.768   2.704   8.458  0.0957  0.2856 -0.1150
  191loPI   C3A 3049   7.887   2.557   8.109 -0.0533 -0.1436  0.0818
  191loPI   C4A 3050   7.911   2.671   7.722 -0.1439  0.1167  0.1139
  191loPI   C5A 3051   7.881   2.463   7.297  0.0590 -0.1248 -0.0919
  191loPI   C6A 3052   7.809   2.246   6.999  0.1954  0.1425 -0.0902
  191loPI   C1B 3053   7.137   2.705   8.447 -0.0221 -0.1332  0.2364
  191loPI   C2B 3054   7.258   2.678   8.060  0.1303 -0.4136 -0.0040
  191loPI   C3B 3055   7.444   2.446   7.726  0.1323  0.2572  0.1116
  191loPI   C4B 3056   7.362   2.351   7.223 -0.4594  0.0643 -0.1860
  192loPI    C1 3057   1.799   4.750   9.484  0.1409  0.1740 -0.1512
  192loPI    C2 3058   1.909   5.116   9.605  0.3425  0.0778 -0.0390
  192loPI    C3 3059   2.171   4.813   9.617  0.1829 -0.0669 -0.1502
  192loPI   PO4 3060   1.617   4.812   9.344 -0.0336  0.0723  0.0207
  192loPI   GL1 3061   1.684   4.919   8.953  0.0852 -0.2007 -0.1536
  192loPI   GL2 3062   1.967   5.066   9.021  0.0731 -0.0897  0.2323
  192loPI   C1A 3063   1.462   4.876   8.704 -0.2359 -0.1146 -0.0064
  192loPI   C2A 3064   1.365   5.074   8.268  0.0561  0.2107 -0.0963
  192loPI   C3A 3065   1.168   5.207   7.893 -0.2678  0.2044  0.2368
  192loPI   C4A 3066   0.979   4.982   7.648  0.0849 -0.0885  0.1438
  192loPI   C5A 3067   0.752   4.853   7.293 -0.1756 -0.3528 -0.1800
  192loPI   C6A 3068   0.603   4.538   7.279 -0.4701  0.2797 -0.3034
  192loPI   C1B 3069   1.822   5.182   8.472  0.0881 -0.3441 -0.0102
  192loPI   C2B 3070   1.872   5.226   8.056  0.0972 -0.1722  0.4016
  192loPI   C3B 3071   1.973   5.046   7.744 -0.1299 -0.0588 -0.1622
  192loPI   C4B 3072   2.151   4.844   7.416 -0.0600 -0.0206  0.1578
  193loPI    C1 3073  17.545   4.047  10.278 -0.0982 -0.2057 -0.0387
  193loPI    C2 3074  17.682   3.933  10.636 -0.2092 -0.0760  0.0458
  193loPI    C3 3075  17.767   4.298  10.496 -0.4826  0.0145  0.1092
  193loPI   PO4 3076  17.409   3.943  10.149 -0.4651 -0.1029  0.2783
  193loPI   GL1 3077  17.401   4.060   9.709 -0.0704 -0.0203 -0.2200
  193loPI   GL2 3078  17.173   3.841   9.743  0.0736 -0.1060 -0.1616
  193loPI   C1A 3079  17.402   4.260   9.245 -0.1731 -0.0233 -0.4043
  193loPI   C2A 3080  17.329   4.138   8.846 -0.0573 -0.1561  0.0495
  193loPI   C3A 3081  17.276   4.191   8.423 -0.1677  0.0215  0.1369
  193loPI   C4A 3082  17.262   3.945   7.990 -0.0280  0.1174  0.1066
  193loPI   C5A 3083  17.191   4.082   7.603 -0.0083  0.1928  0.1043
  193loPI   C6A 3084  17.313   4.248   7.313 -0.3832 -0.0338 -0.0493
  193loPI   C1B 3085  17.242   3.774   9.316 -0.1283  0.1960 -0.1809
  193loPI   C2B 3086  17.323   3.606   8.868  0.3425  0.0659 -0.1811
  193loPI   C3B 3087  17.145   3.621   8.513 -0.0322  0.0124 -0.1296
  193loPI   C4B 3088  17.302   3.478   8.121 -0.1830 -0.0108 -0.0543
  194loPI    C1 3089  18.138   6.974  10.290 -0.0908  0.1344  0.0663
  194loPI    C2 3090  18.059   7.363  10.345  0.0243  0.1314  0.2678
  194loPI    C3 3091  18.163   7.135  10.656  0.2245  0.0001  0.1070
  194loPI   PO4 3092  18.183   6.985   9.897 -0.1209  0.2520  0.2236
  194loPI   GL1 3093  18.024   6.853   9.499  0.4012 -0.1264 -0.0741
  194loPI   GL2 3094  17.685   6.852   9.501  0.2437  0.0803  0.1714
  194loPI   C1A 3095  18.035   7.044   9.089 -0.3421  0.1702  0.0585
  194loPI   C2A 3096  17.958   7.192   8.666  0.0148  0.1567 -0.1974
  194loPI   C3A 3097  17.994   7.152   8.290  0.1829 -0.0724 -0.1362
  194loPI   C4A 3098  18.102   7.155   7.904 -0.2080  0.0368  0.2368
  194loPI   C5A 3099  17.905   7.027   7.557 -0.0935  0.1719  0.3121
  194loPI   C6A 3100  17.693   6.653   7.530  0.1346  0.3417 -0.2082
  194loPI   C1B 3101  17.432   7.057   9.208 -0.2276 -0.0417  0.1894
  194loPI   C2B 3102  17.509   7.171   8.869  0.0096  0.0683  0.1530
  194loPI   C3B 3103  17.495   7.344   8.455 -0.3462  0.0627  0.2381
  194loPI   C4B 3104  17.319   7.712   8.280  0.1343  0.2287 -0.1190
  195loPI    C1 3105  12.804  18.084   9.578 -0.1777  0.0080  0.1040
  195loPI    C2 3106  13.036  18.117   9.902  0.0101 -0.0880 -0.0189
  195loPI    C3 3107  12.651  18.015   9.941  0.0152 -0.0360  0.1779
  195loPI   PO4 3108  12.887  18.083   9.400 -0.2331 -0.0223  0.1414
  195loPI   GL1 3109  13.067  18.255   9.152  0.2653 -0.1058 -0.0632
  195loPI   GL2 3110  13.287  18.019   9.032  0.2161  0.0357  0.0642
  195loPI   C1A 3111  12.996  18.320   8.684 -0.1405  0.2134  0.3132
  195loPI   C2A 3112  13.067  18.338   8.273  0.2095  0.0383 -0.2838
  195loPI   C3A 3113  13.272  18.360   7.850  0.0956 -0.1197 -0.0035
  195loPI   C4A 3114  13.259  18.466   7.504 -0.0837  0.0976 -0.0307
  195loPI   C5A 3115  13.500  18.578   7.155 -0.2072  0.0839 -0.0825
  195loPI   C6A 3116  13.641  18.760   6.788 -0.1452  0.0373  0.2466
  195loPI   C1B 3117  13.438  17.761   8.633 -0.5687  0.0288 -0.0325
  195loPI   C2B 3118  13.616  17.600   8.238  0.0707  0.0380 -0.3989
  195loPI   C3B 3119  13.752  17.611   7.715 -0.2539  0.0405 -0.2591
  195loPI   C4B 3120  13.719  17.726   7.299 -0.2688 -0.0625 -0.1820
  196loPI    C1 3121   7.003  16.554   9.475  0.0650  0.0672 -0.0681
  196loPI    C2 3122   7.252  16.773   9.699 -0.0676  0.0096  0.1382
  196loPI    C3 3123   6.856  16.808   9.747 -0.0987  0.0292 -0.1199
  196loPI   PO4 3124   7.058  16.588   9.257 -0.0676 -0.2118 -0.0297
  196loPI   GL1 3125   7.169  16.721   8.818 -0.3314 -0.3918 -0.0753
  196loPI   GL2 3126   6.923  16.941   8.668 -0.0628 -0.0009 -0.0429
  196loPI   C1A 3127   7.538  16.840   8.609 -0.2426 -0.2971 -0.0924
  196loPI   C2A 3128   7.865  16.774   8.306 -0.0187  0.0498  0.0741
  196loPI   C3A 3129   7.985  16.797   7.792  0.2149 -0.0464 -0.2195
  196loPI   C4A 3130   7.886  16.748   7.335 -0.4183  0.0759  0.1686
  196loPI   C5A 3131   8.144  16.776   6.969  0.3400 -0.4237 -0.0902
  196loPI   C6A 3132   8.414  16.699   6.589 -0.2312  0.1717 -0.0655
  196loPI   C1B 3133   7.361  17.267   8.754  0.3355  0.0984 -0.0321
  196loPI   C2B 3134   7.380  17.725   8.474 -0.2192  0.0168  0.2243
  196loPI   C3B 3135   7.054  17.823   8.142 -0.1076  0.1506  0.1216
  196loPI   C4B 3136   6.930  18.258   8.069  0.1292  0.0107 -0.0263
  197loPI    C1 3137  15.863   6.245  10.230 -0.1433 -0.0222  0.1721
  197loPI    C2 3138  15.833   6.632  10.132 -0.5664 -0.1064 -0.0525
  197loPI    C3 3139  15.639   6.491  10.453 -0.3365 -0.1170  0.0842
  197loPI   PO4 3140  15.970   6.173  10.025 -0.1160 -0.0118 -0.0897
  197loPI   GL1 3141  16.209   6.154   9.642  0.0279 -0.0160  0.0651
  197loPI   GL2 3142  16.514   6.198   9.482  0.0301 -0.1466 -0.1757
  197loPI   C1A 3143  16.240   6.100   9.103 -0.2304  0.1091 -0.0921
  197loPI   C2A 3144  16.188   5.864   8.799  0.2674 -0.2792  0.0334
  197loPI   C3A 3145  15.924   5.886   8.452 -0.1854  0.2075 -0.1795
  197loPI   C4A 3146  15.767   5.634   8.082  0.0542 -0.1059 -0.0909
  197loPI   C5A 3147  15.436   5.435   7.770  0.3502 -0.0830 -0.2590
  197loPI   C6A 3148  14.903   5.368   7.707 -0.1027  0.4835 -0.0603
  197loPI   C1B 3149  16.777   6.312   9.151  0.0029 -0.0578  0.2946
  197loPI   C2B 3150  16.881   6.237   8.757  0.3468  0.1493 -0.2788
  197loPI   C3B 3151  16.928   6.452   8.371  0.0275 -0.1500 -0.1361
  197loPI   C4B 3152  17.219   6.523   8.036 -0.3051  0.1445  0.1674
  198loPI    C1 3153   8.826   8.056   9.904  0.3982  0.2667 -0.1552
  198loPI    C2 3154   8.808   7.716   9.694 -0.0659  0.1720  0.0264
  198loPI    C3 3155   8.593   8.033   9.580  0.0248  0.2636  0.1072
  198loPI   PO4 3156   9.089   8.023   9.997 -0.1696 -0.2194  0.0926
  198loPI   GL1 3157   9.330   7.862   9.701 -0.0102  0.0796 -0.1094
  198loPI   GL2 3158   9.473   8.137   9.405  0.0270  0.1002 -0.2340
  198loPI   C1A 3159   9.117   7.757   9.324  0.0343  0.2647 -0.0863
  198loPI   C2A 3160   9.138   7.795   8.844  0.3437  0.2835  0.1765
  198loPI   C3A 3161   9.225   7.463   8.529 -0.1115  0.2596 -0.1896
  198loPI   C4A 3162   9.168   7.445   8.065  0.2357 -0.0906  0.2672
  198loPI   C5A 3163   9.158   7.681   7.692  0.0216  0.1656 -0.2828
  198loPI   C6A 3164   8.930   7.949   7.304 -0.1471 -0.0063 -0.0085
  198loPI   C1B 3165   9.617   7.897   9.048  0.0307 -0.0898  0.2032
  198loPI   C2B 3166   9.594   7.768   8.607 -0.2614  0.0131  0.1706
  198loPI   C3B 3167   9.645   7.577   8.178 -0.3178  0.2164  0.1864
  198loPI   C4B 3168   9.544   7.332   7.794 -0.1577 -0.0395 -0.0772
  199loPI    C1 3169   9.379   1.633   9.469 -0.0964 -0.0879 -0.0656
  199loPI    C2 3170   9.246   1.994   9.581  0.1565  0.0506 -0.2052
  199loPI    C3 3171   9.017   1.758   9.354 -0.1299 -0.0005  0.1298
  199loPI   PO4 3172   9.551   1.671   9.373  0.0906 -0.1892 -0.0129
  199loPI   GL1 3173   9.535   1.936   8.959 -0.1537 -0.0978  0.1113
  199loPI   GL2 3174   9.145   1.961   8.835  0.1710 -0.2422  0.1275
  199loPI   C1A 3175   9.548   2.088   8.593 -0.0996  0.1686 -0.1028
  199loPI   C2A 3176   9.483   2.028   8.138 -0.1464  0.3169  0.2199
  199loPI   C3A 3177   9.537   1.865   7.747  0.2116  0.0145 -0.0610
  199loPI   C4A 3178   9.629   1.846   7.337 -0.2926  0.0050 -0.1811
  199loPI   C5A 3179   9.713   1.825   6.867  0.2190 -0.4582 -0.1351
  199loPI   C6A 3180   9.416   1.849   6.491  0.2351 -0.2096 -0.1921
  199loPI   C1B 3181   8.957   2.056   8.375 -0.2107 -0.3973 -0.1926
  199loPI   C2B 3182   9.061   2.123   7.906  0.2790 -0.0604 -0.1191
  199loPI   C3B 3183   9.124   2.223   7.379  0.0285  0.0586 -0.1174
  199loPI   C4B 3184   9.296   2.088   7.054  0.2385 -0.3471 -0.2230
  200loPI    C1 3185  18.907  16.580  10.028 -0.0645 -0.1015  0.0990
  200loPI    C2 3186  19.198  16.845   9.959 -0.2421  0.0156 -0.2219
  200loPI    C3 3187  19.235  16.469   9.827 -0.1550 -0.0205 -0.0963
  200loPI   PO4 3188  18.727  16.645   9.904  0.0521 -0.3168 -0.1065
  200loPI   GL1 3189  18.677  16.713   9.406 -0.2608 -0.0756  0.1229
  200loPI   GL2 3190  19.049  16.762   9.496  0.1619  0.2228  0.0395
  200loPI   C1A 3191  18.630  16.472   9.082 -0.1179  0.3180  0.3758
  200loPI   C2A 3192  18.508  16.413   8.661 -0.1337  0.1805  0.3989
  200loPI   C3A 3193  18.704  16.344   8.301  0.0117  0.4764  0.2411
  200loPI   C4A 3194  18.799  16.379   7.847  0.1015  0.1603  0.1149
  200loPI   C5A 3195  19.028  16.436   7.414  0.3548 -0.2805  0.2360
  200loPI   C6A 3196  19.369  16.172   7.249 -0.2634  0.1327 -0.0159
  200loPI   C1B 3197  18.973  16.868   9.072  0.2026 -0.2407  0.1519
  200loPI   C2B 3198  18.882  16.756   8.593 -0.3507 -0.1756  0.3494
  200loPI   C3B 3199  18.913  16.806   8.139  0.0823  0.1509  0.1614
  200loPI   C4B 3200  19.081  16.816   7.726 -0.1406 -0.0821 -0.0687
  201loPI    C1 3201   6.602   1.592   9.225 -0.0691 -0.0166  0.1552
  201loPI    C2 3202   6.382   1.819   9.471 -0.0637 -0.0206  0.1638
  201loPI    C3 3203   6.675   1.589   9.619 -0.1558 -0.1343  0.1707
  201loPI   PO4 3204   6.644   1.742   9.044 -0.0537  0.1854  0.2785
  201loPI   GL1 3205   6.636   1.863   8.682 -0.0681  0.3004  0.1624
  201loPI   GL2 3206   6.860   2.155   8.636  0.1881  0.0456  0.1249
  201loPI   C1A 3207   6.533   1.967   8.280  0.1123  0.4031  0.3767
  201loPI   C2A 3208   6.325   1.764   7.948 -0.0688 -0.0560  0.0477
  201loPI   C3A 3209   6.506   1.675   7.579  0.0501  0.0852 -0.3155
  201loPI   C4A 3210   6.643   1.543   7.191  0.0050 -0.0880  0.3266
  201loPI   C5A 3211   6.887   1.558   6.724 -0.5093  0.1986 -0.1378
  201loPI   C6A 3212   7.133   1.584   6.496 -0.1539 -0.1438 -0.1858
  201loPI   C1B 3213   6.849   2.332   8.250 -0.1152 -0.2086  0.2319
  201loPI   C2B 3214   6.957   2.331   7.822  0.2840 -0.0113 -0.0612
  201loPI   C3B 3215   6.916   2.458   7.396 -0.2989 -0.0894 -0.1637
  201loPI   C4B 3216   6.996   2.810   7.070 -0.1309 -0.1817 -0.0150
  202loPI    C1 3217  13.050  15.342   9.867  0.2059  0.0062  0.2240
  202loPI    C2 3218  12.945  15.726   9.832 -0.1118 -0.0598  0.4129
  202loPI    C3 3219  13.235  15.621  10.087  0.0879  0.0701  0.2429
  202loPI   PO4 3220  12.967  15.261   9.598 -0.2271 -0.1769 -0.0503
  202loPI   GL1 3221  12.796  15.219   9.204 -0.1909  0.2193 -0.1388
  202loPI   GL2 3222  12.822  15.562   9.189  0.2750  0.1704 -0.1180
  202loPI   C1A 3223  12.749  15.119   8.815  0.2086  0.1035  0.0041
  202loPI   C2A 3224  12.883  14.825   8.513 -0.1435 -0.3523 -0.0448
  202loPI   C3A 3225  13.017  14.706   8.085 -0.3394  0.0936 -0.1347
  202loPI   C4A 3226  12.995  14.855   7.742  0.0329 -0.1345 -0.0527
  202loPI   C5A 3227  12.844  14.903   7.357 -0.4280  0.1065 -0.0836
  202loPI   C6A 3228  12.516  15.003   7.132 -0.0481 -0.0065  0.0356
  202loPI   C1B 3229  13.085  15.529   8.895  0.0507  0.0527 -0.2105
  202loPI   C2B 3230  13.292  15.700   8.615  0.0526 -0.0236  0.2861
  202loPI   C3B 3231  13.372  15.482   8.288  0.0013  0.0957 -0.1792
  202loPI   C4B 3232  13.087  15.261   8.082 -0.0741 -0.1621  0.1403
  203loPI    C1 3233   7.819  12.298   9.478  0.1516 -0.1755 -0.1236
  203loPI    C2 3234   7.952  12.024   9.737  0.0473 -0.0476  0.0677
  203loPI    C3 3235   7.936  12.409   9.844 -0.3209 -0.0382 -0.0065
  203loPI   PO4 3236   7.912  12.312   9.198 -0.1082 -0.0213 -0.0749
  203loPI   GL1 3237   8.145  12.188   8.906  0.2033  0.1632  0.0998
  203loPI   GL2 3238   7.924  11.962   8.788  0.1171  0.3735 -0.1708
  203loPI   C1A 3239   7.981  12.403   8.530 -0.4348  0.1204 -0.0348
  203loPI   C2A 3240   7.814  12.709   8.225 -0.0055 -0.3315  0.0001
  203loPI   C3A 3241   7.667  12.748   7.768 -0.2454 -0.1775 -0.1680
  203loPI   C4A 3242   7.306  12.687   7.554  0.0900 -0.4347  0.0825
  203loPI   C5A 3243   7.015  12.812   7.291 -0.1525  0.1017 -0.1889
  203loPI   C6A 3244   6.833  12.909   6.924  0.3371 -0.3522  0.1834
  203loPI   C1B 3245   7.922  11.938   8.325 -0.1067  0.2866 -0.1158
  203loPI   C2B 3246   7.858  11.825   7.834 -0.1917  0.0155  0.0245
  203loPI   C3B 3247   7.775  11.793   7.408  0.0456 -0.0787  0.2661
  203loPI   C4B 3248   7.588  11.672   7.001 -0.1963  0.0042  0.0790
  204loPI    C1 3249  14.938  16.378  10.078 -0.0145 -0.0447 -0.4042
  204loPI    C2 3250  14.550  16.283  10.063  0.0007 -0.2184  0.1104
  204loPI    C3 3251  14.780  16.140  10.358  0.4294 -0.0110 -0.1137
  204loPI   PO4 3252  14.967  16.350   9.778 -0.1007 -0.2302  0.2046
  204loPI   GL1 3253  14.661  16.300   9.529 -0.1464  0.2113  0.0878
  204loPI   GL2 3254  14.361  16.084   9.391  0.0099 -0.1110  0.2374
  204loPI   C1A 3255  14.877  16.523   9.227  0.0890 -0.0319 -0.1771
  204loPI   C2A 3256  14.831  16.385   8.800 -0.1640 -0.1158  0.0352
  204loPI   C3A 3257  14.680  16.301   8.461  0.2329 -0.4489  0.2941
  204loPI   C4A 3258  14.750  16.311   8.009 -0.0287  0.1415 -0.1460
  204loPI   C5A 3259  14.749  16.182   7.632 -0.2746  0.3699  0.0858
  204loPI   C6A 3260  14.798  15.868   7.376 -0.0055  0.1203 -0.1952
  204loPI   C1B 3261  14.343  16.050   8.942  0.0443  0.0204 -0.0230
  204loPI   C2B 3262  14.480  15.904   8.646  0.0698 -0.2326 -0.1595
  204loPI   C3B 3263  14.427  15.890   8.189 -0.0723 -0.1411 -0.2518
  204loPI   C4B 3264  14.347  15.928   7.782  0.0912  0.2351 -0.0211
  205loPI    C1 3265  13.254   4.531  10.368 -0.1507 -0.0976  0.0726
  205loPI    C2 3266  13.520   4.270  10.514 -0.1535 -0.1725 -0.0549
  205loPI    C3 3267  13.347   4.536  10.757  0.0055 -0.1516  0.0368
  205loPI   PO4 3268  13.434   4.499  10.054  0.0394  0.3475  0.0639
  205loPI   GL1 3269  13.419   4.263   9.663  0.0302 -0.0964  0.1920
  205loPI   GL2 3270  13.665   4.050   9.496  0.1750 -0.3216  0.0224
  205loPI   C1A 3271  13.466   4.491   9.250  0.1347  0.2054  0.2284
  205loPI   C2A 3272  13.331   4.472   8.803 -0.2181 -0.2017  0.0395
  205loPI   C3A 3273  13.336   4.272   8.366  0.2808  0.0680  0.0124
  205loPI   C4A 3274  13.571   4.141   8.025  0.0481  0.2774  0.1800
  205loPI   C5A 3275  13.535   3.930   7.638 -0.3080  0.0135 -0.1729
  205loPI   C6A 3276  13.365   3.515   7.533 -0.1282 -0.0428 -0.2796
  205loPI   C1B 3277  13.537   3.922   9.112 -0.3148  0.0820 -0.2413
  205loPI   C2B 3278  13.599   3.975   8.666  0.1327  0.0358 -0.1168
  205loPI   C3B 3279  13.520   3.825   8.355 -0.0742  0.2343  0.0213
  205loPI   C4B 3280  13.546   3.511   7.981 -0.0365  0.2524  0.3118
  206loPI    C1 3281   9.279   9.048   9.812 -0.2843 -0.0513  0.0786
  206loPI    C2 3282   9.303   9.238  10.163  0.0694 -0.1527  0.1135
  206loPI    C3 3283   9.173   8.860  10.148 -0.1359 -0.0833  0.1081
  206loPI   PO4 3284   9.418   9.133   9.618  0.2110 -0.1208 -0.1409
  206loPI   GL1 3285   9.547   9.202   9.135  0.4061 -0.1515  0.0324
  206loPI   GL2 3286   9.860   9.120   9.276 -0.0577 -0.0299  0.1094
  206loPI   C1A 3287   9.504   8.914   8.710  0.0201  0.1032  0.0471
  206loPI   C2A 3288   9.388   8.618   8.303  0.2131  0.1382  0.0812
  206loPI   C3A 3289   9.462   8.357   8.112 -0.1422  0.1191  0.4102
  206loPI   C4A 3290   9.553   7.940   7.850 -0.1059 -0.0106  0.4079
  206loPI   C5A 3291   9.794   7.712   7.482 -0.1515  0.1115  0.1217
  206loPI   C6A 3292   9.634   7.518   7.096 -0.3420 -0.3042 -0.1769
  206loPI   C1B 3293  10.034   8.854   8.906 -0.3607 -0.1023  0.0105
  206loPI   C2B 3294  10.005   8.772   8.526 -0.0750  0.1753  0.1048
  206loPI   C3B 3295   9.840   8.738   8.194 -0.1211 -0.1669  0.0451
  206loPI   C4B 3296   9.494   8.734   7.778 -0.0495 -0.0622  0.3362
  207loPI    C1 3297  10.169  11.606   9.386 -0.0708 -0.0011  0.0093
  207loPI    C2 3298  10.046  11.921   9.600 -0.0496  0.1536 -0.2031
  207loPI    C3 3299  10.257  11.630   9.776 -0.0509  0.2676 -0.0096
  207loPI   PO4 3300  10.000  11.579   9.193  0.0039 -0.3895  0.2214
  207loPI   GL1 3301  10.065  11.607   8.771  0.3025  0.0236  0.0170
  207loPI   GL2 3302  10.034  11.212   8.870 -0.1754 -0.0353  0.2051
  207loPI   C1A 3303  10.196  11.955   8.503  0.1571  0.1739 -0.1300
  207loPI   C2A 3304  10.111  11.985   8.113 -0.0232 -0.2271 -0.1425
  207loPI   C3A 3305  10.273  11.931   7.671  0.2469 -0.0045 -0.0476
  207loPI   C4A 3306  10.416  12.061   7.293 -0.0244 -0.1003 -0.0508
  207loPI   C5A 3307  10.379  12.113   6.849  0.2482 -0.0446 -0.0981
  207loPI   C6A 3308  10.103  12.095   6.564 -0.1674  0.2110 -0.0528
  207loPI   C1B 3309  10.192  11.144   8.499 -0.0754  0.0236 -0.1102
  207loPI   C2B 3310  10.015  11.103   8.085  0.0355  0.2731  0.2911
  207loPI   C3B 3311  10.051  10.903   7.714  0.1973  0.1561  0.0426
  207loPI   C4B 3312  10.153  10.909   7.268 -0.1805  0.0034  0.2352
  208loPI    C1 3313  13.443  14.394  10.087 -0.0296 -0.1644 -0.3846
  208loPI    C2 3314  13.764  14.158  10.128  0.1664  0.1609  0.0290
  208loPI    C3 3315  13.518  14.217  10.438 -0.0844  0.2146 -0.1772
  208loPI   PO4 3316  13.368  14.354   9.764 -0.4060 -0.1686 -0.0248
  208loPI   GL1 3317  13.229  14.388   9.298  0.1031 -0.0919  0.0691
  208loPI   GL2 3318  13.455  14.558   9.298  0.2323  0.2920 -0.4579
  208loPI   C1A 3319  13.438  14.125   9.012  0.0043  0.3642  0.2250
  208loPI   C2A 3320  13.660  14.035   8.550  0.1159  0.4301  0.1439
  208loPI   C3A 3321  13.747  14.014   8.086  0.1960  0.4778  0.4354
  208loPI   C4A 3322  13.829  13.984   7.707 -0.0492  0.0619  0.2661
  208loPI   C5A 3323  14.171  13.741   7.650  0.1365 -0.0885  0.2452
  208loPI   C6A 3324  14.530  13.418   7.569  0.1937  0.0462 -0.1054
  208loPI   C1B 3325  13.442  14.650   8.851  0.0038  0.0705  0.0966
  208loPI   C2B 3326  13.388  14.416   8.543 -0.2419 -0.0287 -0.3364
  208loPI   C3B 3327  13.417  14.336   8.206  0.0007  0.1195 -0.0173
  208loPI   C4B 3328  13.559  14.490   7.805 -0.0709  0.0882  0.0814
  209loPI    C1 3329  14.391  15.667   9.906  0.2301 -0.1391 -0.0036
  209loPI    C2 3330  14.001  15.608   9.969  0.2721 -0.3791  0.0451
  209loPI    C3 3331  14.132  15.966   9.848  0.0340 -0.3064 -0.0045
  209loPI   PO4 3332  14.449  15.562   9.717  0.0019  0.1803 -0.0506
  209loPI   GL1 3333  14.445  15.281   9.342  0.0266  0.0935 -0.0042
  209loPI   GL2 3334  14.518  15.625   9.220  0.0194  0.2130  0.0849
  209loPI   C1A 3335  14.360  15.004   9.089  0.1161  0.1886  0.0370
  209loPI   C2A 3336  14.305  15.016   8.698  0.4768 -0.0133  0.1776
  209loPI   C3A 3337  14.227  14.971   8.223 -0.0907 -0.2895 -0.2189
  209loPI   C4A 3338  13.939  15.030   7.751  0.1581 -0.1774 -0.2010
  209loPI   C5A 3339  13.704  15.053   7.467  0.0565 -0.0172  0.4484
  209loPI   C6A 3340  13.343  14.730   7.325 -0.1592 -0.1332 -0.0279
  209loPI   C1B 3341  14.606  15.414   8.871  0.0155  0.1886  0.2687
  209loPI   C2B 3342  14.706  15.445   8.441  0.1294 -0.0445 -0.5179
  209loPI   C3B 3343  14.672  15.301   8.147  0.0921  0.0634  0.0176
  209loPI   C4B 3344  14.563  15.073   7.855 -0.4420  0.3808  0.2474
  210loPI    C1 3345   4.561  18.364   9.620 -0.1579 -0.0524  0.2205
  210loPI    C2 3346   4.284  18.590   9.799  0.1118  0.2076  0.3173
  210loPI    C3 3347   4.670  18.636   9.892  0.2225  0.0906 -0.0665
  210loPI   PO4 3348   4.494  18.409   9.334  0.3662 -0.1628 -0.1009
  210loPI   GL1 3349   4.398  18.426   8.935 -0.0832  0.0038 -0.0161
  210loPI   GL2 3350   4.190  18.422   8.673  0.3907  0.2009 -0.1600
  210loPI   C1A 3351   4.631  18.597   8.538  0.3006  0.0245  0.1391
  210loPI   C2A 3352   4.700  18.531   8.202  0.0104  0.2977  0.1154
  210loPI   C3A 3353   4.873  18.541   7.749  0.5296 -0.1178 -0.2600
  210loPI   C4A 3354   5.003  18.622   7.299  0.2201  0.0297  0.0472
  210loPI   C5A 3355   4.881  18.715   6.955  0.1097 -0.0621 -0.1957
  210loPI   C6A 3356   4.848  18.563   6.552 -0.1836  0.3619  0.0128
  210loPI   C1B 3357   4.193  18.572   8.296 -0.0164  0.0186  0.4547
  210loPI   C2B 3358   4.328  18.553   7.833  0.3167  0.1053  0.1778
  210loPI   C3B 3359   4.481  18.565   7.413  0.0790  0.1671 -0.0176
  210loPI   C4B 3360   4.655  18.173   7.148 -0.0123 -0.1189 -0.1421
  211loPI    C1 3361  16.196  13.227  10.054  0.0616  0.1553 -0.0672
  211loPI    C2 3362  15.977  13.525   9.901 -0.0553  0.0818 -0.0444
  211loPI    C3 3363  15.829  13.154   9.913 -0.0428  0.0837  0.2330
  211loPI   PO4 3364  16.382  13.163   9.941 -0.2141 -0.1237 -0.1811
  211loPI   GL1 3365  16.610  13.066   9.612 -0.1189 -0.2926  0.1344
  211loPI   GL2 3366  16.483  12.799   9.614  0.1484 -0.1738  0.3088
  211loPI   C1A 3367  16.731  12.849   9.184  0.0481  0.1441  0.1992
  211loPI   C2A 3368  16.887  12.749   8.786 -0.0032 -0.3525  0.1647
  211loPI   C3A 3369  16.856  12.884   8.267  0.1932 -0.0808 -0.0415
  211loPI   C4A 3370  16.581  12.846   7.918  0.1748 -0.2322 -0.0460
  211loPI   C5A 3371  16.575  12.585   7.501 -0.3872 -0.0786  0.0929
  211loPI   C6A 3372  16.894  12.305   7.425  0.2122 -0.0265 -0.1565
  211loPI   C1B 3373  16.431  12.423   9.268  0.0637  0.1625 -0.1423
  211loPI   C2B 3374  16.519  12.442   8.827 -0.1599  0.1366  0.0214
  211loPI   C3B 3375  16.622  12.381   8.459 -0.0688 -0.2266  0.1978
  211loPI   C4B 3376  16.511  11.990   8.341 -0.3473 -0.2066 -0.2695
  212loPI    C1 3377  18.451   5.576   9.998 -0.0444 -0.2481  0.0642
  212loPI    C2 3378  18.058   5.515  10.040 -0.0542 -0.1088  0.1807
  212loPI    C3 3379  18.302   5.475  10.355  0.0009 -0.0187  0.1499
  212loPI   PO4 3380  18.429   5.600   9.712 -0.3551  0.1410 -0.1177
  212loPI   GL1 3381  18.093   5.659   9.408  0.0028  0.1788  0.0872
  212loPI   GL2 3382  17.760   5.700   9.254 -0.1573  0.2295  0.2589
  212loPI   C1A 3383  18.116   5.512   9.013  0.0591  0.1920  0.0887
  212loPI   C2A 3384  18.211   5.337   8.726 -0.1370  0.1041 -0.1454
  212loPI   C3A 3385  18.368   5.236   8.307  0.0247 -0.2608 -0.0915
  212loPI   C4A 3386  18.353   5.093   7.997 -0.1172 -0.2766 -0.1285
  212loPI   C5A 3387  18.243   5.242   7.509 -0.0821  0.0778 -0.1373
  212loPI   C6A 3388  18.233   5.419   7.117 -0.2167  0.1094 -0.1724
  212loPI   C1B 3389  17.795   6.051   8.968  0.1562  0.4004  0.0979
  212loPI   C2B 3390  17.982   6.327   8.871  0.1661  0.1470  0.1418
  212loPI   C3B 3391  18.130   6.674   8.722 -0.0044  0.0820 -0.0763
  212loPI   C4B 3392  18.406   6.720   8.264  0.0770 -0.0156  0.3452
  213loPI    C1 3393   4.519   4.962   9.824  0.2427 -0.1901 -0.1782
  213loPI    C2 3394   4.435   4.712  10.125 -0.3535 -0.1142 -0.2709
  213loPI    C3 3395   4.614   5.061  10.200  0.1191 -0.3867 -0.0935
  213loPI   PO4 3396   4.286   5.035   9.681  0.0139 -0.1653 -0.0852
  213loPI   GL1 3397   4.063   4.949   9.238 -0.4076  0.2454  0.1484
  213loPI   GL2 3398   3.981   4.616   9.318  0.1466  0.4132  0.1632
  213loPI   C1A 3399   4.126   5.192   8.871 -0.0807  0.0493 -0.1060
  213loPI   C2A 3400   4.107   5.299   8.359  0.1588  0.0503 -0.1701
  213loPI   C3A 3401   3.949   5.336   7.885  0.0082  0.1120  0.0923
  213loPI   C4A 3402   3.906   5.422   7.426  0.2761 -0.3362 -0.1282
  213loPI   C5A 3403   3.781   5.281   7.108 -0.0870 -0.1354  0.0556
  213loPI   C6A 3404   3.332   5.491   6.924 -0.1259 -0.1095 -0.1556
  213loPI   C1B 3405   4.019   4.588   8.844 -0.1411 -0.1095 -0.1146
  213loPI   C2B 3406   4.059   4.370   8.440 -0.2989 -0.1909 -0.0116
  213loPI   C3B 3407   3.969   4.399   8.010 -0.0408 -0.0164 -0.0621
  213loPI   C4B 3408   3.926   4.417   7.543 -0.0888  0.1046  0.3372
  214loPI    C1 3409   0.486   0.840  10.142 -0.0707  0.0629  0.0837
  214loPI    C2 3410   0.417   0.945  10.522  0.1205 -0.0177  0.1415
  214loPI    C3 3411   0.623   0.611  10.440  0.0191 -0.0386 -0.0342
  214loPI   PO4 3412   0.344   0.813   9.926 -0.4446  0.0639 -0.0294
  214loPI   GL1 3413   0.309   0.786   9.617 -0.1665 -0.0520 -0.1806
  214loPI   GL2 3414   0.517   0.545   9.538 -0.2184  0.2370  0.2915
  214loPI   C1A 3415  -0.002   0.578   9.306 -0.0031  0.0162 -0.1007
  214loPI   C2A 3416  -0.081   0.474   8.981  0.1775 -0.1159  0.0391
  214loPI   C3A 3417  -0.119   0.539   8.597  0.1405 -0.0658 -0.0056
  214loPI   C4A 3418  -0.097   0.651   8.110  0.0932 -0.0147 -0.2063
  214loPI   C5A 3419  -0.052   0.813   7.772  0.3273  0.3367  0.0267
  214loPI   C6A 3420   0.137   0.905   7.452 -0.4045  0.1911 -0.0028
  214loPI   C1B 3421   0.444   0.808   9.140  0.1508  0.1649 -0.1850
  214loPI   C2B 3422   0.392   0.779   8.697  0.1863  0.1416  0.2503
  214loPI   C3B 3423   0.469   0.857   8.256  0.0425 -0.1328 -0.0261
  214loPI   C4B 3424   0.474   0.916   7.803 -0.1008  0.4089 -0.0240
  215loPI    C1 3425   4.039   7.076  10.106  0.0753  0.2050  0.0972
  215loPI    C2 3426   4.353   7.253   9.933  0.3120 -0.0828  0.2230
  215loPI    C3 3427   4.317   7.255  10.331 -0.1133  0.3821  0.1924
  215loPI   PO4 3428   3.849   7.182  10.008 -0.1352  0.0649  0.0099
  215loPI   GL1 3429   3.959   7.410   9.673 -0.1678 -0.1057  0.3183
  215loPI   GL2 3430   4.189   7.420   9.451 -0.3581  0.0957 -0.0901
  215loPI   C1A 3431   3.799   7.686   9.385 -0.1047 -0.2655  0.1408
  215loPI   C2A 3432   3.770   7.781   8.975  0.1513  0.0092 -0.3849
  215loPI   C3A 3433   3.633   7.829   8.514 -0.3549 -0.2643 -0.0508
  215loPI   C4A 3434   3.344   7.661   8.217  0.2424  0.1467 -0.2352
  215loPI   C5A 3435   3.186   7.768   7.902  0.0352  0.0214 -0.1149
  215loPI   C6A 3436   3.275   8.146   7.703  0.2232  0.2171  0.2726
  215loPI   C1B 3437   4.355   7.258   9.207 -0.1595 -0.1405  0.0198
  215loPI   C2B 3438   4.679   7.288   8.926 -0.0464 -0.2258  0.2525
  215loPI   C3B 3439   4.637   7.257   8.444 -0.0246 -0.1777 -0.0818
  215loPI   C4B 3440   4.510   7.224   8.014 -0.1029  0.0726  0.1285
  216loPI    C1 3441  15.707   2.624   9.983  0.2490  0.0348  0.0569
  216loPI    C2 3442  15.743   2.729  10.367  0.0834  0.1685  0.0377
  216loPI    C3 3443  15.543   2.397  10.268 -0.2966  0.3915  0.0421
  216loPI   PO4 3444  16.031   2.536   9.871 -0.0096 -0.2242 -0.0517
  216loPI   GL1 3445  16.220   2.383   9.477  0.2276 -0.0931 -0.2577
  216loPI   GL2 3446  16.346   2.604   9.256  0.3779  0.0979 -0.1912
  216loPI   C1A 3447  15.926   2.238   9.141 -0.3085  0.1043 -0.0283
  216loPI   C2A 3448  15.974   2.032   8.859 -0.1146 -0.2430  0.1493
  216loPI   C3A 3449  16.014   1.825   8.491 -0.0268 -0.1436 -0.1216
  216loPI   C4A 3450  16.184   1.965   8.099  0.0217 -0.2167 -0.2295
  216loPI   C5A 3451  16.389   1.888   7.679  0.0052  0.1002  0.0877
  216loPI   C6A 3452  16.729   1.970   7.383 -0.2216 -0.1733 -0.1126
  216loPI   C1B 3453  16.356   2.338   8.881 -0.0905  0.1854  0.0771
  216loPI   C2B 3454  16.369   2.190   8.463 -0.2879  0.2438  0.0915
  216loPI   C3B 3455  16.469   2.338   8.055  0.3896  0.2830 -0.5226
  216loPI   C4B 3456  16.655   2.316   7.757  0.2284 -0.3400 -0.0336
  217loPI    C1 3457   8.273   3.757   9.851  0.3873  0.1707 -0.3286
  217loPI    C2 3458   8.601   3.782  10.078  0.0372 -0.1131  0.2323
  217loPI    C3 3459   8.413   3.431  10.037 -0.0199 -0.0239 -0.3518
  217loPI   PO4 3460   8.255   3.774   9.577 -0.0381 -0.1572 -0.0098
  217loPI   GL1 3461   8.378   3.647   9.154  0.1328  0.1600 -0.2551
  217loPI   GL2 3462   8.583   3.715   9.025  0.3164 -0.0529  0.1840
  217loPI   C1A 3463   8.161   3.694   8.766 -0.1315 -0.3671 -0.3162
  217loPI   C2A 3464   8.101   3.706   8.383  0.0760 -0.0809  0.0220
  217loPI   C3A 3465   8.096   3.553   8.047 -0.1206  0.0141  0.1267
  217loPI   C4A 3466   8.096   3.648   7.658  0.2055  0.0293  0.2698
  217loPI   C5A 3467   7.904   3.907   7.329  0.1244  0.2501  0.0567
  217loPI   C6A 3468   7.557   3.871   7.147  0.0056 -0.0229 -0.2216
  217loPI   C1B 3469   8.597   3.831   8.534  0.0067 -0.1829 -0.1987
  217loPI   C2B 3470   8.524   3.842   8.090  0.1543  0.1032  0.2943
  217loPI   C3B 3471   8.613   3.741   7.803  0.2881  0.4054  0.1457
  217loPI   C4B 3472   8.550   3.833   7.303 -0.1887 -0.4391  0.1352
  218loPI    C1 3473  19.226   8.025  10.436  0.2092  0.1986 -0.0943
  218loPI    C2 3474  19.169   8.109  10.823  0.2904  0.0478 -0.0488
  218loPI    C3 3475  19.359   7.773  10.717  0.1383  0.0151 -0.2233
  218loPI   PO4 3476  19.095   8.401  10.360  0.0865  0.2292  0.1536
  218loPI   GL1 3477  19.127   8.433   9.924 -0.2305  0.1180 -0.3053
  218loPI   GL2 3478  19.427   8.685  10.024 -0.1514 -0.0166  0.2241
  218loPI   C1A 3479  19.188   8.548   9.521  0.2283  0.2005  0.2110
  218loPI   C2A 3480  18.997   8.566   9.081 -0.1121 -0.0937  0.0946
  218loPI   C3A 3481  18.961   8.755   8.720  0.2380  0.1048 -0.2256
  218loPI   C4A 3482  18.854   8.852   8.289  0.0901  0.1776 -0.1421
  218loPI   C5A 3483  18.990   8.979   7.819  0.0896  0.0544  0.5093
  218loPI   C6A 3484  18.780   9.143   7.436 -0.0505 -0.2417  0.0072
  218loPI   C1B 3485  19.517   8.842   9.654  0.0159 -0.0460 -0.0047
  218loPI   C2B 3486  19.397   8.868   9.125 -0.0254 -0.0898  0.4112
  218loPI   C3B 3487  19.552   8.784   8.643  0.1611  0.1647  0.3667
  218loPI   C4B 3488  19.674   8.847   8.204 -0.3071  0.0255  0.0540
  219loPI    C1 3489  19.119   2.951  10.184  0.0563 -0.2342 -0.0044
  219loPI    C2 3490  19.511   3.016  10.228  0.0545 -0.3057  0.1201
  219loPI    C3 3491  19.258   3.106  10.525 -0.0787  0.1717 -0.1274
  219loPI   PO4 3492  19.074   3.051   9.944 -0.0416  0.1311 -0.0758
  219loPI   GL1 3493  18.771   3.144   9.647 -0.4344  0.1081  0.1214
  219loPI   GL2 3494  18.703   3.438   9.578 -0.1559 -0.1965 -0.1228
  219loPI   C1A 3495  18.413   3.063   9.332  0.0181 -0.4853  0.0750
  219loPI   C2A 3496  18.193   3.299   9.004  0.0555  0.1408 -0.0627
  219loPI   C3A 3497  18.058   3.247   8.561  0.0898 -0.0840  0.2713
  219loPI   C4A 3498  18.154   2.854   8.235  0.1442  0.0444 -0.2270
  219loPI   C5A 3499  18.215   2.464   8.126  0.2029  0.2556  0.4681
  219loPI   C6A 3500  18.334   2.101   7.936  0.2942 -0.4169  0.1721
  219loPI   C1B 3501  18.815   3.413   9.091  0.2919 -0.3072 -0.2320
  219loPI   C2B 3502  18.967   3.540   8.720 -0.1552 -0.5391  0.2302
  219loPI   C3B 3503  18.985   3.509   8.192 -0.1628  0.1712 -0.1012
  219loPI   C4B 3504  19.088   3.390   7.635  0.4179 -0.0292 -0.0695
  220loPI    C1 3505  17.262   0.546   9.765  0.1448 -0.1092  0.0803
  220loPI    C2 3506  17.093   0.282  10.014  0.1937 -0.0938  0.1302
  220loPI    C3 3507  17.088   0.672  10.103 -0.1641 -0.0402 -0.0999
  220loPI   PO4 3508  17.495   0.360   9.678  0.1419  0.0441 -0.1592
  220loPI   GL1 3509  17.749   0.554   9.363  0.2653  0.0868 -0.0253
  220loPI   GL2 3510  17.426   0.485   9.142 -0.0617 -0.1802 -0.1478
  220loPI   C1A 3511  17.829   0.770   8.918  0.1711 -0.1420  0.2410
  220loPI   C2A 3512  17.896   0.653   8.563 -0.0397  0.1340  0.3499
  220loPI   C3A 3513  17.958   0.696   8.069  0.0668 -0.2189 -0.2509
  220loPI   C4A 3514  18.193   0.389   7.859  0.1113  0.1058 -0.0882
  220loPI   C5A 3515  18.111  -0.109   7.614 -0.2099 -0.0522 -0.0554
  220loPI   C6A 3516  18.407  -0.212   7.313  0.3681  0.0485  0.2065
  220loPI   C1B 3517  17.515   0.337   8.666  0.3067  0.1234  0.0743
  220loPI   C2B 3518  17.256   0.223   8.268  0.2155 -0.4468  0.0833
  220loPI   C3B 3519  17.099   0.236   7.764  0.0141  0.2375 -0.0649
  220loPI   C4B 3520  16.824   0.177   7.507  0.1562 -0.2706  0.1925
  221loPI    C1 3521   8.511  18.025   9.680 -0.0827 -0.0453 -0.0589
  221loPI    C2 3522   8.250  18.323   9.728  0.0124  0.0454 -0.1000
  221loPI    C3 3523   8.459  18.189  10.041 -0.0332  0.0191 -0.0807
  221loPI   PO4 3524   8.549  18.121   9.332  0.0930 -0.3120 -0.2783
  221loPI   GL1 3525   8.456  18.050   8.902  0.2372  0.2116 -0.1914
  221loPI   GL2 3526   8.667  18.030   8.568  0.0543 -0.0939  0.2236
  221loPI   C1A 3527   8.031  17.927   8.931  0.1378  0.0379 -0.0981
  221loPI   C2A 3528   7.841  17.522   8.731  0.1890  0.0853  0.0510
  221loPI   C3A 3529   7.745  17.231   8.415 -0.0895  0.0137  0.0289
  221loPI   C4A 3530   7.603  17.158   8.005  0.0709  0.1560  0.1539
  221loPI   C5A 3531   7.537  17.032   7.609  0.2401 -0.3612  0.1470
  221loPI   C6A 3532   7.350  16.984   7.138 -0.0805 -0.0301  0.0366
  221loPI   C1B 3533   8.514  18.279   8.112  0.4277  0.0035  0.0450
  221loPI   C2B 3534   8.335  18.220   7.705 -0.1593  0.0538  0.2060
  221loPI   C3B 3535   8.273  18.328   7.285  0.0905  0.3429 -0.0940
  221loPI   C4B 3536   8.207  18.599   6.820  0.2127 -0.1658 -0.0221
  222loPI    C1 3537  14.622  12.083   9.905 -0.0873 -0.0554  0.0776
  222loPI    C2 3538  14.611  11.908  10.264 -0.2189  0.0091  0.1053
  222loPI    C3 3539  14.879  12.195  10.190 -0.2371  0.0441  0.1744
  222loPI   PO4 3540  14.349  12.157   9.899 -0.1740 -0.0443 -0.2819
  222loPI   GL1 3541  14.035  12.064   9.695  0.2593  0.1838  0.0891
  222loPI   GL2 3542  14.265  11.841   9.534 -0.4496 -0.0648 -0.3348
  222loPI   C1A 3543  13.945  11.967   9.179 -0.0272  0.2087  0.0248
  222loPI   C2A 3544  14.039  11.784   8.804  0.2184 -0.0235 -0.1344
  222loPI   C3A 3545  13.944  11.918   8.382 -0.0775 -0.1028 -0.0410
  222loPI   C4A 3546  13.708  12.044   7.977 -0.0582  0.0706 -0.1924
  222loPI   C5A 3547  13.715  11.966   7.486 -0.4392  0.3807  0.4392
  222loPI   C6A 3548  13.855  11.729   7.138 -0.1834 -0.2144 -0.1027
  222loPI   C1B 3549  14.397  11.652   9.130  0.1018  0.0991 -0.3050
  222loPI   C2B 3550  14.523  11.692   8.749  0.2271 -0.1957  0.2315
  222loPI   C3B 3551  14.505  11.682   8.284 -0.0866 -0.0805 -0.2411
  222loPI   C4B 3552  14.918  11.761   8.118  0.2545  0.1671  0.0665
  223loPI    C1 3553  17.262   9.293  10.441  0.1085 -0.1547 -0.0029
  223loPI    C2 3554  17.131   9.051  10.730 -0.0080 -0.0506  0.0321
  223loPI    C3 3555  17.344   9.376  10.823 -0.1549  0.0525  0.0112
  223loPI   PO4 3556  17.357   9.042  10.200 -0.2169  0.1255 -0.3612
  223loPI   GL1 3557  17.163   8.976   9.854 -0.1411  0.0604  0.0342
  223loPI   GL2 3558  16.973   8.666   9.788 -0.1301  0.0894  0.0342
  223loPI   C1A 3559  16.816   9.187   9.639  0.0422 -0.1198  0.0894
  223loPI   C2A 3560  16.585   9.133   9.223 -0.2715 -0.1477 -0.1965
  223loPI   C3A 3561  16.705   9.012   8.829  0.1197 -0.4125 -0.2198
  223loPI   C4A 3562  16.659   8.955   8.416 -0.0928  0.0236  0.0795
  223loPI   C5A 3563  16.826   9.012   8.069 -0.2336  0.2457 -0.1671
  223loPI   C6A 3564  16.939   8.748   7.708 -0.1480  0.1651  0.0079
  223loPI   C1B 3565  17.125   8.765   9.424  0.0241 -0.1255  0.4376
  223loPI   C2B 3566  17.132   8.846   8.974 -0.2256  0.0301  0.4190
  223loPI   C3B 3567  17.318   8.862   8.487  0.0142  0.0807  0.1279
  223loPI   C4B 3568  17.331   8.772   7.995 -0.1741  0.0095  0.4079
  224loPI    C1 3569  15.508  13.969  10.136  0.0178  0.0954 -0.1268
  224loPI    C2 3570  15.380  13.637  10.318  0.1788  0.0323 -0.1272
  224loPI    C3 3571  15.600  13.903  10.520 -0.1966  0.2841 -0.0408
  224loPI   PO4 3572  15.584  13.873   9.854 -0.1643 -0.4211  0.2233
  224loPI   GL1 3573  15.794  14.052   9.467 -0.1295 -0.0957  0.2177
  224loPI   GL2 3574  15.489  14.078   9.408 -0.1596  0.1067 -0.0860
  224loPI   C1A 3575  15.929  14.033   8.988  0.5346  0.3924  0.0644
  224loPI   C2A 3576  15.906  14.040   8.540  0.1754  0.1314 -0.0128
  224loPI   C3A 3577  16.034  13.944   8.046 -0.1497 -0.0026  0.2056
  224loPI   C4A 3578  15.753  14.052   7.706 -0.3765 -0.0119 -0.2262
  224loPI   C5A 3579  15.468  13.973   7.416  0.2288 -0.0985  0.0843
  224loPI   C6A 3580  15.070  13.878   7.229 -0.1132 -0.0991 -0.1722
  224loPI   C1B 3581  15.422  14.190   8.993 -0.1648  0.1829  0.0105
  224loPI   C2B 3582  15.321  13.969   8.475 -0.1290  0.1237 -0.0952
  224loPI   C3B 3583  15.242  14.016   7.952 -0.1402  0.1727 -0.1085
  224loPI   C4B 3584  15.246  14.365   7.578  0.1001  0.2422 -0.1875
  225loPI    C1 3585   6.661   8.701   9.659  0.0415 -0.1856 -0.1674
  225loPI    C2 3586   6.341   8.672   9.897  0.1193  0.0900 -0.0253
  225loPI    C3 3587   6.709   8.649  10.052  0.1701 -0.0029 -0.1579
  225loPI   PO4 3588   6.604   8.661   9.450 -0.0150  0.0757 -0.0791
  225loPI   GL1 3589   6.522   8.554   9.054  0.3822 -0.0448 -0.0545
  225loPI   GL2 3590   6.848   8.662   8.911 -0.3437  0.3182  0.1402
  225loPI   C1A 3591   6.475   8.324   8.697 -0.0363  0.0952  0.0007
  225loPI   C2A 3592   6.298   8.131   8.340  0.3758 -0.3381 -0.3248
  225loPI   C3A 3593   6.307   8.113   7.956 -0.0887 -0.2371 -0.1217
  225loPI   C4A 3594   6.389   8.092   7.598 -0.1033  0.2331 -0.1715
  225loPI   C5A 3595   6.674   8.068   7.266  0.1410  0.0098  0.1737
  225loPI   C6A 3596   6.889   7.893   6.948 -0.4591  0.0593 -0.0156
  225loPI   C1B 3597   6.796   8.668   8.372  0.3016 -0.2764 -0.2295
  225loPI   C2B 3598   6.842   8.530   7.961 -0.1621 -0.1917 -0.4891
  225loPI   C3B 3599   7.028   8.354   7.557 -0.7507 -0.0525  0.2908
  225loPI   C4B 3600   7.288   8.066   7.313 -0.2591 -0.1270 -0.4974
  226loPI    C1 3601   5.669  19.283   9.686  0.2171 -0.1107 -0.2371
  226loPI    C2 3602   5.959  19.500   9.856  0.1364 -0.0053 -0.2326
  226loPI    C3 3603   5.750  19.238  10.075  0.1630 -0.0108 -0.2137
  226loPI   PO4 3604   5.735  19.262   9.453 -0.2256  0.3641  0.1708
  226loPI   GL1 3605   5.634  19.410   9.053  0.4123 -0.0027  0.0202
  226loPI   GL2 3606   5.800  19.616   8.827  0.2152 -0.0287  0.0364
  226loPI   C1A 3607   5.332  19.347   8.687  0.0315  0.2290 -0.0838
  226loPI   C2A 3608   5.413  19.283   8.279  0.0163 -0.1376  0.1642
  226loPI   C3A 3609   5.389  19.332   7.840 -0.1833  0.2505 -0.1232
  226loPI   C4A 3610   5.567  19.361   7.465  0.0808  0.3465 -0.0688
  226loPI   C5A 3611   5.626  19.273   7.054  0.0977 -0.3341 -0.1590
  226loPI   C6A 3612   6.006  19.134   6.929 -0.2019 -0.2933  0.0129
  226loPI   C1B 3613   5.662  19.781   8.493 -0.0213 -0.0453  0.1335
  226loPI   C2B 3614   5.441  19.795   8.140 -0.5801  0.0842  0.2852
  226loPI   C3B 3615   5.336  19.942   7.715 -0.0479  0.0426 -0.2273
  226loPI   C4B 3616   5.470  20.038   7.307  0.1351  0.2269  0.2226
  227loPI    C1 3617   7.770  11.353   9.421  0.1495  0.2272 -0.0727
  227loPI    C2 3618   7.477  11.476   9.664  0.1294  0.0601 -0.0109
  227loPI    C3 3619   7.856  11.476   9.792  0.1163 -0.0483  0.0284
  227loPI   PO4 3620   7.626  11.215   9.260 -0.3072  0.2572  0.0651
  227loPI   GL1 3621   7.410  11.339   8.889 -0.1458  0.2849 -0.1497
  227loPI   GL2 3622   7.059  11.500   8.826  0.0836  0.2211 -0.0277
  227loPI   C1A 3623   7.388  11.339   8.454 -0.0125  0.1252  0.0217
  227loPI   C2A 3624   7.225  11.420   8.086  0.1016  0.1179 -0.1591
  227loPI   C3A 3625   6.959  11.554   7.746 -0.1668 -0.2678  0.2226
  227loPI   C4A 3626   6.854  11.318   7.311 -0.0534  0.3026  0.0869
  227loPI   C5A 3627   6.456  11.078   7.325 -0.0867  0.1591  0.1797
  227loPI   C6A 3628   6.038  11.055   7.117  0.2867  0.1383 -0.0923
  227loPI   C1B 3629   6.893  11.118   8.633  0.2212  0.1773 -0.1557
  227loPI   C2B 3630   6.841  11.137   8.242 -0.1903 -0.0398  0.0373
  227loPI   C3B 3631   6.943  11.097   7.908  0.1554 -0.0131  0.2822
  227loPI   C4B 3632   7.231  10.965   7.514 -0.0842  0.2925 -0.0895
  228loPI    C1 3633   1.188   5.984  10.199  0.1338  0.2328  0.0022
  228loPI    C2 3634   1.294   6.023  10.583 -0.1574 -0.4154  0.1617
  228loPI    C3 3635   0.974   6.218  10.442 -0.1045 -0.2485  0.2705
  228loPI   PO4 3636   1.523   6.037  10.075  0.1941 -0.0698 -0.3016
  228loPI   GL1 3637   1.579   6.121   9.673  0.1010 -0.0368 -0.0245
  228loPI   GL2 3638   1.855   6.036   9.553 -0.1685  0.5049 -0.0733
  228loPI   C1A 3639   1.552   6.442   9.462  0.0208 -0.0111 -0.0611
  228loPI   C2A 3640   1.539   6.479   9.044 -0.1135  0.0188 -0.0285
  228loPI   C3A 3641   1.444   6.794   8.748 -0.1836  0.0448  0.2505
  228loPI   C4A 3642   1.258   7.077   8.610  0.0176 -0.0977 -0.1319
  228loPI   C5A 3643   1.319   7.324   8.317 -0.1833 -0.1288 -0.3619
  228loPI   C6A 3644   1.073   7.719   8.158  0.0620 -0.0775 -0.2439
  228loPI   C1B 3645   1.959   6.031   9.112  0.0829  0.1622 -0.2991
  228loPI   C2B 3646   2.212   6.047   8.787 -0.0567  0.1787  0.0769
  228loPI   C3B 3647   2.125   6.138   8.349  0.0079  0.0373  0.2251
  228loPI   C4B 3648   2.098   6.007   7.948  0.2312 -0.1716  0.1367
  229loPI    C1 3649  14.269  17.301   9.672 -0.2193  0.0586  0.1682
  229loPI    C2 3650  14.316  17.172  10.048  0.0896  0.1621  0.1674
  229loPI    C3 3651  14.131  17.520   9.977  0.0744  0.1664  0.2271
  229loPI   PO4 3652  14.136  17.120   9.545  0.2595  0.1444 -0.1636
  229loPI   GL1 3653  14.094  17.016   9.079 -0.3178  0.0920  0.1416
  229loPI   GL2 3654  13.720  17.077   9.165 -0.2298 -0.0793  0.2086
  229loPI   C1A 3655  14.000  16.907   8.675 -0.4543  0.1594 -0.1168
  229loPI   C2A 3656  14.150  16.844   8.242  0.4008 -0.2170 -0.1575
  229loPI   C3A 3657  14.220  17.002   7.898  0.1924 -0.1753  0.0541
  229loPI   C4A 3658  14.236  17.063   7.494  0.1787 -0.0874 -0.1176
  229loPI   C5A 3659  14.437  16.924   6.997  0.1342 -0.0186  0.1616
  229loPI   C6A 3660  14.261  17.225   6.692 -0.1358  0.3360  0.2363
  229loPI   C1B 3661  13.733  16.677   9.003  0.1229 -0.2360  0.0960
  229loPI   C2B 3662  13.660  16.467   8.651  0.1341 -0.0824  0.1985
  229loPI   C3B 3663  13.730  16.565   8.178 -0.3204 -0.0292 -0.0073
  229loPI   C4B 3664  13.758  16.585   7.762  0.0017  0.1285  0.0685
  230loPI    C1 3665   0.591  16.424  10.130  0.2218 -0.1110  0.1594
  230loPI    C2 3666   0.792  16.249   9.832  0.3191 -0.0172  0.1691
  230loPI    C3 3667   0.982  16.493  10.084  0.2033  0.0306  0.2109
  230loPI   PO4 3668   0.319  16.574   9.993 -0.0692 -0.0502  0.1314
  230loPI   GL1 3669   0.255  16.774   9.611 -0.1662 -0.0628 -0.0905
  230loPI   GL2 3670   0.312  16.451   9.474 -0.0868 -0.0631 -0.0834
  230loPI   C1A 3671   0.135  16.803   9.187 -0.3402  0.3132  0.2996
  230loPI   C2A 3672   0.019  16.994   8.756 -0.0144 -0.0503 -0.3726
  230loPI   C3A 3673   0.068  16.903   8.301  0.2916 -0.2101  0.1952
  230loPI   C4A 3674   0.195  17.002   7.850  0.1600  0.1466 -0.0392
  230loPI   C5A 3675   0.340  16.685   7.562  0.1196  0.0718 -0.0009
  230loPI   C6A 3676   0.549  16.660   7.148  0.1145 -0.0859  0.0313
  230loPI   C1B 3677   0.323  16.330   9.157 -0.0103  0.1562  0.1294
  230loPI   C2B 3678   0.403  16.513   8.843 -0.0317 -0.0287 -0.2914
  230loPI   C3B 3679   0.397  16.613   8.508 -0.1034 -0.2496  0.0404
  230loPI   C4B 3680   0.371  16.539   8.129  0.0341  0.1903 -0.2669
  231loPI    C1 3681  18.535  17.900   9.936 -0.2876 -0.2567  0.1066
  231loPI    C2 3682  18.690  17.668  10.222  0.0683  0.0033  0.1313
  231loPI    C3 3683  18.375  17.901  10.302 -0.0590 -0.1930  0.2080
  231loPI   PO4 3684  18.607  17.731   9.659 -0.0322  0.3843  0.0974
  231loPI   GL1 3685  18.357  17.721   9.227 -0.1032  0.0113  0.0407
  231loPI   GL2 3686  18.490  18.027   9.212  0.2192 -0.1363 -0.2617
  231loPI   C1A 3687  18.399  17.519   8.851  0.0830  0.1853  0.1429
  231loPI   C2A 3688  18.380  17.470   8.339  0.0925 -0.4039  0.0101
  231loPI   C3A 3689  18.405  17.226   8.070  0.1618  0.0865 -0.0408
  231loPI   C4A 3690  18.315  17.164   7.645 -0.2594 -0.2375  0.0779
  231loPI   C5A 3691  18.466  17.140   7.210  0.2983 -0.0295  0.4276
  231loPI   C6A 3692  18.463  17.176   6.694  0.2340  0.2903  0.2615
  231loPI   C1B 3693  18.453  18.030   8.810  0.1499  0.2679 -0.1724
  231loPI   C2B 3694  18.569  18.087   8.345 -0.1894 -0.1323  0.3155
  231loPI   C3B 3695  18.555  17.892   7.872 -0.0289  0.0157  0.0662
  231loPI   C4B 3696  18.301  17.699   7.759  0.1797  0.0348  0.0081
  232loPI    C1 3697   3.788   0.236   9.274 -0.1832 -0.1980  0.0845
  232loPI    C2 3698   3.819  -0.150   9.176  0.1682 -0.1121 -0.1620
  232loPI    C3 3699   4.111   0.026   9.385 -0.1036 -0.0367  0.1617
  232loPI   PO4 3700   3.664   0.329   9.069  0.0252 -0.1394  0.1129
  232loPI   GL1 3701   3.728   0.563   8.760  0.0775 -0.1236  0.0384
  232loPI   GL2 3702   3.956   0.695   8.840  0.0889 -0.4302  0.0257
  232loPI   C1A 3703   3.743   0.663   8.308 -0.1167 -0.0228 -0.1863
  232loPI   C2A 3704   3.795   0.731   7.900  0.2864 -0.0697 -0.0118
  232loPI   C3A 3705   3.692   0.813   7.478  0.0020 -0.0478 -0.0754
  232loPI   C4A 3706   3.895   1.039   7.144 -0.1993 -0.0733  0.5567
  232loPI   C5A 3707   4.101   0.866   6.757 -0.4987 -0.1117 -0.2588
  232loPI   C6A 3708   4.474   0.667   6.443  0.2443  0.3200  0.2122
  232loPI   C1B 3709   4.229   0.654   8.479 -0.1312 -0.1087 -0.0528
  232loPI   C2B 3710   4.212   0.572   8.053  0.3347  0.3083 -0.3218
  232loPI   C3B 3711   4.245   0.595   7.687 -0.0829 -0.0976 -0.2128
  232loPI   C4B 3712   4.287   0.712   7.308 -0.0116 -0.0389 -0.0642
  233loPI    C1 3713  11.107  17.796   9.443  0.4177 -0.2005  0.2277
  233loPI    C2 3714  10.800  17.711   9.685  0.1461 -0.0356 -0.0515
  233loPI    C3 3715  11.062  17.995   9.787 -0.0638  0.1516 -0.0267
  233loPI   PO4 3716  11.129  17.604   9.232 -0.0588  0.1039 -0.0933
  233loPI   GL1 3717  11.211  17.521   8.771 -0.1312  0.2690 -0.1429
  233loPI   GL2 3718  11.335  17.765   8.555 -0.2116  0.1261  0.1346
  233loPI   C1A 3719  11.158  17.321   8.313  0.1937 -0.0573  0.3028
  233loPI   C2A 3720  10.929  16.947   8.267 -0.2128  0.2080  0.2124
  233loPI   C3A 3721  10.559  16.687   7.986 -0.0312  0.1975 -0.1246
  233loPI   C4A 3722  10.435  16.586   7.549  0.2654  0.1138  0.1275
  233loPI   C5A 3723  10.543  16.483   7.261 -0.1512 -0.3034 -0.0639
  233loPI   C6A 3724  10.572  16.202   6.938  0.1037  0.1775 -0.1237
  233loPI   C1B 3725  11.206  17.745   8.061 -0.0927 -0.0648  0.1655
  233loPI   C2B 3726  10.954  17.806   7.772  0.2996  0.0102 -0.0521
  233loPI   C3B 3727  10.721  18.098   7.545 -0.0409  0.2165  0.1266
  233loPI   C4B 3728  10.421  18.542   7.472  0.0604  0.3526 -0.0980
  234loPI    C1 3729  15.848   7.906  10.612 -0.1825  0.0947  0.1495
  234loPI    C2 3730  16.045   7.870  10.958 -0.1992 -0.1327  0.1369
  234loPI    C3 3731  15.725   8.109  10.934 -0.1573 -0.0633  0.2597
  234loPI   PO4 3732  16.084   7.944  10.366 -0.0756  0.0449  0.3111
  234loPI   GL1 3733  16.198   7.814   9.864 -0.0258 -0.1248 -0.2560
  234loPI   GL2 3734  15.990   8.101   9.903 -0.0202  0.3078  0.0114
  234loPI   C1A 3735  16.279   7.821   9.456 -0.1518 -0.0637  0.2217
  234loPI   C2A 3736  16.360   7.953   9.039  0.2862  0.0096 -0.0108
  234loPI   C3A 3737  16.641   8.109   8.706 -0.0621 -0.0537 -0.1645
  234loPI   C4A 3738  16.529   8.432   8.428 -0.0350  0.0029  0.0755
  234loPI   C5A 3739  16.478   8.633   7.951  0.2302 -0.1596 -0.2174
  234loPI   C6A 3740  16.599   8.420   7.556 -0.0783 -0.0986  0.0050
  234loPI   C1B 3741  16.111   8.273   9.395  0.2937  0.0866  0.0329
  234loPI   C2B 3742  16.030   8.328   8.900  0.0555 -0.1822  0.0601
  234loPI   C3B 3743  16.070   8.303   8.514  0.0805 -0.0110  0.1489
  234loPI   C4B 3744  16.126   8.347   8.090 -0.1555  0.0928 -0.1007
  235loPI    C1 3745   1.921  11.788  10.392  0.1391  0.1779 -0.2655
  235loPI    C2 3746   2.112  12.078  10.195  0.2128  0.2825 -0.0433
  235loPI    C3 3747   1.978  12.144  10.566 -0.0490  0.1334 -0.1093
  235loPI   PO4 3748   1.937  11.586  10.241 -0.1132 -0.0294  0.1399
  235loPI   GL1 3749   2.077  11.342   9.851  0.0092  0.2341 -0.2599
  235loPI   GL2 3750   2.340  11.467   9.649 -0.1121  0.1473 -0.0643
  235loPI   C1A 3751   1.727  11.338   9.484 -0.3730 -0.3247  0.1243
  235loPI   C2A 3752   1.514  11.532   9.145 -0.2699 -0.0270  0.0062
  235loPI   C3A 3753   1.539  11.515   8.675  0.0355  0.0057 -0.0191
  235loPI   C4A 3754   1.750  11.403   8.356 -0.1733 -0.1319  0.0330
  235loPI   C5A 3755   2.048  11.428   8.000  0.0212  0.0167  0.1688
  235loPI   C6A 3756   2.057  11.834   7.780  0.0335  0.0862 -0.1051
  235loPI   C1B 3757   2.476  11.543   9.250  0.1810 -0.0351 -0.0054
  235loPI   C2B 3758   2.508  11.664   8.805 -0.0560 -0.1760  0.0916
  235loPI   C3B 3759   2.462  11.770   8.359 -0.1705  0.1293  0.0131
  235loPI   C4B 3760   2.611  11.778   7.872  0.2072  0.1604 -0.0724
  236loPI    C1 3761   7.500   4.191   9.983 -0.1939 -0.3451 -0.1314
  236loPI    C2 3762   7.856   4.012  10.015 -0.0579 -0.0440  0.0894
  236loPI    C3 3763   7.587   3.977  10.310  0.0857  0.3552  0.2750
  236loPI   PO4 3764   7.612   4.474   9.813 -0.0201 -0.1397  0.3382
  236loPI   GL1 3765   7.643   4.631   9.369  0.2239  0.0407 -0.1369
  236loPI   GL2 3766   7.863   4.890   9.495 -0.0352 -0.0470 -0.2412
  236loPI   C1A 3767   7.908   4.501   9.050 -0.1364 -0.0110  0.0154
  236loPI   C2A 3768   8.142   4.663   8.692  0.0668 -0.3303 -0.3213
  236loPI   C3A 3769   8.263   4.752   8.432  0.0153 -0.2062  0.2918
  236loPI   C4A 3770   8.285   4.653   8.073 -0.4560 -0.1815 -0.0139
  236loPI   C5A 3771   8.308   4.753   7.635  0.1160  0.2611 -0.2650
  236loPI   C6A 3772   8.133   4.808   7.257  0.2191 -0.5299  0.0603
  236loPI   C1B 3773   8.062   4.971   9.104 -0.0997  0.2171  0.3942
  236loPI   C2B 3774   7.886   5.046   8.714  0.0109 -0.3445 -0.3927
  236loPI   C3B 3775   7.896   5.053   8.358  0.1394  0.1254 -0.0391
  236loPI   C4B 3776   7.887   4.990   7.920  0.0667 -0.1389 -0.3500
  237loPI    C1 3777  12.991  10.375  10.130  0.1051  0.2399  0.0826
  237loPI    C2 3778  13.074   9.998  10.234  0.2104  0.1242 -0.3981
  237loPI    C3 3779  13.099  10.290  10.506 -0.0538 -0.2358  0.0276
  237loPI   PO4 3780  13.162  10.410   9.805 -0.1925 -0.0365  0.2016
  237loPI   GL1 3781  13.364  10.489   9.349  0.1233 -0.0278 -0.3488
  237loPI   GL2 3782  13.670  10.390   9.211 -0.1563 -0.1477  0.1509
  237loPI   C1A 3783  13.235  10.550   9.016 -0.0514  0.1492 -0.1529
  237loPI   C2A 3784  13.118  10.478   8.693 -0.0072 -0.0012 -0.0816
  237loPI   C3A 3785  12.927  10.485   8.316 -0.2272 -0.3711 -0.0280
  237loPI   C4A 3786  12.821  10.442   7.911 -0.0268 -0.1473 -0.3796
  237loPI   C5A 3787  12.860  10.751   7.572  0.1042 -0.0169 -0.1590
  237loPI   C6A 3788  12.825  10.930   7.213 -0.2179 -0.2625  0.5109
  237loPI   C1B 3789  13.667  10.364   8.749 -0.2072  0.3860  0.5144
  237loPI   C2B 3790  13.740  10.461   8.306 -0.0102  0.1257 -0.3116
  237loPI   C3B 3791  13.751  10.427   7.875  0.0713 -0.4190  0.2572
  237loPI   C4B 3792  13.756  10.518   7.360  0.0239  0.0695 -0.0897
  238loPI    C1 3793  16.439  18.515  10.526 -0.0673  0.0560  0.0597
  238loPI    C2 3794  16.459  18.129  10.628 -0.0969  0.0441  0.0203
  238loPI    C3 3795  16.619  18.407  10.867  0.0591 -0.0052 -0.0256
  238loPI   PO4 3796  16.374  18.575  10.212 -0.0134 -0.0570 -0.1910
  238loPI   GL1 3797  15.983  18.828  10.063  0.1564 -0.0200  0.1293
  238loPI   GL2 3798  15.956  19.164   9.994  0.1042 -0.1303  0.0993
  238loPI   C1A 3799  15.677  18.728   9.678 -0.1577 -0.2316 -0.1415
  238loPI   C2A 3800  15.398  18.843   9.422 -0.2956  0.4563  0.0334
  238loPI   C3A 3801  15.452  18.962   9.043  0.3545  0.0775  0.0475
  238loPI   C4A 3802  15.387  18.995   8.554  0.0124  0.1882 -0.0397
  238loPI   C5A 3803  15.446  19.004   8.146 -0.1449  0.0460 -0.0230
  238loPI   C6A 3804  15.664  18.715   7.823 -0.0052 -0.5056  0.0517
  238loPI   C1B 3805  16.006  19.162   9.501 -0.1473  0.2164  0.0254
  238loPI   C2B 3806  16.014  19.357   9.109 -0.1567 -0.0420  0.1552
  238loPI   C3B 3807  15.882  19.171   8.839 -0.0492 -0.0366 -0.0551
  238loPI   C4B 3808  15.707  19.374   8.472 -0.1695  0.1400  0.1965
  239loPI    C1 3809   6.421   3.008   9.459 -0.0474  0.1155 -0.0713
  239loPI    C2 3810   6.203   2.838   9.748  0.2697  0.1319  0.1827
  239loPI    C3 3811   6.262   3.233   9.748  0.0186  0.1720 -0.0788
  239loPI   PO4 3812   6.304   2.907   9.241 -0.0864  0.1135  0.1387
  239loPI   GL1 3813   6.157   2.681   8.957  0.1233  0.2785  0.0577
  239loPI   GL2 3814   6.334   2.651   8.756 -0.2102 -0.2042  0.0725
  239loPI   C1A 3815   5.819   2.630   8.758  0.0886  0.0921 -0.0709
  239loPI   C2A 3816   5.565   2.949   8.483 -0.1355  0.0143 -0.0212
  239loPI   C3A 3817   5.635   3.053   8.085 -0.3442  0.4449 -0.0963
  239loPI   C4A 3818   5.737   3.251   7.733  0.0698  0.0386  0.3471
  239loPI   C5A 3819   5.870   3.468   7.396 -0.1523  0.0363 -0.3535
  239loPI   C6A 3820   5.897   3.842   7.221  0.1225  0.0836  0.0535
  239loPI   C1B 3821   6.426   2.688   8.315  0.0228  0.0643  0.1129
  239loPI   C2B 3822   6.333   2.392   7.986 -0.0370  0.1064  0.0143
  239loPI   C3B 3823   6.414   2.230   7.561  0.2086 -0.0155  0.1045
  239loPI   C4B 3824   6.385   2.381   7.182  0.2325  0.0538 -0.0184
  240loPI    C1 3825  11.944   9.433   9.799 -0.0676 -0.0584  0.0595
  240loPI    C2 3826  11.894   9.765  10.018  0.0300 -0.2052  0.3091
  240loPI    C3 3827  11.587   9.615   9.809  0.0026  0.0770  0.1408
  240loPI   PO4 3828  12.131   9.501   9.637 -0.1153  0.0559  0.2020
  240loPI   GL1 3829  12.284   9.463   9.247 -0.0580  0.0131  0.1538
  240loPI   GL2 3830  12.155   9.556   9.102  0.3229  0.2180 -0.2399
  240loPI   C1A 3831  12.585   9.441   8.932 -0.0474  0.3464  0.0219
  240loPI   C2A 3832  12.801   9.530   8.589  0.0718 -0.0370  0.2496
  240loPI   C3A 3833  13.031   9.696   8.330  0.0264 -0.5544 -0.0878
  240loPI   C4A 3834  12.864   9.851   7.922 -0.1641 -0.1249  0.1053
  240loPI   C5A 3835  12.747  10.120   7.551  0.0123 -0.1167 -0.0866
  240loPI   C6A 3836  12.578  10.315   7.253  0.1863 -0.1857  0.4483
  240loPI   C1B 3837  11.936   9.310   8.779  0.1749 -0.0105 -0.0426
  240loPI   C2B 3838  11.656   9.564   8.459  0.0443 -0.3413  0.0326
  240loPI   C3B 3839  11.773   9.706   8.030  0.1567 -0.4564  0.1818
  240loPI   C4B 3840  11.864   9.772   7.654 -0.1425  0.1724  0.2964
  241loPI    C1 3841   2.877  15.583   9.771 -0.4046 -0.1228 -0.1821
  241loPI    C2 3842   3.027  15.228   9.877  0.1724  0.2091  0.1626
  241loPI    C3 3843   2.735  15.393  10.094 -0.1635 -0.0880 -0.0530
  241loPI   PO4 3844   2.903  15.623   9.442 -0.0138  0.3255  0.0394
  241loPI   GL1 3845   3.039  15.712   8.986  0.4341 -0.1988  0.2265
  241loPI   GL2 3846   3.069  15.386   8.765 -0.1594 -0.2532  0.0182
  241loPI   C1A 3847   2.795  15.816   8.581 -0.1720  0.1703  0.3697
  241loPI   C2A 3848   2.793  15.922   8.218 -0.1063 -0.0991 -0.1266
  241loPI   C3A 3849   2.722  16.256   8.013  0.3086  0.2741  0.2705
  241loPI   C4A 3850   2.501  16.413   7.675 -0.0928 -0.2439 -0.0794
  241loPI   C5A 3851   2.546  16.373   7.225  0.2366  0.1744 -0.0178
  241loPI   C6A 3852   2.197  16.244   6.955  0.2306  0.0170  0.1254
  241loPI   C1B 3853   2.952  15.433   8.331 -0.0411 -0.4770  0.0285
  241loPI   C2B 3854   2.834  15.434   7.865 -0.0288  0.0306  0.0421
  241loPI   C3B 3855   3.225  15.548   7.498 -0.0692  0.0788 -0.3120
  241loPI   C4B 3856   3.310  15.810   7.185  0.1039 -0.0231  0.0792
  242loPI    C1 3857  10.226  15.974   9.087  0.0191 -0.0417  0.3256
  242loPI    C2 3858  10.127  16.098   9.454 -0.0341  0.0915  0.2669
  242loPI    C3 3859  10.354  16.329   9.220 -0.0291  0.0221  0.2032
  242loPI   PO4 3860   9.955  15.822   8.894  0.0186 -0.1965 -0.0625
  242loPI   GL1 3861   9.848  15.687   8.499  0.2165  0.0512  0.1307
  242loPI   GL2 3862  10.223  15.744   8.412  0.0926 -0.2581 -0.1846
  242loPI   C1A 3863   9.953  15.658   7.958 -0.2528  0.2567  0.1335
  242loPI   C2A 3864  10.118  15.494   7.566  0.0937 -0.1648  0.0843
  242loPI   C3A 3865  10.108  15.390   7.139  0.1664  0.3250  0.2657
  242loPI   C4A 3866   9.994  15.034   6.985 -0.2835 -0.0908  0.0373
  242loPI   C5A 3867  10.059  14.881   6.597  0.1269  0.0142  0.1682
  242loPI   C6A 3868  10.231  14.798   6.204  0.2047  0.2680 -0.1382
  242loPI   C1B 3869  10.480  15.796   8.100  0.2957  0.0185 -0.0171
  242loPI   C2B 3870  10.803  15.680   7.778  0.0659  0.2726 -0.1341
  242loPI   C3B 3871  10.634  15.534   7.399  0.1182 -0.0603  0.0109
  242loPI   C4B 3872  10.602  15.669   6.920 -0.1054 -0.1487  0.1578
  243loPI    C1 3873   5.199  15.228   9.736  0.1850  0.3280  0.0414
  243loPI    C2 3874   5.076  15.357  10.094  0.3239  0.0796  0.1815
  243loPI    C3 3875   5.386  15.105  10.068  0.0076 -0.2945 -0.0766
  243loPI   PO4 3876   5.050  15.165   9.632 -0.0122 -0.3653  0.1276
  243loPI   GL1 3877   4.765  14.965   9.347  0.1893  0.0476  0.1463
  243loPI   GL2 3878   4.822  14.597   9.400  0.0157 -0.1191  0.0201
  243loPI   C1A 3879   4.885  14.813   8.925 -0.2379 -0.0508 -0.1869
  243loPI   C2A 3880   4.817  14.803   8.571 -0.0090 -0.4798 -0.0089
  243loPI   C3A 3881   4.496  14.703   8.303  0.1419 -0.3958 -0.3224
  243loPI   C4A 3882   4.278  14.872   7.959  0.2063 -0.1709 -0.1442
  243loPI   C5A 3883   4.002  15.001   7.600 -0.0817  0.4016  0.1218
  243loPI   C6A 3884   3.905  14.737   7.270 -0.0269  0.0414  0.0514
  243loPI   C1B 3885   4.754  14.234   9.057 -0.2173 -0.3221  0.0312
  243loPI   C2B 3886   4.441  14.019   8.966 -0.0558  0.0885  0.1581
  243loPI   C3B 3887   4.177  13.731   8.616  0.3300 -0.1460  0.0012
  243loPI   C4B 3888   4.176  13.477   8.226  0.1653  0.3579  0.1673
  244loPI    C1 3889  11.118   4.915   9.716 -0.2917 -0.0388  0.0005
  244loPI    C2 3890  11.267   5.217   9.932 -0.1783 -0.0365 -0.0801
  244loPI    C3 3891  11.134   4.887  10.115 -0.2493  0.0384  0.0044
  244loPI   PO4 3892  10.988   5.051   9.537 -0.2060  0.2680 -0.3291
  244loPI   GL1 3893  11.133   5.280   9.172  0.1728  0.1812  0.0604
  244loPI   GL2 3894  11.418   4.937   9.236 -0.2147  0.2226 -0.0579
  244loPI   C1A 3895  11.070   5.244   8.713  0.3699 -0.1816  0.0102
  244loPI   C2A 3896  11.077   5.001   8.204  0.1141  0.2112 -0.1761
  244loPI   C3A 3897  11.071   4.913   7.750  0.3303  0.1402  0.0130
  244loPI   C4A 3898  11.082   5.009   7.302 -0.0556 -0.0184 -0.1549
  244loPI   C5A 3899  11.040   4.927   6.871  0.2516 -0.2579 -0.0964
  244loPI   C6A 3900  11.080   4.494   6.677  0.3930 -0.0563  0.0583
  244loPI   C1B 3901  11.485   5.093   8.857 -0.0811 -0.0320 -0.1719
  244loPI   C2B 3902  11.526   5.128   8.422 -0.1336  0.0166  0.0882
  244loPI   C3B 3903  11.622   5.148   8.028  0.0187 -0.1491 -0.1255
  244loPI   C4B 3904  11.455   5.255   7.640  0.0456  0.0674  0.4562
  245loPI    C1 3905  15.209  11.162  10.323  0.0657  0.0745 -0.1165
  245loPI    C2 3906  15.206  11.278  10.706  0.3043 -0.3420  0.0181
  245loPI    C3 3907  15.434  11.471  10.441 -0.1994  0.2341 -0.0185
  245loPI   PO4 3908  15.238  10.877  10.256  0.0374  0.4397  0.1076
  245loPI   GL1 3909  15.389  10.753   9.787  0.2005 -0.2620 -0.0804
  245loPI   GL2 3910  15.623  10.501   9.774  0.2300 -0.0464  0.3963
  245loPI   C1A 3911  15.508  10.777   9.322  0.0347  0.1862  0.1205
  245loPI   C2A 3912  15.595  10.741   8.880 -0.2062  0.3729  0.1056
  245loPI   C3A 3913  15.502  10.587   8.460  0.0608  0.2468  0.1481
  245loPI   C4A 3914  15.553  10.387   8.001  0.0999  0.0797  0.2811
  245loPI   C5A 3915  15.255  10.247   7.771  0.1082 -0.0592 -0.1164
  245loPI   C6A 3916  15.002  10.158   7.572  0.0232 -0.3007  0.2407
  245loPI   C1B 3917  15.899  10.423   9.320  0.1180 -0.0228  0.0892
  245loPI   C2B 3918  16.171  10.271   9.039 -0.0489  0.0915 -0.3176
  245loPI   C3B 3919  16.388  10.342   8.641 -0.0873  0.2795  0.2231
  245loPI   C4B 3920  16.446  10.540   8.214 -0.0456  0.1214  0.2217
  246loPI    C1 3921  13.578  12.958   9.986  0.1640 -0.2434 -0.0771
  246loPI    C2 3922  13.548  12.794  10.349  0.0712  0.2180  0.1302
  246loPI    C3 3923  13.715  13.155  10.306  0.2377  0.0939 -0.3107
  246loPI   PO4 3924  13.606  12.715   9.805  0.3039  0.0403  0.0646
  246loPI   GL1 3925  13.581  12.676   9.372  0.0986  0.3791 -0.1199
  246loPI   GL2 3926  13.869  12.406   9.295  0.1531 -0.0827  0.1039
  246loPI   C1A 3927  13.587  12.720   8.968 -0.2760 -0.3066 -0.1287
  246loPI   C2A 3928  13.904  12.617   8.584  0.0542 -0.0755 -0.0647
  246loPI   C3A 3929  13.995  12.427   8.229 -0.0890 -0.1081 -0.0991
  246loPI   C4A 3930  14.183  12.176   7.927  0.3764  0.0252 -0.2209
  246loPI   C5A 3931  14.254  11.751   7.827 -0.1417  0.0952 -0.0083
  246loPI   C6A 3932  14.375  11.458   7.467 -0.2922  0.0422 -0.0273
  246loPI   C1B 3933  13.429  12.183   9.233  0.5150 -0.0670 -0.3996
  246loPI   C2B 3934  13.116  12.007   8.939 -0.4752  0.1622  0.0025
  246loPI   C3B 3935  13.051  11.896   8.543 -0.1123 -0.1624 -0.2615
  246loPI   C4B 3936  13.104  12.044   8.086  0.1479 -0.2805 -0.0421
  247loPI    C1 3937   9.205  19.272   9.537 -0.0414 -0.4161  0.1750
  247loPI    C2 3938   9.528  19.396   9.737 -0.1742 -0.0713  0.1819
  247loPI    C3 3939   9.183  19.338   9.931 -0.2898  0.2134  0.0684
  247loPI   PO4 3940   9.231  19.324   9.333 -0.1849  0.1032  0.1786
  247loPI   GL1 3941   9.252  19.171   8.938  0.2438 -0.1592  0.1784
  247loPI   GL2 3942   9.527  19.231   8.724 -0.2288 -0.0672 -0.0445
  247loPI   C1A 3943   9.313  18.815   8.652 -0.0934  0.0647  0.0135
  247loPI   C2A 3944   9.231  18.746   8.248  0.3217 -0.1898 -0.4125
  247loPI   C3A 3945   9.141  18.650   7.775 -0.0035 -0.2475  0.0836
  247loPI   C4A 3946   8.983  18.721   7.418 -0.0502 -0.3438  0.0781
  247loPI   C5A 3947   9.024  18.739   6.987 -0.1192 -0.2789  0.0610
  247loPI   C6A 3948   8.759  19.152   6.912 -0.1428  0.0084  0.3056
  247loPI   C1B 3949   9.553  19.119   8.299 -0.0306 -0.0764 -0.1353
  247loPI   C2B 3950   9.653  18.786   8.006  0.2662 -0.0855 -0.3581
  247loPI   C3B 3951   9.620  18.786   7.568 -0.1742 -0.0516  0.1275
  247loPI   C4B 3952   9.501  18.995   7.289 -0.0641 -0.0590  0.3683
  248loPI    C1 3953  12.742  18.606   9.385 -0.0393 -0.3713 -0.1679
  248loPI    C2 3954  12.697  18.584   9.782  0.0505 -0.0222 -0.1344
  248loPI    C3 3955  13.055  18.517   9.617  0.0281 -0.1022 -0.1512
  248loPI   PO4 3956  12.504  18.515   9.272 -0.1604 -0.0048 -0.1376
  248loPI   GL1 3957  12.390  18.380   8.856  0.1596  0.1278 -0.2281
  248loPI   GL2 3958  12.539  18.226   8.642 -0.0943 -0.0940 -0.1139
  248loPI   C1A 3959  12.724  18.692   8.457 -0.0319  0.3744  0.1836
  248loPI   C2A 3960  12.716  18.764   8.048 -0.3477  0.0515  0.0320
  248loPI   C3A 3961  12.694  18.486   7.666 -0.1247 -0.2802  0.2812
  248loPI   C4A 3962  12.882  18.434   7.221  0.1715  0.1192 -0.3777
  248loPI   C5A 3963  13.119  18.595   6.834 -0.1622  0.2765  0.1115
  248loPI   C6A 3964  13.251  18.747   6.471  0.0167  0.0996 -0.0105
  248loPI   C1B 3965  12.571  18.181   8.167 -0.0502 -0.2610 -0.0321
  248loPI   C2B 3966  12.474  17.988   7.710 -0.0313  0.0398  0.3627
  248loPI   C3B 3967  12.782  17.925   7.229  0.2603 -0.0269  0.2080
  248loPI   C4B 3968  13.210  17.989   6.921 -0.3740  0.1029 -0.0086
  249loPI    C1 3969  12.264   9.994   9.596  0.1229 -0.1692  0.1207
  249loPI    C2 3970  12.556  10.242   9.710  0.1811 -0.3332  0.3350
  249loPI    C3 3971  12.204  10.248   9.899 -0.0753  0.0927 -0.1326
  249loPI   PO4 3972  12.347   9.931   9.370  0.1781  0.2517 -0.0548
  249loPI   GL1 3973  12.686   9.866   9.253 -0.1150  0.0733 -0.2034
  249loPI   GL2 3974  12.776  10.126   9.066  0.0471 -0.2812  0.0473
  249loPI   C1A 3975  12.999   9.664   8.974 -0.1815 -0.2313 -0.3128
  249loPI   C2A 3976  13.263  10.010   8.851  0.0466 -0.2323  0.0015
  249loPI   C3A 3977  13.372  10.147   8.441  0.1275 -0.1367  0.0245
  249loPI   C4A 3978  13.267  10.204   7.960  0.0318  0.1221 -0.0004
  249loPI   C5A 3979  13.152  10.341   7.582 -0.2002 -0.0164 -0.2079
  249loPI   C6A 3980  13.198  10.499   7.226  0.1398 -0.5821  0.0961
  249loPI   C1B 3981  12.842  10.098   8.627 -0.0555  0.1799  0.1815
  249loPI   C2B 3982  12.565  10.042   8.257  0.0854 -0.0515  0.2622
  249loPI   C3B 3983  12.335   9.767   7.893 -0.3775 -0.1188 -0.0257
  249loPI   C4B 3984  12.246   9.417   7.752  0.2033 -0.2595  0.0459
  250loPI    C1 3985   3.523   7.340  10.471 -0.0523  0.0508 -0.0498
  250loPI    C2 3986   3.892   7.480  10.533  0.0325 -0.0911 -0.2222
  250loPI    C3 3987   3.823   7.087  10.546 -0.1658 -0.0502  0.0682
  250loPI   PO4 3988   3.401   7.348  10.151  0.2791 -0.1190 -0.0529
  250loPI   GL1 3989   3.159   7.563   9.703  0.2796  0.1452 -0.0440
  250loPI   GL2 3990   3.453   7.398   9.604 -0.2372  0.4059  0.1538
  250loPI   C1A 3991   3.063   7.586   9.274  0.1607 -0.3079 -0.1101
  250loPI   C2A 3992   3.223   7.716   8.778 -0.2355 -0.0120  0.1007
  250loPI   C3A 3993   3.003   7.853   8.466 -0.0793  0.1202 -0.2387
  250loPI   C4A 3994   2.802   7.979   8.177 -0.1611 -0.1796 -0.1447
  250loPI   C5A 3995   2.450   8.331   8.251 -0.0562 -0.1604  0.0477
  250loPI   C6A 3996   2.067   8.354   8.028  0.1235  0.1972 -0.0232
  250loPI   C1B 3997   3.469   7.386   9.096  0.0190 -0.1423  0.0635
  250loPI   C2B 3998   3.551   7.317   8.643  0.0672  0.0270  0.2640
  250loPI   C3B 3999   3.628   7.223   8.192 -0.0245 -0.2265 -0.1789
  250loPI   C4B 4000   3.500   7.384   7.808  0.0450  0.0447  0.0797
  251loPI    C1 4001   6.816  10.166   9.796 -0.1994  0.0049  0.1603
  251loPI    C2 4002   7.035   9.889   9.983  0.0863  0.1142 -0.0067
  251loPI    C3 4003   6.730  10.065  10.173  0.1124 -0.0727  0.2127
  251loPI   PO4 4004   6.879  10.097   9.511 -0.1778  0.1842 -0.0834
  251loPI   GL1 4005   6.585   9.961   9.257  0.0263 -0.1907 -0.0980
  251loPI   GL2 4006   6.446  10.270   9.404 -0.2788  0.1025 -0.1019
  251loPI   C1A 4007   6.362   9.937   8.893 -0.0889  0.4562 -0.3534
  251loPI   C2A 4008   6.224   9.893   8.477  0.0330 -0.3102  0.0258
  251loPI   C3A 4009   6.283   9.894   8.041 -0.3173  0.0002 -0.0583
  251loPI   C4A 4010   6.461   9.984   7.654 -0.1554 -0.0157  0.1344
  251loPI   C5A 4011   6.449  10.384   7.439 -0.0053  0.0181  0.1607
  251loPI   C6A 4012   6.307  10.623   7.131  0.1392  0.1503  0.2394
  251loPI   C1B 4013   6.427  10.419   9.092  0.2846  0.1251 -0.3019
  251loPI   C2B 4014   6.355  10.400   8.703 -0.1473  0.0714 -0.1606
  251loPI   C3B 4015   6.288  10.353   8.304 -0.1966  0.1714  0.0396
  251loPI   C4B 4016   6.225  10.467   7.897 -0.4104  0.2020 -0.0934
  252loPI    C1 4017  17.738   5.002  10.006  0.0885 -0.1095 -0.2083
  252loPI    C2 4018  17.877   4.780  10.309  0.1011 -0.0438 -0.1659
  252loPI    C3 4019  17.847   5.177  10.349 -0.3489 -0.0811 -0.0786
  252loPI   PO4 4020  17.867   4.842   9.794 -0.0690  0.1281  0.1973
  252loPI   GL1 4021  17.894   4.537   9.470 -0.0225  0.2698  0.0589
  252loPI   GL2 4022  18.143   4.458   9.219  0.2983 -0.2926  0.2052
  252loPI   C1A 4023  17.585   4.750   9.160  0.0843 -0.0829  0.4854
  252loPI   C2A 4024  17.656   4.764   8.725  0.6350 -0.2904 -0.1377
  252loPI   C3A 4025  17.572   4.674   8.300 -0.1835  0.0744  0.0794
  252loPI   C4A 4026  17.393   4.484   8.033 -0.4443  0.0303  0.0547
  252loPI   C5A 4027  17.102   4.525   7.756  0.0755  0.0563 -0.0326
  252loPI   C6A 4028  16.722   4.610   7.323  0.0167 -0.0839 -0.4187
  252loPI   C1B 4029  18.136   4.649   8.818 -0.1939 -0.1954  0.1442
  252loPI   C2B 4030  18.094   4.864   8.424 -0.1313 -0.4895  0.1278
  252loPI   C3B 4031  17.837   5.046   8.165 -0.1247  0.1291 -0.0426
  252loPI   C4B 4032  17.757   5.181   7.771  0.0176  0.0939 -0.1597
  253loPI    C1 4033  16.358   8.696  10.411 -0.1843 -0.2104  0.0702
  253loPI    C2 4034  16.703   8.641  10.606 -0.1051 -0.0433 -0.0204
  253loPI    C3 4035  16.361   8.683  10.810 -0.0452 -0.0233  0.0763
  253loPI   PO4 4036  16.242   8.512  10.246 -0.0905  0.5224  0.1965
  253loPI   GL1 4037  16.318   8.443   9.813 -0.2820  0.0672 -0.3427
  253loPI   GL2 4038  15.981   8.653   9.796  0.1794 -0.2509  0.0345
  253loPI   C1A 4039  16.460   8.623   9.451 -0.2350 -0.2134 -0.4641
  253loPI   C2A 4040  16.295   8.763   9.063 -0.1193  0.0811  0.3583
  253loPI   C3A 4041  16.185   8.779   8.682  0.2309 -0.0360 -0.2162
  253loPI   C4A 4042  16.027   8.758   8.309  0.0122 -0.2594  0.0650
  253loPI   C5A 4043  16.026   8.894   7.848  0.3457 -0.1200 -0.1645
  253loPI   C6A 4044  15.922   9.015   7.478  0.1707 -0.3969  0.1965
  253loPI   C1B 4045  16.063   8.935   9.454  0.0488 -0.0244  0.1902
  253loPI   C2B 4046  16.145   9.212   8.971 -0.1136  0.1156 -0.2354
  253loPI   C3B 4047  16.334   9.260   8.622  0.1053  0.0905  0.0781
  253loPI   C4B 4048  16.121   9.250   8.245  0.2980  0.1621  0.1507
  254loPI    C1 4049  18.327   8.337  10.773 -0.0954  0.3043  0.3340
  254loPI    C2 4050  18.103   8.091  10.995 -0.0252 -0.0604  0.0119
  254loPI    C3 4051  18.490   8.010  10.934 -0.0626 -0.0132 -0.3086
  254loPI   PO4 4052  18.221   8.356  10.510 -0.1437 -0.4417  0.3721
  254loPI   GL1 4053  18.248   8.063  10.096 -0.0539  0.1659 -0.5991
  254loPI   GL2 4054  17.935   8.152  10.077 -0.1393 -0.1024  0.0229
  254loPI   C1A 4055  18.147   8.000   9.651 -0.0585  0.1182 -0.1507
  254loPI   C2A 4056  18.176   7.843   9.332 -0.2685 -0.2694 -0.0022
  254loPI   C3A 4057  18.155   7.852   8.942 -0.0082 -0.1705  0.1009
  254loPI   C4A 4058  18.316   7.976   8.663 -0.0397 -0.1062 -0.3070
  254loPI   C5A 4059  18.254   8.104   8.264  0.0326 -0.3371  0.1664
  254loPI   C6A 4060  18.302   8.577   8.010  0.3032 -0.2238  0.0467
  254loPI   C1B 4061  17.648   8.088   9.753 -0.1803  0.0707  0.3236
  254loPI   C2B 4062  17.675   7.975   9.307 -0.1540 -0.0391 -0.1010
  254loPI   C3B 4063  17.719   8.198   8.950  0.0217 -0.1686 -0.1689
  254loPI   C4B 4064  17.835   8.134   8.515 -0.1872  0.1517 -0.1311
  255loPI    C1 4065  10.079   3.578   9.646 -0.0618 -0.4343 -0.3095
  255loPI    C2 4066  10.324   3.421   9.921  0.0107  0.0085 -0.1132
  255loPI    C3 4067   9.993   3.616  10.035  0.1016  0.2964 -0.3314
  255loPI   PO4 4068  10.166   3.459   9.467 -0.2739 -0.1999 -0.1914
  255loPI   GL1 4069  10.444   3.454   9.086 -0.2673 -0.3165  0.0490
  255loPI   GL2 4070  10.601   3.832   9.019  0.0133  0.0355 -0.0855
  255loPI   C1A 4071  10.370   3.300   8.691  0.0510 -0.1136 -0.1613
  255loPI   C2A 4072  10.370   3.482   8.311 -0.0049 -0.1276 -0.2775
  255loPI   C3A 4073  10.322   3.689   7.975  0.1555  0.2003  0.0370
  255loPI   C4A 4074  10.508   3.814   7.526 -0.1589  0.3610  0.1152
  255loPI   C5A 4075  10.583   3.727   7.107 -0.0775 -0.0870  0.0141
  255loPI   C6A 4076  10.860   3.679   6.771  0.0044  0.2285  0.2517
  255loPI   C1B 4077  10.411   4.175   8.814  0.0003 -0.2841  0.0006
  255loPI   C2B 4078  10.414   4.281   8.387 -0.0901  0.1739 -0.3192
  255loPI   C3B 4079  10.449   4.180   8.075  0.1898 -0.0648  0.3364
  255loPI   C4B 4080  10.619   4.322   7.746 -0.0778 -0.0403  0.0699
  256loPI    C1 4081  13.493  17.025   9.761  0.2328  0.0698 -0.2719
  256loPI    C2 4082  13.224  17.306   9.854 -0.0867 -0.2624 -0.1728
  256loPI    C3 4083  13.534  17.238  10.097 -0.1653 -0.1898 -0.0512
  256loPI   PO4 4084  13.328  16.933   9.442 -0.0652  0.3416 -0.0841
  256loPI   GL1 4085  13.147  17.158   8.997 -0.0936 -0.0694 -0.1277
  256loPI   GL2 4086  13.074  17.441   8.749 -0.0001 -0.2000 -0.0146
  256loPI   C1A 4087  13.405  17.058   8.703  0.0276 -0.0943  0.2035
  256loPI   C2A 4088  13.637  17.107   8.381  0.2613  0.2009 -0.0136
  256loPI   C3A 4089  13.760  17.118   7.995  0.0316 -0.1489  0.0320
  256loPI   C4A 4090  13.730  17.094   7.676  0.0126 -0.1037  0.6209
  256loPI   C5A 4091  13.542  16.908   7.373 -0.1418 -0.0882 -0.4345
  256loPI   C6A 4092  13.336  16.966   6.987 -0.2745 -0.1901  0.2254
  256loPI   C1B 4093  13.122  17.376   8.381 -0.2997  0.0356  0.3848
  256loPI   C2B 4094  13.075  17.311   7.860  0.1976  0.0108 -0.0542
  256loPI   C3B 4095  12.913  17.203   7.405 -0.2192  0.0513  0.2812
  256loPI   C4B 4096  12.740  17.426   7.076 -0.2270 -0.2883  0.0281
  257loPI    C1 4097   8.822  10.268   9.414  0.1260 -0.2242  0.2974
  257loPI    C2 4098   8.807  10.649   9.533  0.1367 -0.0686 -0.1768
  257loPI    C3 4099   8.777  10.354   9.802 -0.0040  0.2623  0.1809
  257loPI   PO4 4100   8.621  10.229   9.154  0.0448 -0.1892  0.0217
  257loPI   GL1 4101   8.260  10.174   8.841  0.0083  0.0072 -0.0228
  257loPI   GL2 4102   8.537  10.211   8.635  0.2753  0.0878  0.0480
  257loPI   C1A 4103   8.146  10.107   8.432 -0.1546  0.3159  0.0907
  257loPI   C2A 4104   8.193  10.185   7.969 -0.2177 -0.0879  0.1881
  257loPI   C3A 4105   8.540  10.174   7.698  0.0023 -0.1707 -0.1200
  257loPI   C4A 4106   8.290   9.935   7.500  0.0824 -0.1003  0.1021
  257loPI   C5A 4107   8.301   9.569   7.324 -0.5056 -0.0162  0.1172
  257loPI   C6A 4108   8.253   9.419   6.880  0.3384  0.2815  0.1316
  257loPI   C1B 4109   8.753  10.149   8.260 -0.3663  0.0043 -0.1106
  257loPI   C2B 4110   8.987  10.288   7.878  0.2758  0.1015 -0.2614
  257loPI   C3B 4111   9.238  10.419   7.561  0.1631  0.3312 -0.0134
  257loPI   C4B 4112   9.260  10.101   7.225 -0.0131 -0.2924 -0.4465
  258loPI    C1 4113  17.876   3.249  10.065  0.1599 -0.0078  0.0406
  258loPI    C2 4114  17.849   3.049  10.411  0.1646 -0.0658  0.0076
  258loPI    C3 4115  18.191   3.230  10.310  0.1652 -0.0547  0.0302
  258loPI   PO4 4116  17.713   3.173   9.941 -0.0901  0.0921  0.3032
  258loPI   GL1 4117  17.491   3.057   9.607  0.1986 -0.1091  0.1465
  258loPI   GL2 4118  17.572   3.390   9.463 -0.0296  0.0861  0.0815
  258loPI   C1A 4119  17.284   3.039   9.223  0.1389 -0.3698  0.2293
  258loPI   C2A 4120  17.274   3.016   8.798  0.2510 -0.1149  0.5435
  258loPI   C3A 4121  17.272   2.829   8.348 -0.2089  0.2038  0.1720
  258loPI   C4A 4122  17.250   2.968   7.989 -0.0176 -0.4029 -0.2014
  258loPI   C5A 4123  17.353   3.266   7.609  0.0614 -0.1318 -0.1347
  258loPI   C6A 4124  17.207   3.605   7.529 -0.3413 -0.2449 -0.0197
  258loPI   C1B 4125  17.735   3.335   9.010  0.3085  0.1754 -0.0881
  258loPI   C2B 4126  17.582   3.295   8.555  0.2288 -0.0302 -0.0439
  258loPI   C3B 4127  17.768   3.268   8.156 -0.2762 -0.2391  0.2003
  258loPI   C4B 4128  17.754   3.571   7.811  0.0651  0.1954  0.2647
  259loPI    C1 4129   9.073  11.394   9.302  0.0989  0.1573 -0.0022
  259loPI    C2 4130   8.727  11.592   9.340 -0.0613 -0.1085 -0.0458
  259loPI    C3 4131   8.845  11.338   9.626  0.0322 -0.1199 -0.0940
  259loPI   PO4 4132   9.098  11.313   9.042 -0.1036  0.1045 -0.4117
  259loPI   GL1 4133   9.353  11.165   8.716 -0.0500 -0.2983  0.0000
  259loPI   GL2 4134   9.549  11.455   8.717 -0.1564 -0.2281 -0.1595
  259loPI   C1A 4135   9.194  11.083   8.338  0.1141  0.3345  0.3753
  259loPI   C2A 4136   8.891  11.164   7.980 -0.0784 -0.2212  0.0656
  259loPI   C3A 4137   8.826  11.278   7.541  0.0599  0.1230  0.0670
  259loPI   C4A 4138   9.100  11.277   7.244  0.2342 -0.1526 -0.1903
  259loPI   C5A 4139   9.439  11.161   7.011 -0.0052 -0.0872  0.1177
  259loPI   C6A 4140   9.747  11.418   6.891 -0.1324 -0.0280  0.1577
  259loPI   C1B 4141   9.858  11.543   8.303 -0.2143 -0.0343  0.0277
  259loPI   C2B 4142   9.889  11.648   7.862  0.1241 -0.2818  0.1131
  259loPI   C3B 4143   9.668  11.753   7.564 -0.1030  0.2077  0.3802
  259loPI   C4B 4144   9.418  11.717   7.201  0.3641  0.0763  0.0745
  260loPI    C1 4145   8.207   4.703  10.027 -0.0607  0.1191  0.1168
  260loPI    C2 4146   7.953   4.482  10.243  0.0933 -0.0961  0.0801
  260loPI    C3 4147   8.164   4.773  10.419  0.0081 -0.0827  0.1612
  260loPI   PO4 4148   8.154   4.603   9.734 -0.4056  0.1363  0.1506
  260loPI   GL1 4149   8.281   4.532   9.375  0.1049 -0.3244  0.1553
  260loPI   GL2 4150   8.402   4.176   9.326  0.2702 -0.0146  0.1842
  260loPI   C1A 4151   8.506   4.597   8.979 -0.2168 -0.0638 -0.0575
  260loPI   C2A 4152   8.612   4.378   8.575 -0.1785 -0.2029  0.2395
  260loPI   C3A 4153   8.682   4.319   8.256 -0.3046 -0.0867 -0.1251
  260loPI   C4A 4154   8.661   4.327   7.870  0.0344 -0.1098  0.0573
  260loPI   C5A 4155   8.699   4.474   7.467 -0.0221 -0.2929  0.1553
  260loPI   C6A 4156   8.654   4.345   7.047 -0.3147 -0.0740  0.0184
  260loPI   C1B 4157   8.196   4.156   8.907  0.0065 -0.1370 -0.1734
  260loPI   C2B 4158   8.151   4.214   8.497  0.1260  0.1436  0.0969
  260loPI   C3B 4159   8.126   4.125   8.059  0.1328 -0.3084  0.4644
  260loPI   C4B 4160   8.293   4.103   7.615 -0.0308 -0.1769 -0.0384
  261loPI    C1 4161  16.087  14.991  10.009 -0.2494  0.2249  0.1335
  261loPI    C2 4162  16.262  14.684  10.196 -0.0875  0.1240 -0.1766
  261loPI    C3 4163  16.070  14.964  10.408 -0.0380 -0.0660  0.1258
  261loPI   PO4 4164  16.165  14.939   9.783 -0.0476 -0.2645  0.0968
  261loPI   GL1 4165  16.386  14.905   9.422 -0.2741  0.2325 -0.0599
  261loPI   GL2 4166  16.714  14.825   9.383  0.0484  0.3013  0.1036
  261loPI   C1A 4167  16.044  14.944   9.028 -0.0921  0.1202 -0.0087
  261loPI   C2A 4168  16.028  15.033   8.487 -0.0272 -0.2048 -0.0184
  261loPI   C3A 4169  16.034  14.973   7.930 -0.0069  0.2139 -0.0244
  261loPI   C4A 4170  15.627  15.081   7.704  0.1328  0.1266  0.2531
  261loPI   C5A 4171  15.363  15.364   7.548 -0.0439  0.2592  0.3203
  261loPI   C6A 4172  15.276  15.796   7.669  0.2253 -0.0034 -0.0504
  261loPI   C1B 4173  16.583  14.752   8.983 -0.1321  0.1000  0.3329
  261loPI   C2B 4174  16.467  14.675   8.586  0.0679  0.0327  0.0382
  261loPI   C3B 4175  16.495  14.801   8.195 -0.1652  0.1767 -0.3404
  261loPI   C4B 4176  16.570  15.029   7.756  0.1035 -0.0912 -0.3170
  262loPI    C1 4177   3.000  17.316   9.905 -0.1545 -0.0502  0.0663
  262loPI    C2 4178   3.041  17.686  10.051 -0.0655 -0.0447  0.0282
  262loPI    C3 4179   3.263  17.387  10.198 -0.3066 -0.1311  0.2243
  262loPI   PO4 4180   2.766  17.303   9.676 -0.0315  0.1622 -0.0222
  262loPI   GL1 4181   2.815  17.365   9.272  0.0851  0.5829 -0.1007
  262loPI   GL2 4182   2.899  17.706   9.103 -0.0707  0.1022  0.0181
  262loPI   C1A 4183   2.840  17.290   8.825 -0.3277 -0.1185  0.3195
  262loPI   C2A 4184   2.671  17.032   8.443 -0.0355  0.1385  0.3079
  262loPI   C3A 4185   2.518  16.869   8.026 -0.2944  0.3071 -0.1312
  262loPI   C4A 4186   2.728  17.002   7.670 -0.0131  0.1031 -0.0611
  262loPI   C5A 4187   3.047  17.150   7.330 -0.0181 -0.2394  0.2082
  262loPI   C6A 4188   3.457  16.972   7.107  0.0768 -0.1707 -0.0307
  262loPI   C1B 4189   2.807  17.816   8.765  0.0485 -0.0031  0.2470
  262loPI   C2B 4190   2.743  17.594   8.468  0.1468 -0.1895  0.0288
  262loPI   C3B 4191   2.765  17.429   8.081  0.0744  0.2470  0.2925
  262loPI   C4B 4192   2.714  17.515   7.645 -0.4081 -0.4553  0.0307
  263loPI    C1 4193   4.504  15.747   9.299 -0.2097  0.0311  0.2255
  263loPI    C2 4194   4.334  16.096   9.392 -0.0633  0.1835 -0.0649
  263loPI    C3 4195   4.305  15.787   9.644 -0.1463  0.4194  0.2215
  263loPI   PO4 4196   4.424  15.561   9.037 -0.0677 -0.1019 -0.3181
  263loPI   GL1 4197   4.497  15.556   8.648 -0.0328 -0.0139  0.2054
  263loPI   GL2 4198   4.520  15.192   8.653  0.2139 -0.0936  0.0598
  263loPI   C1A 4199   4.624  15.676   8.351 -0.1577  0.0385  0.1140
  263loPI   C2A 4200   4.743  15.694   7.900  0.0336  0.0455 -0.3534
  263loPI   C3A 4201   4.941  15.415   7.597  0.3437  0.0466 -0.2341
  263loPI   C4A 4202   4.930  15.338   7.210  0.1687  0.2445  0.1888
  263loPI   C5A 4203   5.117  15.394   6.863 -0.0769  0.0576  0.0294
  263loPI   C6A 4204   5.510  15.545   6.706 -0.3117  0.2151  0.1143
  263loPI   C1B 4205   4.579  15.201   8.201 -0.1809  0.1361  0.1264
  263loPI   C2B 4206   4.765  14.996   7.853  0.1320 -0.1129  0.1550
  263loPI   C3B 4207   5.027  14.880   7.506  0.2642  0.1085 -0.3300
  263loPI   C4B 4208   5.232  14.874   7.118 -0.1918  0.3967 -0.1581
  264loPI    C1 4209  13.650   7.688   9.952 -0.0701  0.0835 -0.1072
  264loPI    C2 4210  13.428   7.381  10.082  0.2052 -0.1441 -0.1639
  264loPI    C3 4211  13.426   7.729  10.281 -0.0075 -0.2239 -0.0232
  264loPI   PO4 4212  13.699   7.584   9.700 -0.2498 -0.4540 -0.2326
  264loPI   GL1 4213  13.791   7.754   9.329  0.2846 -0.1472 -0.3641
  264loPI   GL2 4214  13.869   8.022   9.147 -0.0435  0.1115  0.0435
  264loPI   C1A 4215  13.805   7.496   9.050 -0.0433  0.1534 -0.0350
  264loPI   C2A 4216  13.913   7.523   8.541  0.0894 -0.0432 -0.1675
  264loPI   C3A 4217  14.246   7.450   8.211 -0.1539 -0.0149 -0.4330
  264loPI   C4A 4218  14.365   7.490   7.776  0.0619  0.2245  0.0216
  264loPI   C5A 4219  14.146   7.383   7.462 -0.1818 -0.2163 -0.1048
  264loPI   C6A 4220  14.050   7.162   7.113  0.3218 -0.4032  0.0085
  264loPI   C1B 4221  13.778   7.944   8.753  0.1312 -0.1299 -0.2670
  264loPI   C2B 4222  13.694   8.059   8.266 -0.1149  0.1967  0.0910
  264loPI   C3B 4223  13.724   8.183   7.878 -0.0951 -0.1349 -0.1279
  264loPI   C4B 4224  13.941   8.244   7.579 -0.2870 -0.1898  0.1415
  265loPI    C1 4225   0.168  15.016   9.743  0.1929 -0.0705  0.0899
  265loPI    C2 4226   0.440  15.301   9.817 -0.2163  0.3141  0.1547
  265loPI    C3 4227   0.126  15.255  10.061 -0.3843  0.0917 -0.0973
  265loPI   PO4 4228   0.056  15.157   9.438  0.1172  0.3480 -0.0822
  265loPI   GL1 4229  -0.075  14.927   9.115  0.2735 -0.0920 -0.1646
  265loPI   GL2 4230  -0.395  15.080   8.996  0.2801  0.1832 -0.1043
  265loPI   C1A 4231   0.044  14.990   8.676 -0.0393  0.1665  0.0167
  265loPI   C2A 4232  -0.036  15.067   8.170 -0.1418 -0.0167  0.3077
  265loPI   C3A 4233  -0.173  15.100   7.790 -0.4131 -0.1556 -0.0877
  265loPI   C4A 4234  -0.439  14.863   7.555 -0.0868 -0.0762 -0.0003
  265loPI   C5A 4235  -0.256  14.449   7.519 -0.2274 -0.0165 -0.1062
  265loPI   C6A 4236   0.140  14.526   7.542  0.3935 -0.1853 -0.0174
  265loPI   C1B 4237  -0.361  15.301   8.582  0.0808  0.1386 -0.0305
  265loPI   C2B 4238  -0.413  15.423   8.182  0.0735 -0.0467  0.0476
  265loPI   C3B 4239  -0.579  15.545   7.791  0.1865 -0.1910  0.2001
  265loPI   C4B 4240  -0.376  15.514   7.412 -0.0100  0.2067 -0.1246
  266loPI    C1 4241   8.651   8.784   9.876  0.0142  0.2823  0.1556
  266loPI    C2 4242   8.874   8.491  10.031  0.0066  0.2282  0.0649
  266loPI    C3 4243   8.604   8.677  10.258 -0.0493  0.1060  0.0997
  266loPI   PO4 4244   8.580   8.638   9.592  0.3048 -0.4490  0.2244
  266loPI   GL1 4245   8.508   8.490   9.193  0.4089 -0.1737 -0.0062
  266loPI   GL2 4246   8.321   8.189   9.174  0.1078 -0.2241 -0.2605
  266loPI   C1A 4247   8.727   8.704   8.922  0.1892 -0.2276 -0.1912
  266loPI   C2A 4248   8.875   8.569   8.534 -0.3111 -0.0111  0.3755
  266loPI   C3A 4249   8.963   8.400   8.087  0.3809  0.5450 -0.4939
  266loPI   C4A 4250   9.120   8.316   7.665  0.0656  0.1823 -0.0108
  266loPI   C5A 4251   9.350   8.316   7.431  0.1016 -0.2177  0.0748
  266loPI   C6A 4252   9.438   7.982   7.227 -0.1541 -0.2499 -0.1733
  266loPI   C1B 4253   8.274   8.265   8.789  0.2612  0.2574 -0.0313
  266loPI   C2B 4254   8.075   8.050   8.458  0.0140 -0.0210  0.2717
  266loPI   C3B 4255   7.931   8.117   8.026  0.2040  0.1341  0.0107
  266loPI   C4B 4256   7.741   8.097   7.517 -0.1011 -0.1151 -0.1096
  267loPI    C1 4257  14.302   4.146  10.129 -0.1169  0.1716 -0.2268
  267loPI    C2 4258  14.505   4.458  10.276 -0.0451  0.1299 -0.2370
  267loPI    C3 4259  14.267   4.244  10.515  0.3478 -0.1572 -0.0917
  267loPI   PO4 4260  14.174   4.273   9.839  0.0190  0.0649 -0.4142
  267loPI   GL1 4261  14.091   4.584   9.505  0.4694  0.2700 -0.0199
  267loPI   GL2 4262  14.312   4.254   9.341 -0.2445  0.0082  0.1541
  267loPI   C1A 4263  13.929   4.426   9.065 -0.0028  0.2881  0.1623
  267loPI   C2A 4264  13.829   4.537   8.652 -0.1068 -0.1926 -0.3622
  267loPI   C3A 4265  13.829   4.535   8.296 -0.3035 -0.1667 -0.0695
  267loPI   C4A 4266  14.089   4.515   7.943 -0.1983 -0.0697 -0.2499
  267loPI   C5A 4267  14.524   4.421   7.671 -0.0429 -0.2348  0.0600
  267loPI   C6A 4268  14.865   4.107   7.577 -0.1028  0.0412  0.2434
  267loPI   C1B 4269  14.513   4.313   8.914 -0.1059  0.1099 -0.3344
  267loPI   C2B 4270  14.466   4.514   8.567  0.0747  0.0950  0.3398
  267loPI   C3B 4271  14.552   4.667   8.183 -0.3106  0.0614  0.0219
  267loPI   C4B 4272  15.001   4.450   7.947 -0.3617 -0.2881 -0.2666
  268loPI    C1 4273  16.498   7.647  10.218  0.2904 -0.1608  0.0290
  268loPI    C2 4274  16.775   7.519  10.477  0.1996  0.2895  0.3604
  268loPI    C3 4275  16.434   7.681  10.612 -0.0301  0.1571 -0.0452
  268loPI   PO4 4276  16.575   7.502   9.961  0.0415  0.0605  0.1736
  268loPI   GL1 4277  16.572   7.485   9.612 -0.3419  0.3513  0.0968
  268loPI   GL2 4278  16.560   7.107   9.556  0.0018  0.2878 -0.1165
  268loPI   C1A 4279  16.817   7.389   9.259 -0.1511  0.3707 -0.1475
  268loPI   C2A 4280  17.011   7.202   8.872  0.0226  0.1793 -0.2181
  268loPI   C3A 4281  16.946   7.367   8.472 -0.0554 -0.2040 -0.0007
  268loPI   C4A 4282  17.043   7.459   8.005 -0.2567 -0.1265 -0.1313
  268loPI   C5A 4283  16.956   7.856   7.797 -0.0954  0.2166 -0.3694
  268loPI   C6A 4284  17.199   8.198   7.768 -0.1512 -0.1931  0.0121
  268loPI   C1B 4285  16.282   7.203   9.331  0.0388  0.0961 -0.1186
  268loPI   C2B 4286  16.138   7.532   8.969  0.3896  0.2148  0.0154
  268loPI   C3B 4287  16.169   7.820   8.592  0.1678 -0.0382 -0.0542
  268loPI   C4B 4288  16.374   7.911   8.190 -0.1571 -0.1721  0.2016
  269loPI    C1 4289  14.870  18.662  10.093 -0.0999 -0.2788 -0.0471
  269loPI    C2 4290  14.790  18.583  10.477  0.0335  0.0892  0.0601
  269loPI    C3 4291  15.091  18.829  10.381  0.0344 -0.0406 -0.2838
  269loPI   PO4 4292  14.716  18.693   9.996  0.0591  0.1328  0.1729
  269loPI   GL1 4293  14.879  18.948   9.531 -0.0098  0.2210 -0.2985
  269loPI   GL2 4294  14.654  19.123   9.557  0.1405  0.0895 -0.3313
  269loPI   C1A 4295  14.968  18.910   9.083  0.2105 -0.3507  0.0316
  269loPI   C2A 4296  14.938  18.754   8.706  0.4255 -0.2035  0.0986
  269loPI   C3A 4297  14.940  18.890   8.347 -0.1879  0.3123 -0.0898
  269loPI   C4A 4298  14.983  18.859   7.908  0.0310  0.1357  0.2064
  269loPI   C5A 4299  15.031  19.031   7.553  0.1302 -0.1318 -0.0058
  269loPI   C6A 4300  15.187  19.445   7.456 -0.0472  0.0902 -0.1180
  269loPI   C1B 4301  14.593  19.339   9.236 -0.0849 -0.0492  0.3125
  269loPI   C2B 4302  14.454  19.573   8.857 -0.0254  0.3852  0.0032
  269loPI   C3B 4303  14.378  19.645   8.416  0.0712  0.1051 -0.2252
  269loPI   C4B 4304  14.183  19.318   8.035 -0.0585 -0.2307  0.0207
  270loPI    C1 4305  15.513   5.357  10.200 -0.1895  0.0651  0.0140
  270loPI    C2 4306  15.642   5.006  10.343 -0.2495  0.0309 -0.0151
  270loPI    C3 4307  15.379   5.223  10.552 -0.0739  0.1456  0.0890
  270loPI   PO4 4308  15.538   5.302   9.841 -0.0804 -0.3421  0.2114
  270loPI   GL1 4309  15.469   5.475   9.440 -0.2357 -0.1063  0.1051
  270loPI   GL2 4310  15.098   5.524   9.441  0.0697  0.2352 -0.5346
  270loPI   C1A 4311  15.376   5.253   9.028  0.1414 -0.0287  0.4134
  270loPI   C2A 4312  15.275   5.076   8.718 -0.0840  0.3826 -0.0204
  270loPI   C3A 4313  15.044   4.846   8.362 -0.3000  0.0380 -0.1896
  270loPI   C4A 4314  15.021   4.952   7.961 -0.1279 -0.0575 -0.3633
  270loPI   C5A 4315  15.183   4.982   7.521 -0.3911 -0.2036 -0.4039
  270loPI   C6A 4316  15.237   5.275   7.264  0.0828 -0.2376  0.1227
  270loPI   C1B 4317  15.059   5.673   9.090  0.2281  0.0431 -0.2764
  270loPI   C2B 4318  15.307   5.678   8.718 -0.2872 -0.1684  0.1890
  270loPI   C3B 4319  15.297   5.730   8.336  0.2047  0.3961  0.0257
  270loPI   C4B 4320  15.143   5.814   7.925  0.1145  0.1492  0.2712
  271loPI    C1 4321   9.489   2.690   9.648  0.0426  0.0096  0.1144
  271loPI    C2 4322   9.506   2.364   9.880  0.0226  0.0934  0.2342
  271loPI    C3 4323   9.701   2.697   9.987  0.1959  0.0633  0.0185
  271loPI   PO4 4324   9.600   2.641   9.366  0.2376 -0.0660  0.1100
  271loPI   GL1 4325   9.538   2.842   9.004 -0.5454 -0.0877  0.2889
  271loPI   GL2 4326   9.281   3.012   9.036 -0.1547  0.1608 -0.0535
  271loPI   C1A 4327   9.817   2.774   8.675  0.2464  0.0552  0.1044
  271loPI   C2A 4328   9.827   2.895   8.176 -0.0629  0.4003  0.1901
  271loPI   C3A 4329   9.856   2.875   7.639  0.1572  0.0670 -0.1023
  271loPI   C4A 4330  10.077   2.820   7.174  0.2951  0.1959  0.0019
  271loPI   C5A 4331   9.857   2.916   6.820  0.1281 -0.0043  0.2060
  271loPI   C6A 4332   9.879   2.690   6.493 -0.2087  0.1818  0.0186
  271loPI   C1B 4333   9.440   3.001   8.456  0.5139  0.2090 -0.2901
  271loPI   C2B 4334   9.407   3.167   8.047 -0.1603  0.2784 -0.0818
  271loPI   C3B 4335   9.575   3.330   7.686 -0.0029 -0.2915 -0.0381
  271loPI   C4B 4336   9.635   3.425   7.199  0.0136 -0.0673  0.3263
  272loPI    C1 4337   1.738   0.430   9.277  0.0807 -0.1477  0.3155
  272loPI    C2 4338   1.710   0.242   9.630  0.2438 -0.0458  0.3836
  272loPI    C3 4339   1.879   0.604   9.608  0.0041  0.0602  0.2402
  272loPI   PO4 4340   1.525   0.519   9.182 -0.1772  0.0713  0.3227
  272loPI   GL1 4341   1.268   0.579   8.881 -0.0659  0.2242  0.1593
  272loPI   GL2 4342   1.308   0.164   8.886  0.0679 -0.2599  0.0378
  272loPI   C1A 4343   1.300   0.683   8.518  0.3425 -0.1738  0.1518
  272loPI   C2A 4344   1.385   0.485   8.126  0.1888  0.1667 -0.0671
  272loPI   C3A 4345   1.445   0.199   7.728  0.0540  0.0725 -0.2808
  272loPI   C4A 4346   1.340  -0.018   7.416 -0.0354 -0.2284  0.2705
  272loPI   C5A 4347   1.048  -0.147   7.122  0.1735 -0.0475  0.1764
  272loPI   C6A 4348   0.848  -0.248   6.730 -0.3490  0.0518 -0.2661
  272loPI   C1B 4349   1.166   0.164   8.577 -0.1166 -0.0672 -0.1891
  272loPI   C2B 4350   1.147   0.036   8.142 -0.1636  0.3445 -0.2066
  272loPI   C3B 4351   1.199  -0.312   7.824  0.2227  0.3380 -0.3988
  272loPI   C4B 4352   1.032  -0.435   7.522 -0.0291  0.0059 -0.1883
  273loPI    C1 4353   2.958   7.067  10.238  0.1944 -0.0287  0.0825
  273loPI    C2 4354   2.839   6.746  10.446 -0.0090  0.0007  0.0137
  273loPI    C3 4355   3.149   6.964  10.574  0.0945 -0.1901  0.0910
  273loPI   PO4 4356   2.753   7.096  10.105  0.0577  0.3527  0.1112
  273loPI   GL1 4357   2.475   6.899   9.781  0.3497  0.2801 -0.0068
  273loPI   GL2 4358   2.208   7.004   9.855  0.0829  0.2109  0.1269
  273loPI   C1A 4359   2.605   6.717   9.394 -0.0844  0.2367 -0.0148
  273loPI   C2A 4360   2.710   6.969   9.061 -0.0587  0.1764 -0.0854
  273loPI   C3A 4361   2.565   7.120   8.683  0.2366 -0.1714 -0.0030
  273loPI   C4A 4362   2.349   6.998   8.385 -0.0261 -0.3507 -0.0092
  273loPI   C5A 4363   2.078   6.928   7.999  0.0498 -0.4123 -0.1142
  273loPI   C6A 4364   1.784   6.695   7.669  0.1932  0.3629 -0.0024
  273loPI   C1B 4365   2.244   7.077   9.405 -0.0454  0.1238 -0.0136
  273loPI   C2B 4366   2.229   7.132   9.032 -0.0102 -0.1684  0.3033
  273loPI   C3B 4367   2.250   7.434   8.858  0.0867 -0.0796  0.0876
  273loPI   C4B 4368   1.970   7.612   8.773  0.0944 -0.0199 -0.0876
  274loPI    C1 4369   3.768   8.644  10.136 -0.3472 -0.4231 -0.0029
  274loPI    C2 4370   4.019   8.540  10.429 -0.0372  0.0452 -0.0915
  274loPI    C3 4371   3.694   8.758  10.513  0.0038  0.1033 -0.0830
  274loPI   PO4 4372   3.802   8.790  10.010  0.0104  0.0291 -0.1562
  274loPI   GL1 4373   3.770   8.997   9.730  0.1748 -0.1847  0.1348
  274loPI   GL2 4374   3.550   9.105   9.491  0.1269 -0.2208  0.2334
  274loPI   C1A 4375   3.968   8.728   9.319  0.1205 -0.0184  0.1192
  274loPI   C2A 4376   4.089   8.724   8.841 -0.2953  0.3255  0.0852
  274loPI   C3A 4377   4.187   8.509   8.550  0.2050  0.2952 -0.0157
  274loPI   C4A 4378   4.179   8.436   8.059 -0.1818 -0.1636 -0.2440
  274loPI   C5A 4379   4.322   8.025   7.828 -0.0172  0.0408  0.1789
  274loPI   C6A 4380   4.169   7.765   7.607  0.0080 -0.0602  0.3862
  274loPI   C1B 4381   3.497   9.064   9.027 -0.0457 -0.1074 -0.2274
  274loPI   C2B 4382   3.666   9.173   8.731  0.1593  0.3074 -0.1302
  274loPI   C3B 4383   3.583   9.230   8.308 -0.1665 -0.1960  0.1993
  274loPI   C4B 4384   3.680   9.097   7.875 -0.0205  0.1413  0.2413
  275loPI    C1 4385  17.209  14.977  10.089  0.1627  0.1243 -0.1678
  275loPI    C2 4386  16.956  15.286  10.111  0.0372  0.0175 -0.0968
  275loPI    C3 4387  17.264  15.261  10.365 -0.0126  0.0312 -0.0351
  275loPI   PO4 4388  17.146  14.816   9.906  0.1320  0.2685 -0.0290
  275loPI   GL1 4389  17.176  15.034   9.519 -0.0036 -0.0851  0.1072
  275loPI   GL2 4390  17.353  14.697   9.343 -0.1493  0.0037 -0.1445
  275loPI   C1A 4391  17.044  15.104   9.082  0.1168  0.0373 -0.1421
  275loPI   C2A 4392  16.905  14.975   8.640 -0.0083  0.1116  0.0946
  275loPI   C3A 4393  16.974  14.682   8.242 -0.0762  0.1364  0.0234
  275loPI   C4A 4394  16.936  14.667   7.835 -0.0082  0.2076 -0.0281
  275loPI   C5A 4395  17.168  14.942   7.615  0.2206  0.0339 -0.1750
  275loPI   C6A 4396  17.202  15.388   7.647 -0.0612  0.3545 -0.1612
  275loPI   C1B 4397  17.464  14.826   9.002 -0.2775  0.2215 -0.0937
  275loPI   C2B 4398  17.360  14.818   8.533 -0.0592  0.1845  0.1561
  275loPI   C3B 4399  17.441  14.901   8.050 -0.1254 -0.0577 -0.0388
  275loPI   C4B 4400  17.572  14.689   7.613 -0.2409 -0.1559  0.4094
  276loPI    C1 4401  10.637   3.045   9.457  0.1883  0.2151 -0.0770
  276loPI    C2 4402  10.906   2.814   9.272 -0.2161 -0.1318 -0.2470
  276loPI    C3 4403  10.939   2.884   9.664  0.1846 -0.0705 -0.2880
  276loPI   PO4 4404  10.458   3.022   9.281  0.0980 -0.3125  0.1405
  276loPI   GL1 4405  10.208   2.819   8.907  0.1368 -0.1364  0.0303
  276loPI   GL2 4406  10.612   2.893   8.800 -0.3531  0.2211  0.0642
  276loPI   C1A 4407  10.293   2.827   8.452 -0.1144  0.1671  0.2257
  276loPI   C2A 4408  10.323   3.024   8.033 -0.0752  0.0005  0.0523
  276loPI   C3A 4409  10.512   3.052   7.697  0.2297  0.1186  0.2081
  276loPI   C4A 4410  10.555   2.834   7.322  0.3267  0.0998 -0.0702
  276loPI   C5A 4411  10.729   2.537   7.489  0.0892  0.0836  0.3197
  276loPI   C6A 4412  10.910   2.124   7.557  0.1663  0.2788 -0.0022
  276loPI   C1B 4413  10.707   3.062   8.363  0.2683  0.2162  0.3355
  276loPI   C2B 4414  10.818   3.401   8.050 -0.0716  0.2897  0.1100
  276loPI   C3B 4415  10.832   3.442   7.505  0.2575  0.0163  0.2488
  276loPI   C4B 4416  10.953   3.325   7.085 -0.3218  0.0081  0.2254
  277loPI    C1 4417   6.853   7.998   9.673 -0.1388 -0.0196 -0.4347
  277loPI    C2 4418   6.569   8.263   9.768 -0.0180 -0.0125 -0.0762
  277loPI    C3 4419   6.954   8.371   9.776  0.0461 -0.2532  0.2877
  277loPI   PO4 4420   6.768   7.839   9.534  0.0980 -0.0820  0.1408
  277loPI   GL1 4421   6.759   7.740   9.177  0.1187  0.4037 -0.0876
  277loPI   GL2 4422   6.770   7.936   8.915  0.0197 -0.0784 -0.1837
  277loPI   C1A 4423   6.680   7.434   8.906 -0.1517  0.0603  0.2214
  277loPI   C2A 4424   6.903   7.159   8.856  0.2464  0.0103 -0.2252
  277loPI   C3A 4425   6.969   6.950   8.465 -0.0190  0.0586  0.0161
  277loPI   C4A 4426   7.005   6.791   8.081 -0.2967 -0.0408 -0.0378
  277loPI   C5A 4427   6.990   6.873   7.634  0.0042 -0.1260 -0.2656
  277loPI   C6A 4428   6.725   6.579   7.395 -0.0950 -0.0979  0.4806
  277loPI   C1B 4429   6.554   7.789   8.580 -0.1414 -0.3632 -0.1357
  277loPI   C2B 4430   6.416   7.698   8.269  0.1845 -0.3184  0.0189
  277loPI   C3B 4431   6.318   7.654   7.798 -0.1635  0.1745  0.1131
  277loPI   C4B 4432   6.637   7.528   7.531 -0.2009 -0.0675 -0.0308
  278loPI    C1 4433   2.337   2.831   9.013  0.1134 -0.2276  0.0413
  278loPI    C2 4434   2.255   2.842   9.404 -0.0495 -0.1889  0.0071
  278loPI    C3 4435   1.964   2.908   9.138  0.0952 -0.0489 -0.1181
  278loPI   PO4 4436   2.448   2.519   9.015 -0.0363 -0.0148 -0.0325
  278loPI   GL1 4437   2.655   2.360   8.719  0.1616  0.0587  0.0916
  278loPI   GL2 4438   2.671   2.615   8.478 -0.1162  0.1653  0.1285
  278loPI   C1A 4439   2.409   2.256   8.291 -0.1093  0.1870  0.2079
  278loPI   C2A 4440   2.281   2.319   7.886 -0.4223 -0.1097 -0.0471
  278loPI   C3A 4441   2.158   2.237   7.457  0.4309 -0.1112  0.3130
  278loPI   C4A 4442   1.865   2.051   7.131 -0.0241 -0.0937 -0.3120
  278loPI   C5A 4443   1.574   2.114   6.852  0.0258 -0.0612 -0.1708
  278loPI   C6A 4444   1.458   2.223   6.415 -0.0542 -0.1274 -0.0830
  278loPI   C1B 4445   2.690   2.622   8.045 -0.0548 -0.0148  0.2895
  278loPI   C2B 4446   2.700   2.650   7.611 -0.1156 -0.1270  0.1292
  278loPI   C3B 4447   2.651   2.265   7.196 -0.2297 -0.3771  0.1265
  278loPI   C4B 4448   2.353   1.902   7.115  0.2531 -0.0934  0.1969
  279loPI    C1 4449   1.196  11.085  10.399  0.2224 -0.0394 -0.2364
  279loPI    C2 4450   1.470  10.897  10.622  0.0877 -0.0306 -0.0612
  279loPI    C3 4451   1.087  10.786  10.641  0.0043  0.2647  0.0504
  279loPI   PO4 4452   1.257  11.113  10.212 -0.0758  0.0216  0.4609
  279loPI   GL1 4453   1.070  11.109   9.807 -0.0604  0.0231  0.2468
  279loPI   GL2 4454   0.774  11.303   9.748 -0.1173  0.3341  0.1071
  279loPI   C1A 4455   1.161  11.295   9.399 -0.1846  0.0085 -0.3126
  279loPI   C2A 4456   1.052  11.318   9.047  0.0416 -0.1552  0.0083
  279loPI   C3A 4457   1.061  11.319   8.574 -0.0532  0.0117  0.0341
  279loPI   C4A 4458   1.358  11.163   8.202  0.3267 -0.1230  0.0643
  279loPI   C5A 4459   1.500  11.435   7.792 -0.0171  0.1703 -0.1600
  279loPI   C6A 4460   1.630  11.570   7.471  0.0595  0.0448 -0.0109
  279loPI   C1B 4461   0.663  11.447   9.374  0.3198  0.0887 -0.1600
  279loPI   C2B 4462   0.506  11.565   8.967  0.0509  0.2239 -0.0564
  279loPI   C3B 4463   0.388  11.447   8.492 -0.0866 -0.0913  0.2342
  279loPI   C4B 4464   0.310  11.111   8.093  0.0610 -0.1774  0.0414
  280loPI    C1 4465  19.252  10.888  10.398 -0.0835  0.0526  0.2196
  280loPI    C2 4466  19.366  10.506  10.425 -0.1066  0.0321  0.0413
  280loPI    C3 4467  19.501  10.774  10.690  0.1107 -0.0507  0.0166
  280loPI   PO4 4468  18.935  10.890  10.284 -0.0391  0.2261  0.0739
  280loPI   GL1 4469  18.755  11.010   9.889  0.0324  0.2347  0.0738
  280loPI   GL2 4470  18.364  11.058   9.880  0.1065  0.0129 -0.1742
  280loPI   C1A 4471  19.080  10.948   9.528 -0.0148  0.4999 -0.1150
  280loPI   C2A 4472  19.085  10.728   9.098 -0.3752 -0.1739 -0.0404
  280loPI   C3A 4473  19.255  10.502   8.705  0.2347 -0.1771  0.1278
  280loPI   C4A 4474  19.229  10.300   8.320  0.3824  0.0687 -0.0662
  280loPI   C5A 4475  19.282   9.954   8.089  0.0736  0.0412  0.1258
  280loPI   C6A 4476  19.632   9.648   8.110 -0.2492  0.1786  0.1300
  280loPI   C1B 4477  18.530  10.995   9.455  0.0032  0.4445 -0.1988
  280loPI   C2B 4478  18.593  11.018   9.056  0.0860  0.1888 -0.0154
  280loPI   C3B 4479  18.511  10.887   8.691  0.2838  0.0981 -0.3086
  280loPI   C4B 4480  18.248  10.668   8.458 -0.3653  0.1605 -0.0318
  281loPI    C1 4481  18.711   6.720  10.301 -0.1869 -0.1565 -0.0793
  281loPI    C2 4482  18.520   6.384  10.403 -0.2533 -0.0804  0.0488
  281loPI    C3 4483  18.417   6.732  10.572  0.0809 -0.0571  0.2143
  281loPI   PO4 4484  18.867   6.648  10.080 -0.0932 -0.1051 -0.1862
  281loPI   GL1 4485  18.835   6.576   9.707  0.1896 -0.1129  0.1260
  281loPI   GL2 4486  18.565   6.828   9.572 -0.1344 -0.3286  0.0479
  281loPI   C1A 4487  18.836   6.436   9.287  0.0427 -0.2206 -0.0963
  281loPI   C2A 4488  18.963   6.757   8.971 -0.5582 -0.0299 -0.1815
  281loPI   C3A 4489  18.874   6.726   8.604  0.3707 -0.0622  0.4101
  281loPI   C4A 4490  18.922   6.765   8.181 -0.1465  0.1798 -0.1218
  281loPI   C5A 4491  18.795   6.668   7.630  0.2262 -0.0730  0.1776
  281loPI   C6A 4492  18.936   6.578   7.199  0.1400 -0.0949 -0.4378
  281loPI   C1B 4493  18.550   6.908   9.111 -0.0003  0.0466 -0.0925
  281loPI   C2B 4494  18.470   7.012   8.666  0.0122 -0.0172  0.0180
  281loPI   C3B 4495  18.593   7.157   8.198  0.0225 -0.0832  0.4983
  281loPI   C4B 4496  18.555   7.083   7.785 -0.2849  0.1123  0.0534
  282loPI    C1 4497  18.923   4.090   9.846 -0.1441  0.0695  0.0870
  282loPI    C2 4498  18.658   4.192  10.128 -0.3063 -0.0983 -0.0024
  282loPI    C3 4499  18.798   3.818  10.111  0.1297  0.0487  0.1978
  282loPI   PO4 4500  18.967   4.032   9.583 -0.2555 -0.0361  0.1649
  282loPI   GL1 4501  18.832   4.386   9.265  0.1524 -0.3124 -0.3683
  282loPI   GL2 4502  18.845   4.742   9.120 -0.1098 -0.0293 -0.0396
  282loPI   C1A 4503  18.577   4.376   8.852  0.0720 -0.3111  0.0087
  282loPI   C2A 4504  18.266   4.188   8.592  0.1447 -0.0326  0.3583
  282loPI   C3A 4505  18.173   3.851   8.360  0.1851 -0.0371 -0.3442
  282loPI   C4A 4506  18.213   3.525   8.048  0.0667  0.1365  0.0369
  282loPI   C5A 4507  18.074   3.199   7.703 -0.2949 -0.2213  0.0719
  282loPI   C6A 4508  17.915   2.772   7.736 -0.4734 -0.1500  0.1471
  282loPI   C1B 4509  19.000   4.814   8.669  0.2602  0.3194 -0.2642
  282loPI   C2B 4510  19.122   4.734   8.196 -0.0759  0.0152  0.2587
  282loPI   C3B 4511  19.164   4.798   7.776 -0.2054  0.1933 -0.1258
  282loPI   C4B 4512  19.549   4.770   7.445 -0.3031 -0.1341  0.1910
  283loPI    C1 4513  14.564  11.284   9.862  0.0067 -0.0898 -0.1104
  283loPI    C2 4514  14.186  11.201   9.760  0.0671 -0.2352 -0.2176
  283loPI    C3 4515  14.305  11.157  10.139 -0.0221 -0.1947 -0.1848
  283loPI   PO4 4516  14.659  11.597   9.784 -0.1714  0.1358  0.0752
  283loPI   GL1 4517  14.844  11.973   9.453  0.1007  0.0619 -0.2018
  283loPI   GL2 4518  15.030  11.973   9.654  0.0777  0.2567 -0.0177
  283loPI   C1A 4519  14.791  12.084   9.054 -0.1441 -0.1399  0.1739
  283loPI   C2A 4520  14.857  12.076   8.622 -0.1458 -0.1374  0.2926
  283loPI   C3A 4521  15.115  12.293   8.367 -0.0861  0.2872  0.1865
  283loPI   C4A 4522  15.217  12.107   7.942 -0.3172 -0.0045  0.3792
  283loPI   C5A 4523  15.313  11.780   7.731  0.0950  0.3066  0.0202
  283loPI   C6A 4524  15.718  11.690   7.494 -0.2719 -0.0078 -0.0322
  283loPI   C1B 4525  15.324  11.923   9.245 -0.2226  0.3304  0.1476
  283loPI   C2B 4526  15.576  11.681   8.978  0.0028 -0.2354  0.1597
  283loPI   C3B 4527  15.639  11.614   8.580  0.0979  0.0261 -0.1014
  283loPI   C4B 4528  15.448  11.816   8.270 -0.2072  0.1597 -0.1108
  284loPI    C1 4529   2.753   0.290   9.461  0.2295 -0.1419  0.0799
  284loPI    C2 4530   2.909  -0.024   9.655  0.1841 -0.2032  0.0177
  284loPI    C3 4531   2.517  -0.011   9.579  0.1489 -0.0241  0.2216
  284loPI   PO4 4532   2.934   0.352   9.238  0.0146 -0.0630 -0.2204
  284loPI   GL1 4533   3.160   0.304   8.837  0.0575 -0.1225  0.0688
  284loPI   GL2 4534   2.968   0.398   8.707 -0.3405 -0.1135  0.0743
  284loPI   C1A 4535   3.410   0.315   8.434  0.1222 -0.0766 -0.1166
  284loPI   C2A 4536   3.449   0.335   8.008 -0.1809  0.0526  0.2294
  284loPI   C3A 4537   3.529   0.252   7.612  0.1564 -0.0572  0.0078
  284loPI   C4A 4538   3.929   0.301   7.369  0.1332 -0.0185  0.3236
  284loPI   C5A 4539   4.102   0.381   7.002  0.1114  0.1734  0.0345
  284loPI   C6A 4540   4.280   0.084   6.772  0.0694 -0.1383 -0.0549
  284loPI   C1B 4541   2.888   0.381   8.284  0.0922  0.2991  0.2003
  284loPI   C2B 4542   2.845   0.600   7.953 -0.1193 -0.0679  0.3315
  284loPI   C3B 4543   2.920   1.051   7.900 -0.4195 -0.2112 -0.0314
  284loPI   C4B 4544   3.152   1.468   8.044  0.2213 -0.1643 -0.2608
  285loPI    C1 4545   5.428  16.758   9.587 -0.0668 -0.1459  0.0188
  285loPI    C2 4546   5.795  16.794   9.742 -0.1013  0.1100  0.0443
  285loPI    C3 4547   5.477  16.773   9.984 -0.1122 -0.0117  0.0198
  285loPI   PO4 4548   5.435  16.931   9.346 -0.1832 -0.3365  0.0672
  285loPI   GL1 4549   5.597  16.852   8.876  0.0898  0.0512 -0.1914
  285loPI   GL2 4550   5.278  17.017   8.870  0.1348  0.2332 -0.0582
  285loPI   C1A 4551   5.541  16.994   8.469  0.1488  0.0539  0.1808
  285loPI   C2A 4552   5.388  17.007   7.954  0.1305  0.3924 -0.1157
  285loPI   C3A 4553   5.213  16.916   7.595  0.4445  0.1715 -0.0611
  285loPI   C4A 4554   5.195  17.028   7.120  0.2182  0.1927 -0.0303
  285loPI   C5A 4555   4.827  16.959   6.879 -0.0025  0.0660  0.0033
  285loPI   C6A 4556   4.409  17.034   6.696 -0.2557 -0.0420 -0.1582
  285loPI   C1B 4557   5.076  16.860   8.481 -0.0791 -0.1187  0.2443
  285loPI   C2B 4558   4.958  16.675   8.075  0.0812 -0.1039  0.0064
  285loPI   C3B 4559   4.794  16.649   7.702 -0.2309  0.1692  0.4063
  285loPI   C4B 4560   4.748  16.769   7.292  0.0165  0.0318  0.0958
  286loPI    C1 4561  10.050   0.238   9.556 -0.0388 -0.0269  0.1370
  286loPI    C2 4562  10.369   0.405   9.730 -0.0141  0.0543  0.0152
  286loPI    C3 4563  10.200   0.080   9.892 -0.0340  0.1686  0.2278
  286loPI   PO4 4564  10.128   0.299   9.282 -0.1228  0.3972  0.2697
  286loPI   GL1 4565   9.908   0.299   8.883 -0.1062 -0.2527  0.1300
  286loPI   GL2 4566  10.066   0.070   8.838  0.3578 -0.5095  0.1133
  286loPI   C1A 4567   9.876   0.607   8.618  0.1099 -0.0739  0.0013
  286loPI   C2A 4568   9.626   0.743   8.182  0.0261  0.3060  0.1356
  286loPI   C3A 4569   9.431   0.905   7.779  0.1642  0.0792  0.3138
  286loPI   C4A 4570   9.212   0.743   7.523  0.1122  0.1566 -0.0602
  286loPI   C5A 4571   9.115   0.625   7.083  0.2870  0.3000  0.0916
  286loPI   C6A 4572   8.962   0.295   6.709  0.2645 -0.0916  0.0384
  286loPI   C1B 4573   9.964   0.151   8.408 -0.1304  0.3695 -0.0625
  286loPI   C2B 4574   9.953   0.395   8.057 -0.3029  0.1440 -0.0101
  286loPI   C3B 4575   9.765   0.507   7.722 -0.0330 -0.0345  0.1241
  286loPI   C4B 4576   9.546   0.327   7.375  0.1637  0.0560 -0.0132
  287loPI    C1 4577   1.507  10.402  10.609  0.0058 -0.0519  0.0211
  287loPI    C2 4578   1.715  10.393  10.951 -0.0020  0.2135  0.0351
  287loPI    C3 4579   1.329  10.500  10.954 -0.0821 -0.0636 -0.0206
  287loPI   PO4 4580   1.570  10.113  10.520 -0.3376 -0.0075  0.0800
  287loPI   GL1 4581   1.771  10.050  10.157 -0.1676  0.0329 -0.1379
  287loPI   GL2 4582   1.734   9.743   9.989 -0.1524 -0.0493  0.4632
  287loPI   C1A 4583   1.659  10.342   9.778  0.3483 -0.1434  0.0360
  287loPI   C2A 4584   1.324  10.270   9.392  0.1285 -0.4266  0.0895
  287loPI   C3A 4585   1.355  10.261   9.051  0.2503 -0.2774  0.1402
  287loPI   C4A 4586   1.399  10.439   8.657  0.1599 -0.0461  0.1032
  287loPI   C5A 4587   1.442  10.535   8.242  0.0371 -0.1234  0.1511
  287loPI   C6A 4588   1.033  10.749   7.960  0.2785 -0.1004  0.1745
  287loPI   C1B 4589   1.672   9.826   9.607  0.0244 -0.0217 -0.1469
  287loPI   C2B 4590   1.742   9.784   9.179  0.0571 -0.2417 -0.2705
  287loPI   C3B 4591   1.618   9.855   8.795 -0.0274  0.0420 -0.0669
  287loPI   C4B 4592   1.337   9.968   8.514 -0.0904  0.2086 -0.0930
  288loPI    C1 4593   4.480  17.399   9.411  0.2073  0.3214 -0.0204
  288loPI    C2 4594   4.660  17.344   9.764  0.1203  0.1399 -0.0026
  288loPI    C3 4595   4.261  17.348   9.742  0.1242  0.3841 -0.0652
  288loPI   PO4 4596   4.594  17.512   9.281  0.1982  0.0670 -0.4037
  288loPI   GL1 4597   4.621  17.578   8.842  0.2451 -0.3707  0.1775
  288loPI   GL2 4598   4.316  17.441   8.897 -0.0744  0.0087 -0.4225
  288loPI   C1A 4599   4.572  17.673   8.359 -0.1704 -0.1706 -0.0321
  288loPI   C2A 4600   4.629  17.626   7.928  0.0010 -0.0804 -0.1210
  288loPI   C3A 4601   4.646  17.623   7.547 -0.1517  0.2255 -0.0335
  288loPI   C4A 4602   4.391  17.728   7.104  0.3026 -0.0865 -0.0091
  288loPI   C5A 4603   4.040  17.901   6.993 -0.2269 -0.1515  0.3702
  288loPI   C6A 4604   3.681  17.897   6.698  0.1438  0.0275 -0.0532
  288loPI   C1B 4605   4.150  17.415   8.533  0.1578  0.2548 -0.2927
  288loPI   C2B 4606   4.062  17.467   8.159 -0.3766 -0.3867  0.2076
  288loPI   C3B 4607   4.050  17.718   7.891 -0.1784 -0.3779  0.1353
  288loPI   C4B 4608   3.958  17.719   7.444 -0.1224  0.2862 -0.2070
  289loPI    C1 4609   8.870   4.185  10.028  0.0162  0.0247  0.1248
  289loPI    C2 4610   9.023   4.428  10.306  0.0323  0.0761  0.0712
  289loPI    C3 4611   8.963   4.041  10.389  0.1046  0.0757  0.1225
  289loPI   PO4 4612   8.978   4.229   9.827 -0.0012  0.1315 -0.0465
  289loPI   GL1 4613   8.895   4.451   9.421 -0.3779  0.1203  0.3816
  289loPI   GL2 4614   9.244   4.464   9.276 -0.0695 -0.6584 -0.0476
  289loPI   C1A 4615   8.869   4.213   9.067 -0.1020  0.0958 -0.3334
  289loPI   C2A 4616   9.072   3.956   8.656  0.2485 -0.1925  0.1627
  289loPI   C3A 4617   8.991   3.907   8.240  0.3796  0.1177 -0.0159
  289loPI   C4A 4618   9.095   4.053   7.912  0.3128 -0.0608 -0.0430
  289loPI   C5A 4619   9.008   3.993   7.487 -0.0119  0.0652  0.6077
  289loPI   C6A 4620   9.009   3.694   7.174 -0.2405  0.1289 -0.1320
  289loPI   C1B 4621   9.296   4.531   8.842 -0.0141 -0.1117  0.2334
  289loPI   C2B 4622   9.140   4.442   8.463  0.0684 -0.2702  0.0144
  289loPI   C3B 4623   9.201   4.574   8.086  0.3994 -0.0039  0.1909
  289loPI   C4B 4624   9.274   4.475   7.687 -0.0677  0.0243 -0.0077
  290loPI    C1 4625   0.668   6.037  10.033 -0.2140  0.0213 -0.3065
  290loPI    C2 4626   0.330   6.177   9.869 -0.2149  0.4046  0.0075
  290loPI    C3 4627   0.561   6.418  10.090  0.2273  0.1258 -0.1357
  290loPI   PO4 4628   0.765   5.933   9.867 -0.0392  0.2457  0.1315
  290loPI   GL1 4629   0.814   5.883   9.404 -0.1218 -0.1975 -0.2884
  290loPI   GL2 4630   1.069   5.911   9.236 -0.1143  0.0455 -0.0412
  290loPI   C1A 4631   0.579   6.175   9.121  0.1800  0.1442 -0.0519
  290loPI   C2A 4632   0.620   6.255   8.668  0.0166 -0.2537  0.1027
  290loPI   C3A 4633   0.368   6.295   8.310 -0.0587 -0.2525 -0.3799
  290loPI   C4A 4634   0.112   6.660   8.289 -0.0551  0.1853 -0.1721
  290loPI   C5A 4635   0.219   7.001   8.063 -0.3184 -0.0780 -0.1760
  290loPI   C6A 4636   0.409   7.408   7.933  0.1359  0.1642 -0.1329
  290loPI   C1B 4637   1.423   5.990   9.132  0.0403  0.1103 -0.3892
  290loPI   C2B 4638   1.544   5.962   8.827 -0.1390 -0.1315 -0.0793
  290loPI   C3B 4639   1.676   6.224   8.617  0.2623 -0.1971 -0.0966
  290loPI   C4B 4640   1.477   6.467   8.351  0.1356  0.0027  0.3330
  291loPI    C1 4641   5.446   1.403   9.164  0.1838  0.0110  0.0241
  291loPI    C2 4642   5.563   1.400   9.546  0.2277  0.2420  0.0141
  291loPI    C3 4643   5.809   1.539   9.263  0.1323  0.2271 -0.0769
  291loPI   PO4 4644   5.362   1.179   9.105  0.1888  0.1703  0.4025
  291loPI   GL1 4645   5.175   0.947   8.827  0.2238  0.4652  0.0768
  291loPI   GL2 4646   4.850   1.047   8.862 -0.3261 -0.0503  0.2293
  291loPI   C1A 4647   5.095   0.931   8.407 -0.2554  0.1307  0.1257
  291loPI   C2A 4648   5.077   1.099   7.933 -0.1459 -0.0346 -0.0080
  291loPI   C3A 4649   5.123   1.036   7.483  0.0168 -0.0909  0.3135
  291loPI   C4A 4650   5.169   1.052   7.021 -0.2561  0.1477  0.2930
  291loPI   C5A 4651   4.975   1.343   6.811  0.0123 -0.0342 -0.1729
  291loPI   C6A 4652   4.725   1.701   6.803 -0.1309 -0.0172  0.2562
  291loPI   C1B 4653   4.706   0.688   8.589  0.2472 -0.1341  0.0635
  291loPI   C2B 4654   4.657   0.639   8.169  0.0545 -0.4637  0.1369
  291loPI   C3B 4655   4.852   0.597   7.836 -0.0633  0.1590  0.2163
  291loPI   C4B 4656   4.893   0.611   7.467 -0.2212  0.0337 -0.0369
  292loPI    C1 4657   8.309   9.834   9.300 -0.2052 -0.1386  0.1898
  292loPI    C2 4658   8.511   9.491   9.342 -0.0478 -0.0495  0.1731
  292loPI    C3 4659   8.629   9.817   9.541 -0.2320 -0.0189  0.2345
  292loPI   PO4 4660   8.184   9.815   9.167  0.4919 -0.0440  0.0596
  292loPI   GL1 4661   8.214   9.636   8.773  0.3271 -0.1086 -0.2038
  292loPI   GL2 4662   8.547   9.686   8.836  0.1169  0.0252 -0.1619
  292loPI   C1A 4663   8.195   9.643   8.200 -0.2014  0.4257 -0.0660
  292loPI   C2A 4664   8.192   9.491   7.780 -0.2214 -0.0931  0.1762
  292loPI   C3A 4665   8.115   9.102   7.483 -0.4012 -0.1696  0.0262
  292loPI   C4A 4666   7.753   9.225   7.338 -0.0888  0.0220  0.0871
  292loPI   C5A 4667   7.559   8.851   7.034  0.1504 -0.0633  0.1405
  292loPI   C6A 4668   7.392   8.447   7.003  0.0665  0.4974  0.0816
  292loPI   C1B 4669   8.661   9.666   8.439  0.1942 -0.2056 -0.0496
  292loPI   C2B 4670   8.731   9.717   8.033  0.4912 -0.3100 -0.0551
  292loPI   C3B 4671   8.802   9.488   7.580  0.0880 -0.0316  0.0875
  292loPI   C4B 4672   8.813   9.713   7.208 -0.0318 -0.1738 -0.0551
  293loPI    C1 4673   5.612  11.187   9.975  0.2203  0.1093  0.1744
  293loPI    C2 4674   5.900  11.089  10.235  0.3417 -0.0135 -0.0040
  293loPI    C3 4675   5.563  10.874  10.220  0.2734  0.0814  0.1496
  293loPI   PO4 4676   5.671  11.214   9.733 -0.0264 -0.0860  0.2701
  293loPI   GL1 4677   5.478  11.472   9.348 -0.1683 -0.1955 -0.1656
  293loPI   GL2 4678   5.746  11.560   9.308  0.1075  0.6375  0.2501
  293loPI   C1A 4679   5.266  11.423   8.989  0.0289  0.1335 -0.0284
  293loPI   C2A 4680   5.259  11.176   8.721  0.0945 -0.1345 -0.1156
  293loPI   C3A 4681   5.329  10.998   8.250 -0.1894  0.0073  0.0486
  293loPI   C4A 4682   5.377  10.499   8.111  0.1929 -0.1779 -0.0319
  293loPI   C5A 4683   5.534  10.252   7.798 -0.3142  0.1468 -0.2465
  293loPI   C6A 4684   5.979  10.108   7.604  0.1357  0.1051  0.1687
  293loPI   C1B 4685   5.973  11.743   8.966  0.0074 -0.0841  0.0821
  293loPI   C2B 4686   6.037  11.675   8.515  0.2032  0.0579  0.5143
  293loPI   C3B 4687   5.937  11.722   8.067 -0.3886  0.1530  0.0543
  293loPI   C4B 4688   5.559  11.734   7.755  0.3649 -0.0966 -0.0945
  294loPI    C1 4689  10.105   7.042  10.106 -0.1706 -0.1441 -0.1354
  294loPI    C2 4690  10.375   6.777  10.236 -0.1610 -0.0549  0.0296
  294loPI    C3 4691  10.057   6.866  10.462 -0.2210 -0.0056 -0.0731
  294loPI   PO4 4692  10.228   7.225   9.967 -0.0276  0.4391  0.1326
  294loPI   GL1 4693  10.661   7.161   9.644 -0.0775 -0.2298 -0.0870
  294loPI   GL2 4694  10.395   7.077   9.533  0.2871 -0.1970  0.3375
  294loPI   C1A 4695  10.697   7.109   9.118 -0.1487  0.1745 -0.1716
  294loPI   C2A 4696  10.729   7.089   8.750  0.0311 -0.2072  0.1814
  294loPI   C3A 4697  10.693   7.220   8.313  0.3452  0.0218 -0.1955
  294loPI   C4A 4698  10.565   7.509   7.896  0.3017  0.0383  0.1779
  294loPI   C5A 4699  10.572   7.654   7.396 -0.4965 -0.0754  0.1589
  294loPI   C6A 4700  10.628   7.421   7.016 -0.0805 -0.0435 -0.0925
  294loPI   C1B 4701  10.208   7.096   9.176 -0.0472 -0.0768  0.0594
  294loPI   C2B 4702  10.180   7.091   8.639 -0.0261 -0.0681  0.0599
  294loPI   C3B 4703  10.156   7.133   8.320 -0.2046  0.0062 -0.5493
  294loPI   C4B 4704   9.917   6.987   7.963 -0.0703 -0.1343 -0.3797
  295loPI    C1 4705  12.052  18.299   9.384 -0.0980 -0.2502 -0.0362
  295loPI    C2 4706  11.973  18.116   9.731 -0.0894  0.1857  0.2027
  295loPI    C3 4707  12.332  18.282   9.670 -0.0132 -0.0845 -0.1081
  295loPI   PO4 4708  11.902  18.223   9.228  0.0960 -0.0530  0.2050
  295loPI   GL1 4709  11.980  18.060   8.859 -0.2157  0.1349 -0.0006
  295loPI   GL2 4710  11.864  17.901   8.684 -0.2645  0.0448 -0.1334
  295loPI   C1A 4711  12.115  18.161   8.374  0.2088  0.1402 -0.0798
  295loPI   C2A 4712  12.076  18.192   8.022  0.2160  0.3715 -0.0602
  295loPI   C3A 4713  11.916  18.274   7.590 -0.1863  0.0790 -0.2278
  295loPI   C4A 4714  11.876  18.318   7.178  0.2082  0.1886  0.1207
  295loPI   C5A 4715  12.165  18.425   6.819  0.2439 -0.1389  0.0569
  295loPI   C6A 4716  12.433  18.247   6.452 -0.2658  0.0619  0.1154
  295loPI   C1B 4717  11.723  17.865   8.237  0.0849  0.0534  0.2225
  295loPI   C2B 4718  11.578  18.065   7.914 -0.2455  0.0755 -0.0357
  295loPI   C3B 4719  11.385  18.195   7.546  0.1245 -0.2416 -0.1166
  295loPI   C4B 4720  11.313  18.345   7.118  0.2643  0.0096 -0.2624
  296loPI    C1 4721   1.094   8.397  10.418  0.1584 -0.2434 -0.0340
  296loPI    C2 4722   0.789   8.550  10.627  0.2852  0.0603 -0.0673
  296loPI    C3 4723   0.838   8.154  10.606 -0.0166  0.0138  0.0655
  296loPI   PO4 4724   1.144   8.571  10.249 -0.0576 -0.0050  0.0057
  296loPI   GL1 4725   1.296   8.537   9.843 -0.0383 -0.1726 -0.0504
  296loPI   GL2 4726   1.568   8.704   9.715 -0.0200  0.2443  0.0541
  296loPI   C1A 4727   1.260   8.462   9.358 -0.1134  0.1115 -0.0778
  296loPI   C2A 4728   1.223   8.476   8.933  0.2361 -0.1132 -0.0442
  296loPI   C3A 4729   1.109   8.258   8.556 -0.1717 -0.2542  0.0110
  296loPI   C4A 4730   1.355   8.149   8.266 -0.0707 -0.2299 -0.1673
  296loPI   C5A 4731   1.601   8.209   7.965  0.2402  0.0320 -0.2411
  296loPI   C6A 4732   1.822   8.227   7.588 -0.1337 -0.0387 -0.2507
  296loPI   C1B 4733   1.570   8.896   9.303  0.3820 -0.2972  0.1505
  296loPI   C2B 4734   1.582   8.829   8.899 -0.1262 -0.2430  0.0156
  296loPI   C3B 4735   1.503   8.546   8.488  0.2305 -0.3564  0.0213
  296loPI   C4B 4736   1.238   8.597   8.113 -0.1979  0.3270  0.1710
  297loPI    C1 4737  18.787  14.522   9.996 -0.0132 -0.1321  0.0074
  297loPI    C2 4738  18.803  14.132   9.908  0.1320 -0.1067 -0.0828
  297loPI    C3 4739  18.827  14.253  10.289 -0.1004 -0.1951 -0.0384
  297loPI   PO4 4740  18.690  14.593   9.737 -0.0885  0.3587 -0.0816
  297loPI   GL1 4741  18.478  14.722   9.324 -0.2490 -0.3284  0.1518
  297loPI   GL2 4742  18.781  14.574   9.203  0.1425  0.0374 -0.1749
  297loPI   C1A 4743  18.420  14.995   8.924 -0.1200 -0.3151 -0.0440
  297loPI   C2A 4744  18.669  14.909   8.573 -0.0801  0.3984  0.0143
  297loPI   C3A 4745  18.824  14.978   8.193  0.2012  0.1335  0.1289
  297loPI   C4A 4746  18.636  15.117   7.870  0.1105  0.1610  0.3205
  297loPI   C5A 4747  18.349  15.125   7.557 -0.4070 -0.0354  0.1312
  297loPI   C6A 4748  17.961  15.093   7.465 -0.1815 -0.1423  0.2289
  297loPI   C1B 4749  18.934  14.629   8.880  0.0835 -0.0466 -0.0597
  297loPI   C2B 4750  18.942  14.517   8.444  0.0920  0.1041 -0.1056
  297loPI   C3B 4751  19.154  14.601   8.042  0.1054 -0.2058  0.2607
  297loPI   C4B 4752  19.570  14.742   7.973  0.1217  0.2214 -0.2221
  298loPI    C1 4753  19.320  11.713  10.214  0.2615  0.2557  0.0646
  298loPI    C2 4754  19.194  11.652  10.588 -0.1312  0.0979 -0.0886
  298loPI    C3 4755  19.363  12.001  10.489 -0.1252  0.1821  0.2076
  298loPI   PO4 4756  19.158  11.736   9.966  0.0889 -0.0131  0.1472
  298loPI   GL1 4757  19.317  11.814   9.595  0.2887  0.0198  0.1580
  298loPI   GL2 4758  19.343  11.496   9.530  0.3420  0.3599  0.0898
  298loPI   C1A 4759  18.927  11.882   9.271  0.0602  0.0071 -0.1615
  298loPI   C2A 4760  18.809  11.861   8.823  0.1869 -0.3502  0.1842
  298loPI   C3A 4761  18.872  11.706   8.325 -0.3317  0.1016 -0.2233
  298loPI   C4A 4762  18.827  11.645   7.902  0.0658  0.0683 -0.2494
  298loPI   C5A 4763  18.699  11.315   7.601 -0.0252  0.1556 -0.2484
  298loPI   C6A 4764  18.583  10.954   7.430 -0.0698 -0.0885  0.2023
  298loPI   C1B 4765  19.372  11.729   9.135  0.0782 -0.0662 -0.0512
  298loPI   C2B 4766  19.500  11.848   8.711  0.0649  0.1164  0.1717
  298loPI   C3B 4767  19.328  11.772   8.272 -0.0296 -0.0244  0.1522
  298loPI   C4B 4768  19.375  11.609   7.824  0.1002  0.2283  0.0735
  299loPI    C1 4769  15.119  17.736   9.836 -0.1028 -0.1188 -0.1787
  299loPI    C2 4770  15.494  17.848   9.753 -0.1404  0.0113 -0.1768
  299loPI    C3 4771  15.356  17.872  10.128 -0.0740 -0.2684 -0.1316
  299loPI   PO4 4772  14.985  17.907   9.634  0.3693 -0.2367  0.2183
  299loPI   GL1 4773  14.802  17.964   9.200  0.0406 -0.0691 -0.0707
  299loPI   GL2 4774  14.567  18.042   8.993 -0.0704  0.2530  0.2263
  299loPI   C1A 4775  14.845  17.766   8.673 -0.3056 -0.0933 -0.0485
  299loPI   C2A 4776  14.955  17.634   8.300  0.0940  0.0391  0.0333
  299loPI   C3A 4777  15.112  17.431   7.921  0.2319 -0.0961  0.3215
  299loPI   C4A 4778  15.168  17.231   7.669  0.1578  0.1446  0.0604
  299loPI   C5A 4779  15.432  16.949   7.538  0.3550 -0.1570  0.0133
  299loPI   C6A 4780  15.512  16.630   7.168 -0.1566  0.1287 -0.0642
  299loPI   C1B 4781  14.430  18.234   8.587  0.4334  0.1597  0.0348
  299loPI   C2B 4782  14.329  18.246   8.217  0.1135 -0.2477 -0.1243
  299loPI   C3B 4783  14.318  18.180   7.734  0.0284 -0.0529  0.2648
  299loPI   C4B 4784  14.402  18.025   7.330  0.1959 -0.2652  0.0970
  300loPI    C1 4785  19.302   5.322   9.977  0.2840  0.1188 -0.0231
  300loPI    C2 4786  19.279   4.928  10.039  0.1672  0.1486  0.1307
  300loPI    C3 4787  19.524   5.152  10.262  0.1438  0.1803  0.1246
  300loPI   PO4 4788  19.418   5.324   9.688 -0.3497  0.1998 -0.1706
  300loPI   GL1 4789  19.459   5.089   9.395 -0.0551 -0.0677  0.1878
  300loPI   GL2 4790  19.289   4.943   9.309  0.2630 -0.0846  0.1450
  300loPI   C1A 4791  19.562   5.299   8.987 -0.3087  0.0735  0.1832
  300loPI   C2A 4792  19.778   5.278   8.636  0.2457 -0.0801 -0.0769
  300loPI   C3A 4793  19.668   5.336   8.235  0.1096 -0.4380  0.1862
  300loPI   C4A 4794  19.404   5.254   7.980  0.0230  0.0815  0.1478
  300loPI   C5A 4795  19.147   5.528   7.641  0.1320 -0.4629 -0.0540
  300loPI   C6A 4796  19.211   6.013   7.593 -0.1360 -0.2766 -0.3933
  300loPI   C1B 4797  19.448   4.803   8.893 -0.1205  0.0245 -0.1110
  300loPI   C2B 4798  19.457   4.417   8.477 -0.0666  0.3575  0.1213
  300loPI   C3B 4799  19.630   4.242   8.136 -0.1665 -0.2535  0.0641
  300loPI   C4B 4800  19.717   4.341   7.704 -0.0042 -0.1232  0.0925
  301loPI    C1 4801   3.059  18.017   9.664 -0.2091 -0.1008 -0.1309
  301loPI    C2 4802   3.146  18.389   9.784 -0.0291 -0.1083 -0.2329
  301loPI    C3 4803   2.947  18.141  10.027  0.0564 -0.0221 -0.0730
  301loPI   PO4 4804   3.132  18.051   9.364  0.1807  0.0493 -0.0492
  301loPI   GL1 4805   3.085  18.276   8.934 -0.0662 -0.0997  0.0541
  301loPI   GL2 4806   3.322  18.059   8.810 -0.1725 -0.0850  0.1959
  301loPI   C1A 4807   2.622  18.299   8.673 -0.1020  0.0878  0.3222
  301loPI   C2A 4808   2.516  17.985   8.325 -0.0040 -0.1471 -0.3557
  301loPI   C3A 4809   2.340  17.790   7.978 -0.4154  0.0082  0.0767
  301loPI   C4A 4810   2.287  17.711   7.622  0.3577 -0.0007  0.4157
  301loPI   C5A 4811   1.985  17.596   7.397 -0.3200  0.0448  0.0260
  301loPI   C6A 4812   1.870  17.276   7.266  0.3078  0.4253 -0.0710
  301loPI   C1B 4813   3.033  18.187   8.405  0.0066  0.1056  0.0258
  301loPI   C2B 4814   2.922  18.472   8.061 -0.2618  0.1623 -0.1402
  301loPI   C3B 4815   2.994  19.099   8.032  0.2796 -0.0895  0.0061
  301loPI   C4B 4816   3.051  19.431   7.872 -0.0904  0.2453 -0.0564
  302loPI    C1 4817  12.900   5.394   9.861  0.0087 -0.0015  0.1119
  302loPI    C2 4818  12.509   5.394   9.778 -0.0398  0.4817  0.3115
  302loPI    C3 4819  12.639   5.250  10.127  0.0358 -0.3014 -0.0194
  302loPI   PO4 4820  12.996   5.232   9.551 -0.1558  0.2196  0.0261
  302loPI   GL1 4821  12.942   5.298   9.162  0.1493 -0.0476  0.0522
  302loPI   GL2 4822  12.754   5.646   9.362 -0.1118  0.1733 -0.0220
  302loPI   C1A 4823  12.937   5.678   8.842 -0.0025 -0.0317 -0.1456
  302loPI   C2A 4824  12.663   5.675   8.440 -0.1100 -0.4194  0.3206
  302loPI   C3A 4825  12.628   5.571   8.058 -0.2017  0.1283 -0.0506
  302loPI   C4A 4826  12.797   5.846   7.661 -0.0339  0.1977  0.0143
  302loPI   C5A 4827  12.642   5.787   7.315  0.0629 -0.1676  0.1374
  302loPI   C6A 4828  12.521   5.808   6.893 -0.2300  0.0125 -0.1858
  302loPI   C1B 4829  12.515   5.911   9.071  0.0976  0.1186  0.1154
  302loPI   C2B 4830  12.603   6.067   8.712  0.2405 -0.0231 -0.1414
  302loPI   C3B 4831  12.672   6.145   8.308  0.0215 -0.0061 -0.1676
  302loPI   C4B 4832  13.038   6.164   8.045  0.1901  0.2173 -0.1663
  303loPI    C1 4833  17.260   3.458  10.129 -0.2968 -0.1237 -0.0588
  303loPI    C2 4834  17.382   3.162  10.370 -0.0647 -0.0938 -0.1369
  303loPI    C3 4835  17.553   3.523  10.394 -0.3462  0.0357 -0.0424
  303loPI   PO4 4836  17.287   3.401   9.946  0.2388 -0.1949 -0.0535
  303loPI   GL1 4837  17.080   3.346   9.537 -0.0047  0.1128  0.1478
  303loPI   GL2 4838  16.874   3.460   9.651 -0.3608 -0.0857  0.0423
  303loPI   C1A 4839  16.895   3.307   9.014 -0.2130  0.0351 -0.1112
  303loPI   C2A 4840  16.905   3.153   8.530  0.0345 -0.8385 -0.0227
  303loPI   C3A 4841  16.797   3.283   8.065 -0.0767  0.0464  0.1043
  303loPI   C4A 4842  16.809   3.197   7.679  0.2176 -0.1289 -0.1386
  303loPI   C5A 4843  17.030   3.306   7.191  0.4112 -0.2330  0.1006
  303loPI   C6A 4844  16.911   3.185   6.741 -0.0162 -0.0706  0.3863
  303loPI   C1B 4845  16.725   3.645   9.351 -0.0179 -0.0200  0.2322
  303loPI   C2B 4846  16.723   3.753   8.885  0.0457  0.1709 -0.2237
  303loPI   C3B 4847  16.669   3.695   8.319  0.1459 -0.1677 -0.3154
  303loPI   C4B 4848  16.857   3.737   7.803  0.1414  0.1130  0.1958
  304loPI    C1 4849   3.245  13.760   9.650 -0.2455 -0.0366 -0.1292
  304loPI    C2 4850   3.511  14.025   9.787 -0.2440 -0.0278 -0.1490
  304loPI    C3 4851   3.559  13.636   9.865 -0.1948 -0.0320 -0.2004
  304loPI   PO4 4852   3.133  13.796   9.466  0.1096 -0.2093  0.3625
  304loPI   GL1 4853   2.974  13.593   9.100 -0.0364 -0.4009 -0.2509
  304loPI   GL2 4854   3.269  13.364   9.156 -0.1874  0.0923  0.0565
  304loPI   C1A 4855   2.719  13.754   8.744  0.1569 -0.2645  0.0410
  304loPI   C2A 4856   2.720  13.583   8.408  0.0158  0.1867  0.1846
  304loPI   C3A 4857   2.697  13.543   7.993 -0.0691  0.1096 -0.1805
  304loPI   C4A 4858   2.739  13.653   7.555 -0.2109 -0.3605  0.2151
  304loPI   C5A 4859   2.723  13.458   7.194  0.2986 -0.2371  0.0043
  304loPI   C6A 4860   2.778  13.309   6.779  0.2061  0.0244 -0.0326
  304loPI   C1B 4861   3.247  13.278   8.756 -0.3554 -0.1896  0.0950
  304loPI   C2B 4862   3.149  13.312   8.291  0.3032 -0.2248  0.0330
  304loPI   C3B 4863   3.171  13.399   7.871 -0.1288 -0.0630  0.2620
  304loPI   C4B 4864   3.195  13.417   7.474  0.1943  0.0086 -0.1322
  305loPI    C1 4865   4.488  16.911   9.619  0.0668  0.0030  0.4373
  305loPI    C2 4866   4.452  16.554   9.796 -0.0812 -0.0845  0.2351
  305loPI    C3 4867   4.182  16.841   9.867 -0.0848 -0.0861  0.2281
  305loPI   PO4 4868   4.714  16.915   9.414  0.1753 -0.2668 -0.0714
  305loPI   GL1 4869   4.721  17.132   8.957  0.0694  0.1103  0.0029
  305loPI   GL2 4870   4.678  16.813   8.870  0.1676  0.0767 -0.0549
  305loPI   C1A 4871   4.569  17.172   8.538  0.2169  0.0353  0.3388
  305loPI   C2A 4872   4.438  17.124   8.070 -0.4607  0.2954 -0.0273
  305loPI   C3A 4873   4.713  17.212   7.760  0.0212  0.3354 -0.1658
  305loPI   C4A 4874   4.567  17.265   7.238 -0.0313  0.0375  0.1693
  305loPI   C5A 4875   4.834  17.508   6.998 -0.2877  0.0841 -0.0516
  305loPI   C6A 4876   5.280  17.654   6.897  0.2662 -0.2353 -0.0309
  305loPI   C1B 4877   4.641  16.615   8.436  0.0386  0.2444 -0.0124
  305loPI   C2B 4878   4.384  16.605   8.039  0.0811 -0.1033 -0.3401
  305loPI   C3B 4879   4.347  16.769   7.605  0.0437 -0.3802 -0.1163
  305loPI   C4B 4880   4.240  16.839   7.153  0.2502  0.2084 -0.0359
  306loPI    C1 4881  17.956   4.094   9.982 -0.0462 -0.1687 -0.0759
  306loPI    C2 4882  18.103   4.459  10.054 -0.1000 -0.1154 -0.2325
  306loPI    C3 4883  18.215   4.150  10.282 -0.0468 -0.0033 -0.1050
  306loPI   PO4 4884  17.970   4.084   9.747 -0.1949  0.1110 -0.0070
  306loPI   GL1 4885  17.818   3.848   9.416  0.2913 -0.0621  0.2500
  306loPI   GL2 4886  17.986   3.993   9.250 -0.1350 -0.1200  0.1889
  306loPI   C1A 4887  17.826   3.762   8.828 -0.0800  0.1018  0.2972
  306loPI   C2A 4888  17.562   3.818   8.473 -0.0834 -0.1752 -0.0462
  306loPI   C3A 4889  17.751   3.989   8.126 -0.0283 -0.0432 -0.2684
  306loPI   C4A 4890  17.687   4.083   7.735 -0.3348 -0.0383 -0.2046
  306loPI   C5A 4891  17.784   4.353   7.373 -0.3044 -0.2085  0.2151
  306loPI   C6A 4892  18.176   4.477   7.140 -0.0212  0.1313  0.2735
  306loPI   C1B 4893  17.784   4.310   8.936 -0.2001 -0.1353  0.1381
  306loPI   C2B 4894  17.791   4.252   8.557  0.1657  0.0260  0.2439
  306loPI   C3B 4895  17.989   4.458   8.227 -0.1304 -0.0216 -0.2571
  306loPI   C4B 4896  18.363   4.317   8.026 -0.1897 -0.3870  0.0982
  307loPI    C1 4897   8.457   1.883   9.525  0.2440  0.0158 -0.0429
  307loPI    C2 4898   8.709   1.652   9.733  0.0507 -0.1211  0.0417
  307loPI    C3 4899   8.766   2.047   9.719  0.1482 -0.1274  0.2366
  307loPI   PO4 4900   8.413   1.734   9.229 -0.1563 -0.1030  0.2902
  307loPI   GL1 4901   8.560   1.643   8.899  0.0825 -0.2617  0.0435
  307loPI   GL2 4902   8.904   1.351   8.913  0.1338 -0.1059 -0.0826
  307loPI   C1A 4903   8.558   1.857   8.530 -0.0912  0.1073 -0.1553
  307loPI   C2A 4904   8.583   1.876   8.053 -0.2295 -0.0402 -0.1818
  307loPI   C3A 4905   8.647   1.840   7.507  0.2394 -0.0194 -0.0642
  307loPI   C4A 4906   8.705   1.957   7.127 -0.1302  0.0442  0.1325
  307loPI   C5A 4907   8.900   1.912   6.681 -0.1381  0.0819  0.2367
  307loPI   C6A 4908   8.997   1.596   6.371 -0.2704  0.0846  0.0702
  307loPI   C1B 4909   9.040   1.268   8.471  0.4118  0.0864 -0.0525
  307loPI   C2B 4910   9.047   1.065   8.077 -0.1131 -0.2538 -0.0577
  307loPI   C3B 4911   9.060   1.222   7.689  0.1761 -0.5463  0.1658
  307loPI   C4B 4912   9.150   1.115   7.187 -0.0786  0.3204 -0.2141
  308loPI    C1 4913   2.786  11.661  10.023  0.0216 -0.0220  0.0579
  308loPI    C2 4914   2.464  11.692  10.258 -0.1227 -0.2697 -0.1026
  308loPI    C3 4915   2.467  11.868   9.899  0.0717  0.0523  0.0524
  308loPI   PO4 4916   2.825  11.342  10.049  0.0296 -0.0176  0.1505
  308loPI   GL1 4917   3.149  11.265   9.775 -0.0797 -0.0403  0.0613
  308loPI   GL2 4918   3.201  10.982   9.756  0.1846 -0.2661 -0.1349
  308loPI   C1A 4919   3.291  11.367   9.374  0.1667 -0.2681 -0.3378
  308loPI   C2A 4920   3.338  11.367   8.991 -0.2575 -0.0711 -0.0722
  308loPI   C3A 4921   3.485  11.595   8.468 -0.1579  0.1101 -0.3058
  308loPI   C4A 4922   3.742  11.530   8.002 -0.2924 -0.1894  0.1178
  308loPI   C5A 4923   4.142  11.435   7.641  0.2990 -0.2005  0.1133
  308loPI   C6A 4924   4.497  11.271   7.342  0.3525 -0.2598  0.0936
  308loPI   C1B 4925   3.393  10.931   9.287 -0.1220  0.1158  0.4013
  308loPI   C2B 4926   3.598  10.963   8.818 -0.1912 -0.5672  0.0601
  308loPI   C3B 4927   3.576  11.045   8.404  0.0252  0.2312  0.0022
  308loPI   C4B 4928   3.412  11.162   8.018  0.2559 -0.0314  0.0879
  309loPI    C1 4929  12.411   2.235   9.877  0.3169 -0.0192 -0.0658
  309loPI    C2 4930  12.606   1.919   9.730  0.1344 -0.1081 -0.1202
  309loPI    C3 4931  12.237   2.004   9.601  0.1762  0.1188 -0.0947
  309loPI   PO4 4932  12.511   2.478   9.794 -0.1297  0.3201 -0.0696
  309loPI   GL1 4933  12.651   2.806   9.406 -0.1029  0.0239  0.0337
  309loPI   GL2 4934  12.920   2.740   9.300 -0.0292 -0.0282 -0.1398
  309loPI   C1A 4935  12.493   2.645   8.942  0.2520 -0.0214  0.0225
  309loPI   C2A 4936  12.276   2.297   8.795 -0.0430 -0.1315 -0.2363
  309loPI   C3A 4937  12.420   2.086   8.472 -0.1942 -0.2292  0.4224
  309loPI   C4A 4938  12.461   1.961   8.032  0.0653  0.3484 -0.0653
  309loPI   C5A 4939  12.425   1.950   7.568 -0.3413  0.4713 -0.0349
  309loPI   C6A 4940  12.288   2.038   7.241  0.0333  0.0823  0.1446
  309loPI   C1B 4941  12.969   2.720   8.754 -0.2395  0.1595 -0.0285
  309loPI   C2B 4942  12.663   2.521   8.374  0.0447  0.3429  0.1518
  309loPI   C3B 4943  12.498   2.709   7.984 -0.0173 -0.2253  0.2255
  309loPI   C4B 4944  12.498   3.066   7.755  0.0726  0.0257 -0.3218
  310loPI    C1 4945   2.093   0.768   9.114  0.2590  0.1050 -0.0098
  310loPI    C2 4946   2.317   1.083   9.012  0.2867  0.1290  0.1236
  310loPI    C3 4947   2.261   0.994   9.398  0.1642  0.0527  0.0887
  310loPI   PO4 4948   2.166   0.592   8.928  0.0008 -0.2871  0.2805
  310loPI   GL1 4949   2.342   0.402   8.477  0.1674  0.2246  0.4673
  310loPI   GL2 4950   2.286   0.767   8.478  0.3423 -0.1450 -0.1544
  310loPI   C1A 4951   2.439   0.358   8.101 -0.0334  0.0122  0.1733
  310loPI   C2A 4952   2.453   0.145   7.718 -0.1535  0.0710 -0.2566
  310loPI   C3A 4953   2.770   0.361   7.477 -0.1350  0.1739  0.0563
  310loPI   C4A 4954   3.203   0.394   7.276 -0.2556  0.0681 -0.0090
  310loPI   C5A 4955   3.504   0.038   7.087 -0.1124 -0.1090  0.0183
  310loPI   C6A 4956   3.789  -0.108   6.775 -0.1751 -0.0290  0.0518
  310loPI   C1B 4957   2.154   1.159   8.417  0.1503  0.1890  0.2046
  310loPI   C2B 4958   2.045   1.281   8.045 -0.1171 -0.3634  0.2412
  310loPI   C3B 4959   1.929   1.090   7.705  0.1048  0.0974 -0.0117
  310loPI   C4B 4960   2.100   1.188   7.312 -0.1040  0.0097 -0.2284
  311loPI    C1 4961  17.896   6.567  10.080 -0.0951  0.0855 -0.0003
  311loPI    C2 4962  17.642   6.284  10.204  0.0110 -0.0160 -0.0124
  311loPI    C3 4963  17.976   6.358  10.411 -0.0553  0.1558  0.0346
  311loPI   PO4 4964  17.886   6.528   9.857  0.5867 -0.0005 -0.0199
  311loPI   GL1 4965  17.867   6.337   9.447  0.0509 -0.3028  0.2141
  311loPI   GL2 4966  17.612   6.425   9.327 -0.1710  0.4014 -0.1197
  311loPI   C1A 4967  18.246   6.487   9.243 -0.2692  0.0434  0.0123
  311loPI   C2A 4968  18.603   6.383   8.836  0.2535  0.0164 -0.1179
  311loPI   C3A 4969  18.606   6.302   8.426  0.0782 -0.1557  0.1576
  311loPI   C4A 4970  18.481   6.104   8.076  0.1698 -0.3141 -0.0251
  311loPI   C5A 4971  18.475   6.372   7.840  0.0393 -0.0504  0.0056
  311loPI   C6A 4972  18.258   6.639   7.766  0.1081  0.0661  0.2681
  311loPI   C1B 4973  17.686   6.712   8.957  0.1948  0.1379 -0.0458
  311loPI   C2B 4974  17.664   6.748   8.474 -0.1361  0.1432 -0.0612
  311loPI   C3B 4975  17.846   6.534   8.096  0.0499 -0.3957 -0.4718
  311loPI   C4B 4976  17.971   6.133   7.951  0.2575  0.0897  0.0608
  312loPI    C1 4977  14.924  13.048   9.981  0.0948 -0.0200  0.1231
  312loPI    C2 4978  14.805  13.400  10.129  0.1816 -0.0350  0.2296
  312loPI    C3 4979  14.974  13.129  10.370  0.1756 -0.1236  0.1345
  312loPI   PO4 4980  15.026  13.046   9.769  0.0517  0.0517  0.0793
  312loPI   GL1 4981  14.964  12.797   9.380 -0.1704  0.2042  0.1034
  312loPI   GL2 4982  15.124  12.408   9.362  0.0591 -0.2332 -0.0126
  312loPI   C1A 4983  15.126  12.794   8.925 -0.3761 -0.2840  0.1098
  312loPI   C2A 4984  15.293  12.772   8.481  0.2721 -0.2226 -0.1477
  312loPI   C3A 4985  15.319  12.658   8.119  0.2332  0.1376  0.0939
  312loPI   C4A 4986  15.677  12.571   7.824  0.1108 -0.0494 -0.0028
  312loPI   C5A 4987  15.793  12.519   7.340  0.2626 -0.0965 -0.0629
  312loPI   C6A 4988  15.795  12.632   6.903  0.0417 -0.0972  0.3675
  312loPI   C1B 4989  15.270  12.312   8.914 -0.0632 -0.0125  0.0063
  312loPI   C2B 4990  15.481  12.079   8.681  0.1139  0.0795  0.3487
  312loPI   C3B 4991  15.558  12.277   8.257 -0.1139  0.1594 -0.0985
  312loPI   C4B 4992  15.718  12.096   7.868 -0.0606 -0.1189 -0.1513
  313loPI    C1 4993  13.224   9.474   9.614  0.1015  0.5084  0.0319
  313loPI    C2 4994  13.414   9.424   9.963  0.1917 -0.1467 -0.0973
  313loPI    C3 4995  13.019   9.489   9.958  0.1755 -0.2204  0.1235
  313loPI   PO4 4996  13.413   9.500   9.478  0.1147  0.2184 -0.0783
  313loPI   GL1 4997  13.549   9.659   9.100 -0.1265 -0.0569 -0.3004
  313loPI   GL2 4998  13.691   9.892   9.302 -0.4037 -0.1866 -0.0164
  313loPI   C1A 4999  13.363   9.479   8.707 -0.1263  0.0866  0.1445
  313loPI   C2A 5000  13.501   9.442   8.286  0.0821  0.1573 -0.2910
  313loPI   C3A 5001  13.240   9.508   7.916  0.0356  0.0656  0.2389
  313loPI   C4A 5002  13.069   9.277   7.571  0.0456  0.0429 -0.3099
  313loPI   C5A 5003  13.162   8.885   7.493  0.1751  0.3581  0.3597
  313loPI   C6A 5004  13.057   8.560   7.241 -0.1713  0.1212  0.0533
  313loPI   C1B 5005  13.850   9.976   8.950 -0.0304  0.1908  0.3452
  313loPI   C2B 5006  13.724   9.830   8.427 -0.2022  0.3944  0.3483
  313loPI   C3B 5007  13.791   9.864   7.977  0.2070 -0.0884 -0.1719
  313loPI   C4B 5008  14.050  10.095   7.582  0.1315  0.1982  0.0603
  314loPI    C1 5009  13.817   7.126   9.928 -0.1169  0.2376 -0.1801
  314loPI    C2 5010  13.875   6.797  10.148  0.0507  0.3717 -0.0210
  314loPI    C3 5011  13.505   6.901  10.038 -0.0231  0.2411  0.1002
  314loPI   PO4 5012  13.888   7.073   9.732 -0.1742  0.0720  0.0391
  314loPI   GL1 5013  13.787   6.993   9.368  0.0991  0.0071  0.1246
  314loPI   GL2 5014  13.911   6.698   9.236  0.0519  0.0216  0.0167
  314loPI   C1A 5015  13.641   7.079   9.002  0.0998 -0.1179  0.0952
  314loPI   C2A 5016  13.500   7.156   8.605  0.3028 -0.1030 -0.4184
  314loPI   C3A 5017  13.433   7.128   8.159  0.1922  0.5003  0.1700
  314loPI   C4A 5018  13.243   7.289   7.772  0.1451 -0.0953  0.1794
  314loPI   C5A 5019  13.353   7.640   7.498 -0.0304  0.3315 -0.0923
  314loPI   C6A 5020  13.457   7.985   7.331  0.0566 -0.1442 -0.0639
  314loPI   C1B 5021  14.161   6.505   8.868  0.0148 -0.3265 -0.0136
  314loPI   C2B 5022  14.099   6.394   8.444  0.0919 -0.1910 -0.1410
  314loPI   C3B 5023  13.954   6.388   7.981  0.0206  0.1332 -0.2222
  314loPI   C4B 5024  13.755   6.400   7.650 -0.0135  0.0810 -0.0164
  315loPI    C1 5025  12.485  14.998   9.549 -0.0618 -0.0231 -0.2744
  315loPI    C2 5026  12.344  14.754   9.833  0.1750  0.0681 -0.0751
  315loPI    C3 5027  12.240  15.140   9.832 -0.2054 -0.0286 -0.3947
  315loPI   PO4 5028  12.485  14.871   9.414 -0.2134 -0.1332  0.1672
  315loPI   GL1 5029  12.519  14.755   9.008  0.2268 -0.2643 -0.0396
  315loPI   GL2 5030  12.941  14.689   8.996  0.2437  0.2591 -0.0814
  315loPI   C1A 5031  12.465  14.641   8.607 -0.0694  0.0994  0.0438
  315loPI   C2A 5032  12.636  14.526   8.239  0.3901 -0.0863 -0.3447
  315loPI   C3A 5033  12.607  14.519   7.791 -0.2057 -0.1734  0.1282
  315loPI   C4A 5034  12.578  14.447   7.386  0.0879 -0.0032 -0.2031
  315loPI   C5A 5035  12.557  14.301   7.036  0.2207  0.1880 -0.1906
  315loPI   C6A 5036  12.680  14.677   6.750  0.1598  0.4124 -0.0208
  315loPI   C1B 5037  13.017  14.331   8.827 -0.1733 -0.1762  0.1119
  315loPI   C2B 5038  12.937  14.165   8.421 -0.1379  0.4808 -0.0012
  315loPI   C3B 5039  12.964  14.173   8.038  0.0114 -0.0933 -0.1847
  315loPI   C4B 5040  12.987  14.317   7.648  0.1556  0.1692 -0.0011
  316loPI    C1 5041  10.701   2.042   9.146  0.1998  0.0950 -0.2601
  316loPI    C2 5042  10.888   2.289   9.399 -0.0317  0.0162 -0.0074
  316loPI    C3 5043  10.705   1.961   9.537  0.0128 -0.1374 -0.3037
  316loPI   PO4 5044  10.887   1.977   9.001 -0.1460  0.1902  0.1743
  316loPI   GL1 5045  10.894   2.065   8.610 -0.0538 -0.1992 -0.1010
  316loPI   GL2 5046  10.642   2.265   8.585  0.0014 -0.2144 -0.0105
  316loPI   C1A 5047  11.138   2.341   8.486 -0.1537  0.2541 -0.1134
  316loPI   C2A 5048  11.187   2.251   8.036  0.2662 -0.0255 -0.0638
  316loPI   C3A 5049  11.254   2.375   7.686 -0.1892 -0.0230 -0.3868
  316loPI   C4A 5050  11.178   2.482   7.353 -0.1759  0.0465  0.0925
  316loPI   C5A 5051  10.916   2.317   7.064  0.0889 -0.2010  0.0396
  316loPI   C6A 5052  10.854   2.004   6.719  0.0937  0.2841 -0.0502
  316loPI   C1B 5053  10.776   2.592   8.283  0.0855  0.2321  0.1737
  316loPI   C2B 5054  10.910   2.730   7.920  0.0065 -0.2586  0.0026
  316loPI   C3B 5055  11.055   2.964   7.444  0.0275 -0.0138  0.0609
  316loPI   C4B 5056  10.884   2.793   6.964  0.0985 -0.1979  0.0362
  317loPI    C1 5057   6.281   9.790  10.206 -0.0598  0.1700  0.1219
  317loPI    C2 5058   6.382   9.476  10.432 -0.0829  0.0938  0.0272
  317loPI    C3 5059   6.507   9.843  10.532  0.0800  0.0335  0.0486
  317loPI   PO4 5060   6.113   9.662  10.041 -0.1063 -0.1916 -0.3456
  317loPI   GL1 5061   5.872   9.702   9.604  0.0558 -0.3261  0.0622
  317loPI   GL2 5062   5.592   9.695   9.491  0.4150  0.0118 -0.0640
  317loPI   C1A 5063   6.119   9.796   9.337  0.0253 -0.0155  0.0089
  317loPI   C2A 5064   5.930   9.733   8.844 -0.2974  0.2339  0.0178
  317loPI   C3A 5065   5.890   9.529   8.440 -0.3242  0.2970 -0.0303
  317loPI   C4A 5066   5.889   9.265   8.085 -0.2128  0.2583  0.1091
  317loPI   C5A 5067   6.153   9.526   7.683  0.0837  0.1319 -0.0507
  317loPI   C6A 5068   6.504   9.576   7.270  0.0623 -0.0580  0.1492
  317loPI   C1B 5069   5.444   9.767   9.165 -0.2744 -0.0231 -0.2173
  317loPI   C2B 5070   5.468   9.753   8.669 -0.2389 -0.3290  0.1453
  317loPI   C3B 5071   5.495   9.742   8.220 -0.1303  0.1680 -0.1899
  317loPI   C4B 5072   5.718   9.748   7.848  0.1184 -0.3690  0.0019
  318loPI    C1 5073   3.687   3.315   9.540  0.0678  0.1276  0.1025
  318loPI    C2 5074   3.984   3.256   9.801  0.2457 -0.0747 -0.1406
  318loPI    C3 5075   3.670   3.008   9.796  0.0972  0.1047  0.0770
  318loPI   PO4 5076   3.806   3.302   9.286 -0.0490 -0.3284  0.2786
  318loPI   GL1 5077   4.120   3.159   9.073 -0.1095 -0.0452 -0.0604
  318loPI   GL2 5078   4.398   3.351   8.986  0.3075  0.0711 -0.2835
  318loPI   C1A 5079   3.873   3.193   8.609  0.2489  0.1469  0.1206
  318loPI   C2A 5080   3.745   3.280   8.230 -0.0123 -0.2221  0.2230
  318loPI   C3A 5081   3.705   3.425   7.755  0.2125 -0.1321 -0.0411
  318loPI   C4A 5082   3.568   3.384   7.363  0.0488  0.1736  0.4703
  318loPI   C5A 5083   3.253   3.418   6.978  0.2040  0.1122 -0.1441
  318loPI   C6A 5084   3.181   3.422   6.494 -0.3174  0.0138 -0.3096
  318loPI   C1B 5085   4.304   3.425   8.556 -0.0357  0.0117  0.1383
  318loPI   C2B 5086   4.304   3.424   8.183 -0.0579 -0.1495  0.0998
  318loPI   C3B 5087   4.242   3.528   7.891 -0.0562  0.4775 -0.0247
  318loPI   C4B 5088   4.157   3.454   7.467 -0.1858  0.2953 -0.2608
  319loPI    C1 5089   0.508   4.002  10.360 -0.0365 -0.1930  0.0894
  319loPI    C2 5090   0.857   4.091  10.533 -0.1289 -0.0986  0.2301
  319loPI    C3 5091   0.602   3.842  10.713 -0.0719 -0.2849  0.0574
  319loPI   PO4 5092   0.535   3.992  10.022 -0.0575  0.0038 -0.1823
  319loPI   GL1 5093   0.609   3.991   9.580 -0.0144 -0.2125  0.1341
  319loPI   GL2 5094   0.591   4.254   9.561  0.2928  0.0931  0.0107
  319loPI   C1A 5095   0.557   3.717   9.183  0.4167 -0.1781 -0.3121
  319loPI   C2A 5096   0.572   3.431   8.791 -0.1209  0.1665 -0.0595
  319loPI   C3A 5097   0.535   3.376   8.402 -0.2283  0.0484 -0.3490
  319loPI   C4A 5098   0.589   3.299   8.071  0.4373  0.1938 -0.2034
  319loPI   C5A 5099   0.703   3.241   7.553  0.0194  0.1969 -0.0942
  319loPI   C6A 5100   0.958   3.134   7.240 -0.3421 -0.1339  0.5249
  319loPI   C1B 5101   0.695   4.260   9.093  0.0287  0.0912  0.1748
  319loPI   C2B 5102   0.757   4.187   8.726 -0.1093  0.0685  0.1828
  319loPI   C3B 5103   0.839   4.210   8.271 -0.1779  0.0245 -0.0317
  319loPI   C4B 5104   0.787   4.001   7.885  0.1759 -0.0722 -0.2810
  320loPI    C1 5105  16.674   5.401   9.946  0.1191 -0.0773  0.1539
  320loPI    C2 5106  16.480   5.380  10.295  0.0781  0.1635  0.1473
  320loPI    C3 5107  16.772   5.119  10.212 -0.2166 -0.1815  0.1713
  320loPI   PO4 5108  16.699   5.660   9.940  0.1479 -0.4855 -0.1774
  320loPI   GL1 5109  16.741   5.711   9.512  0.0110 -0.1597  0.0323
  320loPI   GL2 5110  16.420   5.674   9.470  0.0301 -0.3140 -0.2827
  320loPI   C1A 5111  16.662   5.881   8.993  0.1136  0.2733  0.1043
  320loPI   C2A 5112  16.590   5.904   8.531  0.1259  0.1705  0.1865
  320loPI   C3A 5113  16.531   6.189   8.236 -0.2191 -0.1651 -0.0240
  320loPI   C4A 5114  16.204   6.086   7.911  0.3604 -0.0341  0.0674
  320loPI   C5A 5115  16.176   6.284   7.528  0.2958 -0.1165  0.0152
  320loPI   C6A 5116  16.329   6.283   7.143  0.2059 -0.0466 -0.4014
  320loPI   C1B 5117  16.360   5.457   9.038 -0.4818 -0.2280  0.1752
  320loPI   C2B 5118  16.379   5.387   8.655 -0.0090 -0.1175 -0.1970
  320loPI   C3B 5119  16.300   5.559   8.228  0.1977  0.0732 -0.2632
  320loPI   C4B 5120  16.181   5.537   7.757 -0.0261  0.2157 -0.2607
  321loPI    C1 5121   6.538  16.621   9.160 -0.0496 -0.0928  0.0869
  321loPI    C2 5122   6.152  16.593   9.060 -0.0412 -0.3302  0.1154
  321loPI    C3 5123   6.255  16.672   9.438 -0.0617 -0.1816  0.0909
  321loPI   PO4 5124   6.664  16.568   8.905  0.0728 -0.1330 -0.2330
  321loPI   GL1 5125   6.334  16.640   8.604  0.2878 -0.0383 -0.1804
  321loPI   GL2 5126   6.617  16.621   8.432  0.0410  0.0748  0.0015
  321loPI   C1A 5127   5.977  16.951   8.600 -0.1896  0.1462  0.0935
  321loPI   C2A 5128   5.932  16.941   8.192  0.0449  0.1939 -0.2088
  321loPI   C3A 5129   5.859  16.751   7.896 -0.0134  0.0763 -0.1418
  321loPI   C4A 5130   5.711  16.957   7.548  0.2133  0.2865 -0.2103
  321loPI   C5A 5131   5.878  16.899   7.178 -0.2249  0.0417  0.2356
  321loPI   C6A 5132   6.110  17.086   6.929 -0.1248  0.0775  0.0636
  321loPI   C1B 5133   6.322  16.717   8.012 -0.2596  0.2671 -0.0473
  321loPI   C2B 5134   6.230  16.796   7.536 -0.1003 -0.0796 -0.1946
  321loPI   C3B 5135   6.368  16.665   7.157  0.0174  0.0174 -0.3870
  321loPI   C4B 5136   6.523  16.466   6.812  0.3383  0.1628  0.0579
  322loPI    C1 5137   3.102   3.327   9.451  0.1080  0.0589  0.1128
  322loPI    C2 5138   2.973   3.106   9.759  0.0150 -0.2039 -0.1110
  322loPI    C3 5139   3.292   3.343   9.803 -0.0065 -0.2274  0.1908
  322loPI   PO4 5140   3.184   3.174   9.252  0.2182 -0.1681 -0.3705
  322loPI   GL1 5141   3.242   3.308   8.982 -0.2135 -0.0251 -0.2548
  322loPI   GL2 5142   3.458   3.614   9.110  0.0458 -0.3052 -0.1541
  322loPI   C1A 5143   3.436   3.383   8.657 -0.0174  0.2914 -0.1932
  322loPI   C2A 5144   3.264   3.360   8.159  0.1442  0.4446 -0.0532
  322loPI   C3A 5145   3.215   3.425   7.747 -0.0231  0.2267 -0.0180
  322loPI   C4A 5146   3.011   3.270   7.385 -0.1045  0.0753  0.1706
  322loPI   C5A 5147   2.832   2.858   7.227  0.1329  0.1939  0.1222
  322loPI   C6A 5148   2.635   2.822   6.847  0.1999 -0.2655 -0.1465
  322loPI   C1B 5149   3.302   3.952   8.861 -0.3753  0.0925 -0.2384
  322loPI   C2B 5150   3.242   4.124   8.351 -0.0471 -0.1060  0.0640
  322loPI   C3B 5151   3.201   4.079   7.900  0.4883 -0.1118 -0.3323
  322loPI   C4B 5152   3.449   3.865   7.568 -0.1238  0.0928 -0.0695
  323loPI    C1 5153  18.346   4.765   9.675 -0.1338 -0.0343  0.3043
  323loPI    C2 5154  18.475   4.387   9.667 -0.2284 -0.0633  0.1116
  323loPI    C3 5155  18.632   4.645   9.928 -0.0520 -0.1951  0.1379
  323loPI   PO4 5156  18.443   4.811   9.423 -0.1347 -0.3753  0.1217
  323loPI   GL1 5157  18.271   5.014   9.091  0.1322  0.2940  0.2624
  323loPI   GL2 5158  17.952   5.046   9.276 -0.0572 -0.1683  0.2611
  323loPI   C1A 5159  18.609   5.031   8.782 -0.0838 -0.1792  0.0140
  323loPI   C2A 5160  18.609   4.825   8.402  0.2618  0.1913  0.1356
  323loPI   C3A 5161  18.651   4.742   7.945 -0.0182  0.1583 -0.0826
  323loPI   C4A 5162  18.195   4.714   7.789 -0.1546 -0.0028  0.0922
  323loPI   C5A 5163  17.853   4.632   7.773  0.0646 -0.0690  0.0513
  323loPI   C6A 5164  17.446   4.751   7.567 -0.2203 -0.2678 -0.1103
  323loPI   C1B 5165  17.670   5.194   8.969 -0.0173 -0.0577 -0.1050
  323loPI   C2B 5166  17.687   5.275   8.592 -0.4206 -0.0412  0.0050
  323loPI   C3B 5167  17.491   5.452   8.236 -0.0590 -0.1061  0.3738
  323loPI   C4B 5168  17.571   5.668   7.787  0.2959 -0.0595  0.4190
  324loPI    C1 5169   5.642  17.313   9.484  0.0120  0.0434 -0.1080
  324loPI    C2 5170   5.359  17.458   9.728  0.0014  0.0109 -0.1010
  324loPI    C3 5171   5.671  17.259   9.879  0.0662  0.1105 -0.1029
  324loPI   PO4 5172   5.597  17.413   9.244  0.0242 -0.0976 -0.1651
  324loPI   GL1 5173   5.622  17.665   8.919  0.0561  0.1329  0.2131
  324loPI   GL2 5174   5.573  17.898   8.810  0.2246  0.0142  0.3418
  324loPI   C1A 5175   5.660  17.473   8.549 -0.2920 -0.0882 -0.0531
  324loPI   C2A 5176   5.689  17.437   8.033 -0.1392  0.0667  0.1825
  324loPI   C3A 5177   5.604  17.398   7.689  0.1875  0.1777  0.1057
  324loPI   C4A 5178   5.606  17.406   7.231 -0.3826 -0.0283  0.1492
  324loPI   C5A 5179   5.782  17.489   6.866  0.0616  0.2189  0.1284
  324loPI   C6A 5180   5.940  17.851   6.664 -0.0023 -0.1102 -0.2489
  324loPI   C1B 5181   5.463  17.886   8.352  0.1752 -0.0598  0.1991
  324loPI   C2B 5182   5.379  17.904   7.916 -0.1807 -0.2902  0.1077
  324loPI   C3B 5183   5.468  17.885   7.520 -0.2442  0.2208 -0.0170
  324loPI   C4B 5184   5.619  17.957   7.040 -0.0876  0.1720  0.4144
  325loPI    C1 5185  14.709   2.935  10.038  0.0564 -0.0733 -0.0771
  325loPI    C2 5186  14.507   3.161  10.299 -0.0597 -0.0743 -0.1654
  325loPI    C3 5187  14.873   3.028  10.391 -0.0571  0.0132 -0.0467
  325loPI   PO4 5188  14.580   3.036   9.808  0.1588 -0.0197  0.1526
  325loPI   GL1 5189  14.691   3.093   9.420 -0.2086 -0.1297  0.3094
  325loPI   GL2 5190  15.016   3.182   9.419 -0.3420 -0.0650 -0.3245
  325loPI   C1A 5191  14.361   3.101   8.947 -0.1903 -0.0582 -0.0654
  325loPI   C2A 5192  14.254   3.433   8.700 -0.1837 -0.0456  0.4937
  325loPI   C3A 5193  14.009   3.659   8.529 -0.1124  0.0255 -0.0818
  325loPI   C4A 5194  13.945   3.863   8.053 -0.0565  0.2661  0.1937
  325loPI   C5A 5195  14.030   4.105   7.666  0.1785  0.0552  0.1828
  325loPI   C6A 5196  14.003   4.536   7.437 -0.3567  0.1521 -0.0610
  325loPI   C1B 5197  15.157   2.654   9.164 -0.1480 -0.1879  0.0517
  325loPI   C2B 5198  14.930   2.358   8.874  0.1734 -0.0885  0.3397
  325loPI   C3B 5199  14.550   2.073   8.837 -0.1971  0.0065  0.0023
  325loPI   C4B 5200  14.467   2.088   8.351  0.2486  0.4374  0.3295
  326loPI    C1 5201   0.986  13.827   9.967  0.0945  0.2344  0.1217
  326loPI    C2 5202   1.071  13.949  10.339  0.1998  0.0224  0.1685
  326loPI    C3 5203   0.867  13.609  10.281  0.2569  0.0110  0.0305
  326loPI   PO4 5204   0.796  13.920   9.814  0.2187 -0.0052 -0.0033
  326loPI   GL1 5205   0.614  13.717   9.502  0.3039 -0.2282 -0.1084
  326loPI   GL2 5206   0.869  13.476   9.472 -0.4525 -0.0233  0.2161
  326loPI   C1A 5207   0.507  13.480   9.136  0.0208 -0.3925  0.0745
  326loPI   C2A 5208   0.348  13.380   8.737 -0.1588 -0.1068 -0.0825
  326loPI   C3A 5209   0.402  13.277   8.398  0.6818 -0.0071 -0.0792
  326loPI   C4A 5210   0.480  13.186   8.047 -0.0780  0.1932 -0.1466
  326loPI   C5A 5211   0.509  12.966   7.748 -0.0216 -0.2215 -0.0632
  326loPI   C6A 5212   0.383  12.635   7.408  0.2079  0.1923 -0.0370
  326loPI   C1B 5213   1.004  13.361   9.041  0.1042  0.0412 -0.0503
  326loPI   C2B 5214   0.812  13.219   8.657  0.2593  0.1099 -0.0043
  326loPI   C3B 5215   0.902  13.361   8.321  0.4189 -0.1135  0.1595
  326loPI   C4B 5216   1.096  13.343   7.975  0.2139 -0.3775  0.0048
  327loPI    C1 5217   2.222  17.575   9.898  0.1168  0.1718 -0.2460
  327loPI    C2 5218   2.538  17.475  10.121 -0.0639  0.0825 -0.0266
  327loPI    C3 5219   2.503  17.848   9.981  0.1638  0.0789 -0.0970
  327loPI   PO4 5220   2.205  17.418   9.672  0.1429  0.0462  0.3467
  327loPI   GL1 5221   2.329  17.405   9.174  0.2761  0.1485 -0.2783
  327loPI   GL2 5222   2.435  17.710   9.104  0.0255 -0.0822  0.0653
  327loPI   C1A 5223   2.320  16.949   8.906  0.0070  0.1240 -0.4064
  327loPI   C2A 5224   2.068  16.893   8.478  0.4118 -0.3554 -0.0568
  327loPI   C3A 5225   1.914  17.001   8.105 -0.3536  0.1940 -0.1521
  327loPI   C4A 5226   1.943  16.964   7.625  0.0338 -0.0188  0.2440
  327loPI   C5A 5227   2.070  16.588   7.425  0.1289 -0.0565 -0.0470
  327loPI   C6A 5228   1.933  16.194   7.375 -0.2216 -0.2761  0.1009
  327loPI   C1B 5229   2.297  17.930   8.821 -0.4028  0.1442  0.3081
  327loPI   C2B 5230   2.044  17.757   8.454 -0.0129 -0.0073  0.4001
  327loPI   C3B 5231   1.911  17.623   8.020 -0.0302  0.0660  0.1023
  327loPI   C4B 5232   1.574  17.313   7.796  0.1994  0.4064 -0.1869
  328loPI    C1 5233   3.606   8.232  10.431  0.4484 -0.1519  0.0637
  328loPI    C2 5234   3.511   7.844  10.439 -0.0199 -0.0430  0.0619
  328loPI    C3 5235   3.273   8.112  10.616  0.0526  0.2916 -0.3321
  328loPI   PO4 5236   3.782   8.178  10.194  0.2600 -0.0205  0.1509
  328loPI   GL1 5237   3.892   8.179   9.773 -0.1997 -0.2143 -0.0658
  328loPI   GL2 5238   3.598   8.421   9.719 -0.0639 -0.2780 -0.2999
  328loPI   C1A 5239   3.861   8.218   9.328  0.1492  0.0732 -0.4778
  328loPI   C2A 5240   3.890   8.206   8.825  0.0296  0.0581 -0.1952
  328loPI   C3A 5241   3.762   8.295   8.400 -0.0952  0.2468 -0.3691
  328loPI   C4A 5242   3.505   8.528   8.078  0.0659  0.0016 -0.1948
  328loPI   C5A 5243   3.119   8.504   7.960  0.0186 -0.0588  0.3427
  328loPI   C6A 5244   2.710   8.514   7.862 -0.0042  0.2837 -0.0291
  328loPI   C1B 5245   3.503   8.584   9.453  0.1377  0.0905 -0.0057
  328loPI   C2B 5246   3.566   8.520   9.057 -0.2253 -0.1454  0.0388
  328loPI   C3B 5247   3.622   8.663   8.710  0.2771 -0.1974  0.0393
  328loPI   C4B 5248   3.860   8.818   8.276 -0.1094  0.1893 -0.1279
  329loPI    C1 5249  16.424  12.018  10.226  0.2486  0.1248  0.0743
  329loPI    C2 5250  16.817  12.085  10.189  0.2373  0.0385 -0.2294
  329loPI    C3 5251  16.565  12.392  10.241  0.3187  0.1166 -0.2923
  329loPI   PO4 5252  16.337  11.876  10.061 -0.2065 -0.3698 -0.5214
  329loPI   GL1 5253  16.254  11.553   9.777 -0.0960  0.1387  0.2417
  329loPI   GL2 5254  16.125  11.814   9.669  0.2275  0.1692 -0.1705
  329loPI   C1A 5255  16.228  11.230   9.432  0.3297  0.0730  0.1197
  329loPI   C2A 5256  16.427  11.120   9.082 -0.1681 -0.1231  0.0058
  329loPI   C3A 5257  16.434  11.081   8.727 -0.1696 -0.2562 -0.1483
  329loPI   C4A 5258  16.606  10.961   8.404 -0.2292 -0.1057  0.1888
  329loPI   C5A 5259  16.617  11.003   8.024  0.1323  0.2686  0.2881
  329loPI   C6A 5260  16.453  10.974   7.603  0.2019 -0.4974  0.0116
  329loPI   C1B 5261  16.421  11.834   9.378  0.1700 -0.0643  0.2806
  329loPI   C2B 5262  16.556  11.981   8.964  0.1685 -0.0603  0.0950
  329loPI   C3B 5263  16.896  11.901   8.659 -0.1173  0.2502  0.1809
  329loPI   C4B 5264  17.029  12.000   8.266  0.1992  0.3658  0.2617
  330loPI    C1 5265   9.002  12.620   9.268 -0.0250  0.0758 -0.2194
  330loPI    C2 5266   8.746  12.924   9.220 -0.1118  0.0125 -0.1593
  330loPI    C3 5267   8.700  12.670   9.526 -0.0389 -0.0606 -0.2087
  330loPI   PO4 5268   9.072  12.583   8.992 -0.3371  0.0011  0.0060
  330loPI   GL1 5269   9.063  12.668   8.616  0.5226 -0.3058  0.0327
  330loPI   GL2 5270   9.404  12.596   8.477  0.4065  0.1305 -0.4512
  330loPI   C1A 5271   8.884  12.769   8.147 -0.1603 -0.1084 -0.0548
  330loPI   C2A 5272   8.733  12.777   7.720  0.3579 -0.2761 -0.1198
  330loPI   C3A 5273   8.779  12.878   7.280 -0.0998  0.1693  0.1826
  330loPI   C4A 5274   8.900  13.136   7.019 -0.0138  0.3641 -0.2986
  330loPI   C5A 5275   8.887  13.531   6.739 -0.0180 -0.1550 -0.1595
  330loPI   C6A 5276   8.953  13.860   6.798 -0.0134  0.1761 -0.2509
  330loPI   C1B 5277   9.321  12.374   8.137  0.2627 -0.0661  0.0313
  330loPI   C2B 5278   9.213  12.423   7.773 -0.0568  0.0310 -0.2786
  330loPI   C3B 5279   9.110  12.525   7.398  0.1391 -0.0479  0.3248
  330loPI   C4B 5280   9.059  12.510   6.933 -0.1300  0.3485 -0.1805
  331loPI    C1 5281   4.025   5.876  10.173 -0.1140  0.0012  0.0374
  331loPI    C2 5282   4.300   5.722  10.420 -0.1154  0.0107  0.0450
  331loPI    C3 5283   3.926   5.783  10.549 -0.1846 -0.2298 -0.0362
  331loPI   PO4 5284   4.081   5.919   9.856 -0.0139  0.3899  0.0156
  331loPI   GL1 5285   4.000   6.011   9.470  0.3461 -0.0330  0.3323
  331loPI   GL2 5286   3.958   6.370   9.445 -0.1447  0.4962 -0.1613
  331loPI   C1A 5287   4.121   6.081   8.974 -0.2893 -0.0633 -0.0146
  331loPI   C2A 5288   4.237   6.260   8.685  0.0031 -0.2208 -0.0659
  331loPI   C3A 5289   4.055   6.316   8.326  0.2084  0.0275  0.1418
  331loPI   C4A 5290   3.988   6.390   7.890  0.2050 -0.1821  0.3380
  331loPI   C5A 5291   3.772   6.517   7.621  0.2231 -0.1589 -0.0016
  331loPI   C6A 5292   3.557   6.914   7.505 -0.0672  0.0031  0.0912
  331loPI   C1B 5293   3.955   6.642   9.019 -0.0397 -0.1251 -0.0720
  331loPI   C2B 5294   3.860   6.702   8.640 -0.3453 -0.0029  0.4018
  331loPI   C3B 5295   3.767   6.755   8.196  0.1031 -0.0982  0.1760
  331loPI   C4B 5296   3.934   6.931   7.845 -0.4296 -0.2582  0.0193
  332loPI    C1 5297   0.649   7.573  10.481 -0.0872 -0.3505 -0.0046
  332loPI    C2 5298   0.917   7.513  10.190  0.2379  0.0408  0.2023
  332loPI    C3 5299   0.830   7.218  10.446  0.0746 -0.2528 -0.1803
  332loPI   PO4 5300   0.492   7.810  10.309  0.1857  0.3373 -0.3002
  332loPI   GL1 5301   0.358   8.168  10.079  0.0381  0.2034  0.0246
  332loPI   GL2 5302   0.776   8.104  10.099 -0.2498 -0.1641 -0.5461
  332loPI   C1A 5303   0.273   8.254   9.564 -0.2945 -0.2401 -0.1745
  332loPI   C2A 5304   0.192   8.357   9.138  0.1723 -0.1404  0.0929
  332loPI   C3A 5305   0.381   8.310   8.654  0.0195 -0.0546  0.3117
  332loPI   C4A 5306   0.395   8.367   8.282  0.2846  0.3903  0.2784
  332loPI   C5A 5307   0.274   8.135   7.953 -0.2052  0.1781 -0.0096
  332loPI   C6A 5308   0.426   7.926   7.681  0.1951 -0.1673  0.1858
  332loPI   C1B 5309   0.733   7.771   9.723 -0.0504 -0.4020 -0.4086
  332loPI   C2B 5310   0.450   7.733   9.365 -0.0232  0.0124 -0.0650
  332loPI   C3B 5311   0.123   7.860   9.256  0.3863  0.1145 -0.1705
  332loPI   C4B 5312  -0.132   7.656   8.840 -0.0085 -0.0241 -0.3636
  333loPI    C1 5313   2.493  16.469   9.879 -0.1955  0.0235 -0.1959
  333loPI    C2 5314   2.415  16.587  10.253  0.1200  0.1529 -0.1677
  333loPI    C3 5315   2.790  16.597  10.114  0.0172  0.0300 -0.4628
  333loPI   PO4 5316   2.291  16.589   9.703  0.1000  0.1648  0.0988
  333loPI   GL1 5317   2.155  16.960   9.435  0.0481 -0.3126 -0.1814
  333loPI   GL2 5318   2.499  16.946   9.398  0.2177 -0.2525 -0.0965
  333loPI   C1A 5319   1.750  16.863   9.075 -0.3628 -0.0315  0.2241
  333loPI   C2A 5320   1.596  16.713   8.643 -0.0551 -0.0135  0.0880
  333loPI   C3A 5321   1.493  17.028   8.402 -0.1994  0.0046 -0.2153
  333loPI   C4A 5322   1.281  16.874   8.059  0.0250 -0.4821  0.2878
  333loPI   C5A 5323   1.264  16.764   7.701 -0.2798  0.1267  0.1018
  333loPI   C6A 5324   1.455  16.608   7.317  0.1304 -0.0235  0.0084
  333loPI   C1B 5325   2.820  16.804   9.000  0.1960 -0.0152  0.0739
  333loPI   C2B 5326   3.025  16.686   8.546  0.1176  0.0685  0.0055
  333loPI   C3B 5327   2.950  16.658   8.175 -0.0083 -0.0789  0.0318
  333loPI   C4B 5328   3.017  16.562   7.787 -0.3366 -0.0168  0.0156
  334loPI    C1 5329   6.483  17.254   9.559 -0.0464  0.3945 -0.0734
  334loPI    C2 5330   6.154  17.099   9.726  0.0229  0.3021 -0.0217
  334loPI    C3 5331   6.495  17.116   9.934  0.1699 -0.0263 -0.2291
  334loPI   PO4 5332   6.415  17.188   9.330 -0.0866  0.0788  0.1205
  334loPI   GL1 5333   6.454  17.037   8.850 -0.4498  0.2697  0.1016
  334loPI   GL2 5334   6.578  17.325   8.920 -0.0286  0.0756  0.4650
  334loPI   C1A 5335   6.541  17.101   8.378 -0.2876 -0.0379 -0.5069
  334loPI   C2A 5336   6.530  17.209   7.934  0.0885  0.3270  0.0594
  334loPI   C3A 5337   6.591  17.329   7.573  0.0585  0.1021  0.2399
  334loPI   C4A 5338   6.544  17.138   7.177  0.3996  0.0056  0.0669
  334loPI   C5A 5339   6.769  16.934   7.012  0.0111 -0.0671 -0.0050
  334loPI   C6A 5340   6.619  17.081   6.626  0.2175 -0.1065 -0.0589
  334loPI   C1B 5341   6.868  17.405   8.575  0.1245 -0.1360 -0.2704
  334loPI   C2B 5342   7.117  17.309   8.215  0.0737 -0.3261 -0.2142
  334loPI   C3B 5343   7.153  17.440   7.726 -0.0241 -0.1180 -0.0890
  334loPI   C4B 5344   6.938  17.862   7.669 -0.0576  0.1988 -0.1333
  335loPI    C1 5345   4.027   1.139   9.319 -0.0671  0.0045  0.1374
  335loPI    C2 5346   4.334   1.044   9.557 -0.2435 -0.1914  0.2914
  335loPI    C3 5347   3.994   1.181   9.716 -0.1487  0.2835  0.1027
  335loPI   PO4 5348   4.138   1.052   9.097 -0.0681  0.0222 -0.0920
  335loPI   GL1 5349   4.413   1.125   8.723 -0.0935 -0.2052  0.1319
  335loPI   GL2 5350   4.478   1.460   8.716 -0.0185  0.0770 -0.2755
  335loPI   C1A 5351   4.678   1.131   8.301 -0.2888 -0.3804 -0.0051
  335loPI   C2A 5352   4.614   1.218   7.846  0.4862 -0.0483  0.2970
  335loPI   C3A 5353   4.628   1.002   7.572 -0.2043  0.1875 -0.0763
  335loPI   C4A 5354   4.714   0.909   7.121  0.1159 -0.5170  0.2039
  335loPI   C5A 5355   4.947   0.669   6.712 -0.1195 -0.1115  0.1957
  335loPI   C6A 5356   4.943   0.597   6.309 -0.1994  0.0330 -0.0326
  335loPI   C1B 5357   4.404   1.559   8.281  0.1826  0.2651 -0.0624
  335loPI   C2B 5358   4.393   1.686   7.779 -0.1361  0.3363 -0.2337
  335loPI   C3B 5359   4.374   1.758   7.431  0.0672 -0.0034 -0.0149
  335loPI   C4B 5360   4.141   1.676   7.034 -0.2568  0.0918  0.0518
  336loPI    C1 5361  17.449  15.348   9.818 -0.3148 -0.0245  0.1573
  336loPI    C2 5362  17.710  15.456  10.101 -0.1496 -0.0268  0.0079
  336loPI    C3 5363  17.655  15.069  10.018 -0.2389 -0.0288  0.0741
  336loPI   PO4 5364  17.225  15.523   9.792  0.0413  0.2356  0.1774
  336loPI   GL1 5365  16.961  15.548   9.420  0.0495 -0.0565 -0.0899
  336loPI   GL2 5366  16.746  15.301   9.608  0.1363 -0.1342  0.1940
  336loPI   C1A 5367  16.944  15.621   8.926 -0.1666 -0.0679  0.3548
  336loPI   C2A 5368  16.875  15.579   8.463 -0.2293  0.2270 -0.2256
  336loPI   C3A 5369  16.888  15.643   8.014  0.1637 -0.1413 -0.1484
  336loPI   C4A 5370  16.786  15.659   7.596 -0.0826  0.0222  0.3226
  336loPI   C5A 5371  16.786  15.297   7.285  0.1552 -0.3340  0.2188
  336loPI   C6A 5372  17.059  15.247   6.861 -0.1585 -0.1314  0.2737
  336loPI   C1B 5373  16.501  15.281   9.142  0.0110 -0.0869 -0.2314
  336loPI   C2B 5374  16.458  15.173   8.650  0.0551 -0.1971 -0.0419
  336loPI   C3B 5375  16.576  15.261   8.208  0.1303  0.0159  0.0908
  336loPI   C4B 5376  16.258  15.420   7.806 -0.1156  0.3124 -0.1763
  337loPI    C1 5377   6.824   4.120   9.457  0.1482 -0.0765  0.0268
  337loPI    C2 5378   6.539   4.064   9.732 -0.0411 -0.0523 -0.1619
  337loPI    C3 5379   6.924   4.034   9.834 -0.1138 -0.2850  0.0517
  337loPI   PO4 5380   6.715   3.905   9.262 -0.1913  0.1055  0.1502
  337loPI   GL1 5381   6.654   3.794   8.905 -0.1041 -0.1722 -0.2924
  337loPI   GL2 5382   7.104   3.936   8.951  0.0289  0.3168 -0.0478
  337loPI   C1A 5383   6.788   4.077   8.532 -0.0242  0.0913 -0.2335
  337loPI   C2A 5384   6.759   4.125   8.142 -0.0866  0.0898  0.0852
  337loPI   C3A 5385   6.648   4.247   7.773  0.1641 -0.2387  0.0415
  337loPI   C4A 5386   6.690   4.338   7.395 -0.0458 -0.3984 -0.1561
  337loPI   C5A 5387   6.725   4.763   7.121  0.3874  0.1266 -0.1020
  337loPI   C6A 5388   6.656   5.260   7.246 -0.3115 -0.0865  0.4055
  337loPI   C1B 5389   7.270   3.922   8.514  0.2808 -0.0705 -0.3849
  337loPI   C2B 5390   7.165   3.824   8.041 -0.2238 -0.1551 -0.0153
  337loPI   C3B 5391   7.073   3.330   7.959  0.1628  0.4058 -0.2364
  337loPI   C4B 5392   7.066   3.004   7.618  0.1637  0.1816  0.0819
  338loPI    C1 5393  12.163   7.943  10.129 -0.0064  0.1371  0.0754
  338loPI    C2 5394  12.506   7.781  10.259 -0.0606 -0.1085 -0.0813
  338loPI    C3 5395  12.285   8.006  10.505  0.2087  0.0473  0.0224
  338loPI   PO4 5396  12.036   7.797   9.932  0.2441  0.1409  0.3067
  338loPI   GL1 5397  11.811   7.442   9.579  0.2324 -0.2069 -0.0412
  338loPI   GL2 5398  11.842   7.289   9.442 -0.2456 -0.2967 -0.2776
  338loPI   C1A 5399  11.878   7.702   9.163 -0.1907  0.2494  0.4562
  338loPI   C2A 5400  11.642   7.947   9.021  0.0649  0.1627 -0.0318
  338loPI   C3A 5401  11.554   8.263   8.704 -0.1938 -0.0237  0.2468
  338loPI   C4A 5402  11.730   8.202   8.293 -0.0824 -0.0023  0.5051
  338loPI   C5A 5403  11.872   8.110   7.937 -0.2337 -0.0152 -0.2753
  338loPI   C6A 5404  11.852   7.821   7.600 -0.1266  0.0815  0.3327
  338loPI   C1B 5405  12.008   7.206   9.043  0.4681 -0.0958  0.1560
  338loPI   C2B 5406  12.023   7.168   8.620 -0.2175 -0.1278 -0.0095
  338loPI   C3B 5407  12.117   6.960   8.176  0.0179 -0.0232  0.0283
  338loPI   C4B 5408  11.770   6.659   8.036 -0.0081 -0.1068 -0.0256
  339loPI    C1 5409   2.474  18.731   9.499  0.0457 -0.0176 -0.0845
  339loPI    C2 5410   2.400  18.868   9.867 -0.1078  0.0336 -0.1335
  339loPI    C3 5411   2.772  18.766   9.762 -0.0300  0.2039 -0.0263
  339loPI   PO4 5412   2.309  18.980   9.252 -0.1286 -0.0490 -0.1305
  339loPI   GL1 5413   2.363  19.031   8.772 -0.0357  0.1139  0.2515
  339loPI   GL2 5414   2.193  19.357   8.740 -0.2213 -0.1207  0.0700
  339loPI   C1A 5415   2.683  18.827   8.523 -0.2958 -0.2430 -0.0220
  339loPI   C2A 5416   2.474  18.506   8.205  0.6222  0.1202 -0.1050
  339loPI   C3A 5417   2.468  18.610   7.735 -0.0574 -0.0199  0.0651
  339loPI   C4A 5418   2.376  18.563   7.303  0.0754 -0.0867 -0.2653
  339loPI   C5A 5419   2.725  18.559   7.105  0.1819 -0.2467 -0.0418
  339loPI   C6A 5420   3.215  18.476   7.167  0.4066 -0.0912  0.0416
  339loPI   C1B 5421   2.133  19.287   8.395  0.1369  0.1528  0.1099
  339loPI   C2B 5422   2.071  19.330   8.008 -0.2904 -0.0814 -0.3045
  339loPI   C3B 5423   1.931  19.473   7.671  0.0366  0.1892 -0.0541
  339loPI   C4B 5424   1.749  19.659   7.364  0.1039 -0.0222  0.2407
  340loPI    C1 5425   9.369   5.361   9.838  0.0729  0.0326  0.0111
  340loPI    C2 5426   9.281   5.750   9.798  0.1135  0.0319 -0.0872
  340loPI    C3 5427   9.488   5.623  10.116  0.0160  0.0764 -0.0056
  340loPI   PO4 5428   9.479   5.325   9.527  0.0108 -0.1189 -0.1163
  340loPI   GL1 5429   9.694   5.361   9.199 -0.2257  0.0264 -0.1978
  340loPI   GL2 5430   9.831   5.579   9.168 -0.0286  0.0835 -0.1857
  340loPI   C1A 5431   9.527   5.315   8.839 -0.0061  0.2021  0.0625
  340loPI   C2A 5432   9.347   5.215   8.544 -0.0231 -0.0290 -0.2529
  340loPI   C3A 5433   9.275   5.071   8.104 -0.1419 -0.0279 -0.3207
  340loPI   C4A 5434   9.205   4.980   7.780  0.3619 -0.2552 -0.0326
  340loPI   C5A 5435   9.203   5.010   7.382  0.0754 -0.1696  0.4287
  340loPI   C6A 5436   9.014   4.760   6.956 -0.1047 -0.0673  0.1497
  340loPI   C1B 5437   9.958   5.729   8.802 -0.2541  0.1670 -0.0010
  340loPI   C2B 5438   9.950   5.873   8.391  0.2652  0.0257 -0.0156
  340loPI   C3B 5439   9.948   6.062   7.959  0.1397 -0.0706 -0.4123
  340loPI   C4B 5440   9.555   5.979   7.717 -0.0915  0.1649 -0.2542
  341loPI    C1 5441  11.150   7.308   9.972  0.0201 -0.0250  0.1480
  341loPI    C2 5442  10.929   6.983  10.045 -0.3060  0.2031  0.2008
  341loPI    C3 5443  11.246   7.064  10.274 -0.1073 -0.1749  0.0690
  341loPI   PO4 5444  11.125   7.373   9.704 -0.1367 -0.0455 -0.5407
  341loPI   GL1 5445  11.360   7.232   9.339  0.0141  0.1389 -0.2860
  341loPI   GL2 5446  11.406   7.466   9.093  0.0678  0.2230  0.2213
  341loPI   C1A 5447  11.399   6.885   9.194  0.3789  0.1070 -0.2153
  341loPI   C2A 5448  11.357   6.591   8.743  0.1005  0.2195 -0.0768
  341loPI   C3A 5449  11.416   6.468   8.362  0.0573  0.1305 -0.1979
  341loPI   C4A 5450  11.263   6.579   7.893 -0.2220 -0.1208  0.2304
  341loPI   C5A 5451  11.322   6.959   7.595 -0.2349  0.0558  0.0082
  341loPI   C6A 5452  11.465   7.014   7.245 -0.1922 -0.2796  0.0691
  341loPI   C1B 5453  11.636   7.439   8.765 -0.1700 -0.3600  0.0637
  341loPI   C2B 5454  11.799   7.612   8.361  0.1674  0.1711  0.0091
  341loPI   C3B 5455  12.059   7.420   8.087  0.1260  0.2760 -0.1146
  341loPI   C4B 5456  12.282   7.403   7.675  0.0291  0.2724  0.0309
  342loPI    C1 5457  17.326  15.899  10.122 -0.1507 -0.1726 -0.0632
  342loPI    C2 5458  17.415  16.186  10.386 -0.5221 -0.1243  0.0147
  342loPI    C3 5459  17.427  15.802  10.496  0.0989 -0.1555 -0.1241
  342loPI   PO4 5460  17.171  15.977   9.986  0.0180 -0.2411 -0.2592
  342loPI   GL1 5461  16.947  16.072   9.602  0.3800 -0.0550 -0.1137
  342loPI   GL2 5462  17.313  15.968   9.482 -0.1854 -0.1044 -0.2204
  342loPI   C1A 5463  16.779  16.135   9.184 -0.0724 -0.1605 -0.0858
  342loPI   C2A 5464  16.821  16.053   8.700  0.4268  0.0447  0.1404
  342loPI   C3A 5465  16.957  16.124   8.264 -0.0686  0.1452 -0.1407
  342loPI   C4A 5466  17.159  16.315   7.977 -0.0649 -0.0680 -0.1760
  342loPI   C5A 5467  17.357  16.440   7.591  0.2461  0.3088  0.1311
  342loPI   C6A 5468  17.667  16.260   7.328 -0.3139 -0.0914  0.1209
  342loPI   C1B 5469  17.334  16.005   9.087  0.1691 -0.1633 -0.1429
  342loPI   C2B 5470  17.345  15.876   8.647  0.2575  0.0395 -0.0097
  342loPI   C3B 5471  17.380  15.883   8.123  0.0491  0.2047  0.1699
  342loPI   C4B 5472  17.346  15.932   7.753  0.0064  0.1377 -0.1562
  343loPI    C1 5473   2.375   8.723  10.382 -0.1107 -0.1239 -0.2061
  343loPI    C2 5474   2.702   8.905  10.240  0.0092 -0.0885  0.1079
  343loPI    C3 5475   2.660   8.846  10.633 -0.3222 -0.1746  0.0633
  343loPI   PO4 5476   2.222   8.797  10.206 -0.0258  0.1012  0.0211
  343loPI   GL1 5477   2.109   8.677   9.757  0.1873 -0.1251 -0.0210
  343loPI   GL2 5478   1.934   9.059   9.775  0.2544 -0.3473 -0.1638
  343loPI   C1A 5479   2.176   8.797   9.347  0.0305 -0.0450 -0.0752
  343loPI   C2A 5480   2.062   8.881   8.810  0.0900  0.1766  0.2001
  343loPI   C3A 5481   1.997   8.668   8.392 -0.1203  0.0554  0.1338
  343loPI   C4A 5482   1.714   8.750   8.054  0.0047 -0.1604 -0.0944
  343loPI   C5A 5483   1.686   8.680   7.707 -0.1191  0.1252 -0.0566
  343loPI   C6A 5484   1.364   8.551   7.527 -0.0187  0.0911  0.0601
  343loPI   C1B 5485   1.956   9.282   9.373 -0.0898  0.1729 -0.2274
  343loPI   C2B 5486   1.902   9.324   8.986 -0.3983  0.0342  0.0457
  343loPI   C3B 5487   1.795   9.356   8.639  0.0324  0.1209 -0.0085
  343loPI   C4B 5488   1.565   9.075   8.401  0.3685  0.0146  0.0580
  344loPI    C1 5489  10.825   7.892   9.769 -0.0470  0.0616 -0.0559
  344loPI    C2 5490  11.089   7.802  10.055  0.0142  0.0422 -0.1181
  344loPI    C3 5491  10.803   8.073  10.125 -0.0644 -0.0732  0.0122
  344loPI   PO4 5492  10.788   7.706   9.608  0.1768  0.1009  0.0421
  344loPI   GL1 5493  10.887   7.487   9.247 -0.1929 -0.0202 -0.0771
  344loPI   GL2 5494  10.537   7.526   9.239  0.1564  0.0152 -0.0831
  344loPI   C1A 5495  10.970   7.476   8.817  0.0066 -0.0966  0.0832
  344loPI   C2A 5496  11.182   7.412   8.399  0.3369  0.3403 -0.1343
  344loPI   C3A 5497  11.309   7.442   7.821  0.1036 -0.2122 -0.2780
  344loPI   C4A 5498  11.512   7.467   7.416 -0.0861  0.0868  0.2471
  344loPI   C5A 5499  11.172   7.637   7.188  0.2589  0.4385 -0.0882
  344loPI   C6A 5500  11.054   7.430   6.814  0.0830  0.0545  0.1974
  344loPI   C1B 5501  10.418   7.453   8.831  0.0275  0.1140 -0.0957
  344loPI   C2B 5502  10.581   7.695   8.491 -0.1735 -0.1634 -0.0803
  344loPI   C3B 5503  10.893   7.751   8.111  0.0972  0.1343  0.1409
  344loPI   C4B 5504  10.852   7.867   7.737  0.1583  0.1463  0.0189
  345loPI    C1 5505  14.524  12.697   9.909 -0.0385 -0.2322 -0.0650
  345loPI    C2 5506  14.770  12.689  10.223  0.0530 -0.0731 -0.1313
  345loPI    C3 5507  14.400  12.541  10.256 -0.0612  0.2608  0.1575
  345loPI   PO4 5508  14.595  12.576   9.674  0.0802  0.1186  0.1857
  345loPI   GL1 5509  14.548  12.335   9.456 -0.1936 -0.0618 -0.1732
  345loPI   GL2 5510  14.352  12.208   9.264  0.0287 -0.2692 -0.1233
  345loPI   C1A 5511  14.672  12.639   9.004  0.0457  0.2110  0.1495
  345loPI   C2A 5512  14.818  12.618   8.536  0.0447  0.0073 -0.0991
  345loPI   C3A 5513  14.843  12.612   8.116  0.0042  0.0452  0.0388
  345loPI   C4A 5514  15.053  12.524   7.701  0.1271 -0.0451 -0.0778
  345loPI   C5A 5515  15.007  12.665   7.375  0.3198  0.0132  0.1226
  345loPI   C6A 5516  15.285  12.881   7.199 -0.0890 -0.0106  0.1332
  345loPI   C1B 5517  14.296  12.361   8.811 -0.1910 -0.1525  0.1784
  345loPI   C2B 5518  14.425  12.188   8.411 -0.0351 -0.1583 -0.0060
  345loPI   C3B 5519  14.664  12.134   8.043  0.1076 -0.0515 -0.0535
  345loPI   C4B 5520  14.688  11.961   7.619  0.0075 -0.2729  0.0975
  346loPI    C1 5521  12.778   4.362  10.181 -0.3460  0.1131 -0.0213
  346loPI    C2 5522  12.617   4.000  10.128  0.0109 -0.0507 -0.0182
  346loPI    C3 5523  12.516   4.220  10.447 -0.0969 -0.2093  0.0584
  346loPI   PO4 5524  12.899   4.455   9.981 -0.1939  0.1520  0.3331
  346loPI   GL1 5525  12.877   4.457   9.497 -0.4973  0.0856  0.0416
  346loPI   GL2 5526  13.147   4.678   9.566  0.1552 -0.3183 -0.0453
  346loPI   C1A 5527  12.991   4.264   9.126 -0.0818 -0.1106 -0.0213
  346loPI   C2A 5528  13.030   4.009   8.746 -0.1068 -0.2424 -0.0994
  346loPI   C3A 5529  12.975   3.873   8.365 -0.2583 -0.4626 -0.0064
  346loPI   C4A 5530  12.888   4.191   7.994 -0.1045  0.0076 -0.2089
  346loPI   C5A 5531  13.000   4.086   7.642  0.0458  0.0973 -0.1997
  346loPI   C6A 5532  13.269   4.318   7.419  0.0813 -0.1392 -0.1046
  346loPI   C1B 5533  13.055   4.759   9.135 -0.0440  0.2256  0.0058
  346loPI   C2B 5534  12.919   4.746   8.737  0.4502 -0.2197 -0.0274
  346loPI   C3B 5535  12.918   4.653   8.317 -0.0916 -0.0755  0.4023
  346loPI   C4B 5536  12.945   4.659   7.857 -0.1715  0.1621 -0.2499
  347loPI    C1 5537  10.648  16.707   8.986 -0.0943 -0.0467  0.0649
  347loPI    C2 5538  10.262  16.686   8.884 -0.0511  0.1282 -0.1420
  347loPI    C3 5539  10.403  17.013   9.065  0.0306  0.1246 -0.1989
  347loPI   PO4 5540  10.843  16.727   8.855 -0.0391 -0.0369  0.0010
  347loPI   GL1 5541  10.800  16.534   8.440  0.3269 -0.1355  0.0366
  347loPI   GL2 5542  10.978  16.297   8.461  0.2636  0.0058  0.1207
  347loPI   C1A 5543  11.088  16.564   8.008  0.0014 -0.0366  0.1437
  347loPI   C2A 5544  11.022  16.757   7.569  0.0992  0.2032 -0.0542
  347loPI   C3A 5545  11.176  16.648   7.123 -0.0593  0.2045 -0.0989
  347loPI   C4A 5546  10.946  16.506   6.822  0.1339  0.0110  0.5066
  347loPI   C5A 5547  11.186  16.378   6.553  0.0273 -0.0341 -0.1332
  347loPI   C6A 5548  11.647  16.189   6.528  0.0112 -0.1068  0.3296
  347loPI   C1B 5549  10.838  16.120   8.071 -0.0782 -0.1563  0.1856
  347loPI   C2B 5550  10.905  16.174   7.697  0.1241 -0.0583 -0.1244
  347loPI   C3B 5551  10.867  16.044   7.275 -0.0819  0.0615 -0.2117
  347loPI   C4B 5552  11.099  15.652   7.279  0.0862  0.2209  0.2074
  348loPI    C1 5553   6.459   2.231   9.180  0.0735 -0.0860  0.0541
  348loPI    C2 5554   6.433   2.447   9.516 -0.0221 -0.1324  0.0768
  348loPI    C3 5555   6.668   2.570   9.217  0.0350 -0.0719  0.1463
  348loPI   PO4 5556   6.237   2.194   9.068  0.2260  0.1348 -0.0886
  348loPI   GL1 5557   6.269   2.186   8.628 -0.0036  0.4133  0.1973
  348loPI   GL2 5558   6.147   1.879   8.528 -0.0960  0.2058 -0.0759
  348loPI   C1A 5559   5.979   2.419   8.361 -0.1885  0.0846 -0.1090
  348loPI   C2A 5560   5.975   2.691   8.040 -0.0415 -0.2343 -0.0338
  348loPI   C3A 5561   6.057   2.848   7.615 -0.1102 -0.1479  0.2592
  348loPI   C4A 5562   6.052   2.746   7.172  0.1479 -0.1407  0.3077
  348loPI   C5A 5563   5.928   2.979   6.840  0.1874  0.0542  0.0047
  348loPI   C6A 5564   5.937   3.449   6.789  0.0422  0.1189  0.1269
  348loPI   C1B 5565   5.910   1.998   8.099 -0.1505 -0.0094  0.0301
  348loPI   C2B 5566   5.932   2.292   7.723  0.1191 -0.2726  0.1888
  348loPI   C3B 5567   5.883   2.258   7.233 -0.1382 -0.3795  0.0185
  348loPI   C4B 5568   5.665   2.512   6.939 -0.0188 -0.1317 -0.1752
  349loPI    C1 5569  17.479   2.258   9.850 -0.0582 -0.1116  0.0107
  349loPI    C2 5570  17.346   2.212  10.224 -0.4379 -0.3198 -0.1440
  349loPI    C3 5571  17.464   1.893  10.012  0.1327 -0.1620 -0.0818
  349loPI   PO4 5572  17.842   2.468   9.768 -0.1227  0.2041 -0.2556
  349loPI   GL1 5573  18.151   2.517   9.378  0.0563 -0.2641  0.1525
  349loPI   GL2 5574  17.831   2.387   9.273  0.1233 -0.1350 -0.2798
  349loPI   C1A 5575  18.222   2.772   8.963  0.4412  0.0973  0.0531
  349loPI   C2A 5576  18.354   2.635   8.632  0.0688 -0.2221 -0.1419
  349loPI   C3A 5577  18.623   2.674   8.407 -0.1569  0.2834  0.3550
  349loPI   C4A 5578  18.760   2.512   8.090  0.1395  0.3808 -0.1649
  349loPI   C5A 5579  18.472   2.580   7.715  0.0675  0.5445  0.1940
  349loPI   C6A 5580  18.219   2.506   7.390 -0.4385  0.4507  0.0603
  349loPI   C1B 5581  18.002   2.337   8.831 -0.0692 -0.1369  0.1602
  349loPI   C2B 5582  17.767   2.152   8.498 -0.3486 -0.0429 -0.0560
  349loPI   C3B 5583  17.839   2.137   8.086  0.0059 -0.1404 -0.1199
  349loPI   C4B 5584  17.931   2.320   7.722  0.3066  0.1724 -0.1960
  350loPI    C1 5585   4.475   2.531   9.464 -0.0417 -0.1254 -0.1164
  350loPI    C2 5586   4.118   2.388   9.574 -0.1885  0.1217 -0.2635
  350loPI    C3 5587   4.407   2.137   9.461 -0.3387 -0.0762 -0.2129
  350loPI   PO4 5588   4.443   2.726   9.240  0.0165 -0.0588 -0.4869
  350loPI   GL1 5589   4.608   2.690   8.751 -0.1878  0.1806  0.3232
  350loPI   GL2 5590   4.509   2.389   8.533 -0.1644  0.0831 -0.1695
  350loPI   C1A 5591   4.692   3.102   8.544  0.0697 -0.0105 -0.0426
  350loPI   C2A 5592   4.663   3.102   8.075 -0.0260 -0.2376  0.1488
  350loPI   C3A 5593   4.655   3.359   7.711  0.1963  0.1538  0.2561
  350loPI   C4A 5594   4.649   3.339   7.257 -0.1493  0.4098 -0.0907
  350loPI   C5A 5595   4.446   3.713   7.018  0.3773  0.0150 -0.0240
  350loPI   C6A 5596   4.654   3.841   6.734  0.0995 -0.0777  0.0967
  350loPI   C1B 5597   4.541   2.528   8.226 -0.1639 -0.2657  0.1148
  350loPI   C2B 5598   4.663   2.679   7.858 -0.0905 -0.0459 -0.0156
  350loPI   C3B 5599   4.637   2.628   7.460 -0.1346 -0.0841 -0.0905
  350loPI   C4B 5600   4.579   2.735   7.026  0.0388  0.4595 -0.0545
  351loPI    C1 5601   6.189  10.744  10.033  0.1662  0.0911 -0.0807
  351loPI    C2 5602   6.407  10.428   9.920  0.0929 -0.0736  0.2281
  351loPI    C3 5603   6.580  10.786   9.960  0.2234 -0.1206  0.0935
  351loPI   PO4 5604   5.931  10.720   9.865 -0.3840  0.0586  0.2209
  351loPI   GL1 5605   6.001  10.647   9.447 -0.2484 -0.5132  0.1665
  351loPI   GL2 5606   5.723  10.955   9.314  0.0935 -0.1699  0.0848
  351loPI   C1A 5607   6.104  10.793   8.972 -0.0606  0.1686 -0.0934
  351loPI   C2A 5608   5.956  10.748   8.530 -0.3774 -0.4559 -0.0681
  351loPI   C3A 5609   5.748  10.783   8.088 -0.2371  0.0664 -0.1716
  351loPI   C4A 5610   5.546  10.848   7.649  0.1663 -0.2687  0.0214
  351loPI   C5A 5611   5.225  10.638   7.306 -0.2567 -0.2721  0.2592
  351loPI   C6A 5612   4.821  10.677   7.207 -0.3515  0.0860  0.6205
  351loPI   C1B 5613   5.508  10.714   8.991 -0.0918  0.0134 -0.3484
  351loPI   C2B 5614   5.196  10.668   8.607 -0.2249  0.0866 -0.1344
  351loPI   C3B 5615   4.908  10.504   8.402 -0.0277  0.0789  0.1247
  351loPI   C4B 5616   4.544  10.581   8.546  0.0218  0.2163 -0.1134
  352loPI    C1 5617   7.196   7.202   9.654  0.1924  0.1634 -0.1051
  352loPI    C2 5618   7.412   7.326   9.341  0.0147  0.2085 -0.2112
  352loPI    C3 5619   7.015   7.378   9.344 -0.0261 -0.0897 -0.1250
  352loPI   PO4 5620   7.297   6.956   9.653  0.0131  0.1451 -0.1318
  352loPI   GL1 5621   7.246   6.550   9.420  0.0036 -0.1576 -0.2918
  352loPI   GL2 5622   7.296   6.870   9.084 -0.0635  0.2748 -0.1446
  352loPI   C1A 5623   7.423   6.318   9.173  0.0357 -0.0869  0.1551
  352loPI   C2A 5624   7.401   6.365   8.683 -0.0407 -0.2347  0.1641
  352loPI   C3A 5625   7.349   6.304   8.251  0.0176  0.1794 -0.0697
  352loPI   C4A 5626   7.575   6.255   7.926 -0.0721  0.0423  0.2154
  352loPI   C5A 5627   7.529   6.592   7.503 -0.0944  0.1239 -0.0108
  352loPI   C6A 5628   7.259   6.613   7.303  0.3096  0.1606 -0.0839
  352loPI   C1B 5629   7.425   7.076   8.726 -0.3076 -0.1931  0.3809
  352loPI   C2B 5630   7.603   7.118   8.319  0.1311 -0.0511  0.1976
  352loPI   C3B 5631   7.404   7.153   7.932  0.1821 -0.4840 -0.2098
  352loPI   C4B 5632   7.217   7.338   7.638  0.0436 -0.1011  0.2212
  353loPI    C1 5633  11.781   1.888   9.476 -0.0372 -0.4226 -0.2676
  353loPI    C2 5634  11.966   1.568   9.630  0.0795 -0.1769  0.1137
  353loPI    C3 5635  11.579   1.634   9.710 -0.0000 -0.3307 -0.1351
  353loPI   PO4 5636  11.919   1.936   9.163 -0.2671  0.1999  0.1232
  353loPI   GL1 5637  11.793   1.950   8.787 -0.0789  0.2248  0.2250
  353loPI   GL2 5638  12.167   1.742   8.717  0.1982 -0.3465  0.1666
  353loPI   C1A 5639  11.906   2.038   8.455 -0.1466 -0.0169  0.1314
  353loPI   C2A 5640  11.961   1.939   8.067  0.4071 -0.1781 -0.0860
  353loPI   C3A 5641  11.833   1.879   7.678 -0.1827  0.1956 -0.0910
  353loPI   C4A 5642  11.689   1.689   7.213 -0.0786 -0.1371 -0.1723
  353loPI   C5A 5643  11.574   1.603   6.806 -0.1610  0.5403 -0.1041
  353loPI   C6A 5644  11.285   1.728   6.554 -0.0813 -0.2065 -0.1020
  353loPI   C1B 5645  12.334   1.508   8.342  0.4381 -0.0734 -0.1014
  353loPI   C2B 5646  12.164   1.549   7.879  0.1115 -0.1721 -0.2453
  353loPI   C3B 5647  12.124   1.552   7.383  0.2979  0.1686 -0.2201
  353loPI   C4B 5648  12.068   1.515   6.928 -0.0051 -0.0620  0.2287
  354loPI    C1 5649  19.304  12.430  10.210  0.2381 -0.0709 -0.1716
  354loPI    C2 5650  19.264  12.781  10.022 -0.0557  0.1553  0.2955
  354loPI    C3 5651  19.584  12.713  10.252  0.0627  0.0656  0.1067
  354loPI   PO4 5652  19.079  12.338  10.182 -0.4664  0.1766 -0.3813
  354loPI   GL1 5653  18.790  12.348   9.941  0.1866  0.0328 -0.1646
  354loPI   GL2 5654  19.160  12.298   9.729  0.1599  0.1182 -0.0234
  354loPI   C1A 5655  18.751  12.326   9.433 -0.0086 -0.1949 -0.0086
  354loPI   C2A 5656  18.727  12.506   9.075  0.1287 -0.1476  0.0481
  354loPI   C3A 5657  18.702  12.482   8.577  0.2873  0.0655  0.1241
  354loPI   C4A 5658  18.641  12.187   8.218  0.1605  0.1015 -0.0181
  354loPI   C5A 5659  18.527  12.035   7.860 -0.0172  0.2059 -0.1943
  354loPI   C6A 5660  18.207  11.797   7.718  0.0314  0.0428 -0.0295
  354loPI   C1B 5661  19.207  12.266   9.328  0.1842  0.1356  0.1576
  354loPI   C2B 5662  19.153  12.145   8.919  0.5730  0.0307 -0.1359
  354loPI   C3B 5663  19.135  12.168   8.571  0.2838  0.0935 -0.1590
  354loPI   C4B 5664  19.174  12.227   8.086 -0.2746  0.1075 -0.2291
  355loPI    C1 5665  18.354  11.500  10.508 -0.1275 -0.1659  0.0162
  355loPI    C2 5666  18.421  11.131  10.370 -0.0384 -0.1556  0.0313
  355loPI    C3 5667  18.563  11.239  10.728  0.2332  0.0009 -0.1198
  355loPI   PO4 5668  18.385  11.647  10.235  0.0930 -0.1071 -0.0757
  355loPI   GL1 5669  18.619  11.513   9.896  0.0919 -0.0316  0.1223
  355loPI   GL2 5670  18.618  11.839   9.811 -0.0582 -0.1006  0.0076
  355loPI   C1A 5671  18.831  11.363   9.566  0.0575 -0.1527 -0.0604
  355loPI   C2A 5672  18.998  11.291   9.148 -0.0293 -0.1832 -0.0012
  355loPI   C3A 5673  19.193  11.496   8.717 -0.3481 -0.1374  0.2202
  355loPI   C4A 5674  19.178  11.276   8.349  0.1687  0.0543  0.0167
  355loPI   C5A 5675  18.836  11.173   8.105  0.2347  0.0556  0.1907
  355loPI   C6A 5676  18.748  10.811   7.872 -0.0746 -0.0780  0.1045
  355loPI   C1B 5677  18.422  11.830   9.458 -0.3769  0.2760  0.1473
  355loPI   C2B 5678  18.530  11.529   9.061  0.2516  0.1325 -0.1018
  355loPI   C3B 5679  18.765  11.329   8.688 -0.2937 -0.0273  0.1397
  355loPI   C4B 5680  19.023  10.963   8.666  0.1995  0.1991 -0.1375
  356loPI    C1 5681   2.260  14.006   9.856  0.1327  0.1292 -0.1169
  356loPI    C2 5682   2.134  14.214  10.173  0.1039  0.1449 -0.1387
  356loPI    C3 5683   2.406  13.925  10.220  0.0969  0.1447 -0.0990
  356loPI   PO4 5684   2.053  14.011   9.734  0.0331  0.0073  0.0097
  356loPI   GL1 5685   1.991  14.066   9.334 -0.1768 -0.0558 -0.1508
  356loPI   GL2 5686   1.684  14.012   9.340 -0.1814  0.0181 -0.2342
  356loPI   C1A 5687   2.112  13.939   8.908  0.0273 -0.1415 -0.1736
  356loPI   C2A 5688   2.228  13.905   8.556 -0.0733 -0.1572  0.2656
  356loPI   C3A 5689   2.142  13.732   8.182 -0.2408  0.1896 -0.1998
  356loPI   C4A 5690   2.260  13.657   7.697  0.0705  0.0125  0.0351
  356loPI   C5A 5691   2.164  13.546   7.261 -0.0214 -0.1356 -0.0131
  356loPI   C6A 5692   2.297  13.485   6.830  0.1798  0.2158 -0.3188
  356loPI   C1B 5693   1.438  13.718   9.142  0.3782  0.0141  0.0862
  356loPI   C2B 5694   1.281  13.667   8.781 -0.0940 -0.1130  0.2505
  356loPI   C3B 5695   1.170  13.847   8.347  0.0759  0.1594 -0.1590
  356loPI   C4B 5696   0.846  13.879   8.114 -0.2703  0.1402  0.0467
  357loPI    C1 5697   6.988  15.520   9.467 -0.0927  0.0974 -0.1576
  357loPI    C2 5698   7.356  15.371   9.513 -0.0767  0.2049  0.0760
  357loPI    C3 5699   7.103  15.381   9.823 -0.3738 -0.1190 -0.1479
  357loPI   PO4 5700   7.062  15.712   9.274 -0.0465 -0.2199 -0.2219
  357loPI   GL1 5701   6.899  15.765   8.914  0.3727  0.2247 -0.3359
  357loPI   GL2 5702   7.288  15.765   8.786 -0.1472  0.0796 -0.3249
  357loPI   C1A 5703   6.855  15.508   8.580 -0.1770  0.1155  0.2426
  357loPI   C2A 5704   7.100  15.401   8.263 -0.0905  0.2858 -0.0116
  357loPI   C3A 5705   7.041  15.246   7.882  0.0328 -0.1719 -0.4360
  357loPI   C4A 5706   6.887  15.358   7.446 -0.1768  0.0215 -0.4385
  357loPI   C5A 5707   6.569  15.350   7.227  0.0095 -0.5817  0.2179
  357loPI   C6A 5708   6.195  15.647   6.920 -0.1989 -0.3496  0.0106
  357loPI   C1B 5709   7.338  15.875   8.432 -0.0665  0.2435 -0.1344
  357loPI   C2B 5710   7.287  16.134   8.039 -0.0682 -0.0314  0.2175
  357loPI   C3B 5711   6.980  16.206   7.611 -0.0064 -0.1688 -0.0600
  357loPI   C4B 5712   6.847  16.347   7.239  0.3090 -0.0869  0.0622
  358loPI    C1 5713   7.689  14.475   9.562  0.1701  0.1915 -0.1867
  358loPI    C2 5714   7.393  14.614   9.793 -0.0571  0.3070 -0.5396
  358loPI    C3 5715   7.773  14.709   9.875 -0.1216  0.2347 -0.1382
  358loPI   PO4 5716   7.587  14.388   9.360  0.0772 -0.2241  0.3870
  358loPI   GL1 5717   7.336  14.595   9.094 -0.0157 -0.2743 -0.1911
  358loPI   GL2 5718   7.111  14.625   9.142 -0.3005 -0.0637 -0.0855
  358loPI   C1A 5719   7.408  14.707   8.699 -0.0603 -0.4159  0.1859
  358loPI   C2A 5720   7.414  14.980   8.284 -0.2467 -0.0320  0.2484
  358loPI   C3A 5721   7.513  15.170   7.929 -0.0322 -0.1481 -0.2757
  358loPI   C4A 5722   7.382  15.358   7.562 -0.0909 -0.2101 -0.1236
  358loPI   C5A 5723   7.350  15.286   7.174  0.0076 -0.0180 -0.0901
  358loPI   C6A 5724   7.492  15.324   6.804 -0.2482  0.1690  0.0569
  358loPI   C1B 5725   6.929  14.827   8.783  0.0821 -0.0396 -0.2320
  358loPI   C2B 5726   6.745  15.057   8.387  0.4092 -0.1596 -0.1484
  358loPI   C3B 5727   6.614  15.398   8.145 -0.2402  0.1611  0.1857
  358loPI   C4B 5728   6.466  15.438   7.761 -0.3536  0.1425 -0.0440
  359loPI    C1 5729  10.634  17.469   9.071 -0.3074 -0.2372 -0.1952
  359loPI    C2 5730  10.755  17.265   9.393  0.3263  0.2427 -0.1097
  359loPI    C3 5731  10.419  17.483   9.408  0.3283  0.2278  0.2123
  359loPI   PO4 5732  10.711  17.348   8.827  0.1733 -0.2123 -0.0971
  359loPI   GL1 5733  10.534  17.299   8.458  0.0955  0.2940 -0.0445
  359loPI   GL2 5734  10.464  16.970   8.513 -0.4349  0.0293  0.4446
  359loPI   C1A 5735  10.745  17.399   8.093 -0.3565 -0.2967  0.3504
  359loPI   C2A 5736  10.974  17.275   7.711  0.0520  0.0038  0.1088
  359loPI   C3A 5737  11.155  17.211   7.319 -0.0161  0.2969  0.0946
  359loPI   C4A 5738  11.234  17.403   6.947  0.5076 -0.0291 -0.4899
  359loPI   C5A 5739  11.015  17.228   6.652 -0.1738 -0.2761 -0.3295
  359loPI   C6A 5740  10.988  16.856   6.460  0.2134 -0.6134 -0.2089
  359loPI   C1B 5741  10.279  17.085   8.070 -0.0680  0.1856 -0.0802
  359loPI   C2B 5742  10.528  17.068   7.698 -0.0880  0.1556 -0.1165
  359loPI   C3B 5743  10.621  17.052   7.376  0.0448  0.0809  0.0045
  359loPI   C4B 5744  10.787  16.952   7.005  0.1656  0.0389 -0.1905
  360loPI    C1 5745  11.836  18.982   9.300  0.2417  0.2170 -0.0387
  360loPI    C2 5746  12.016  18.689   9.097  0.0192  0.1462 -0.1374
  360loPI    C3 5747  12.151  18.794   9.459  0.1351 -0.0391 -0.1254
  360loPI   PO4 5748  11.758  19.141   9.140 -0.3488  0.0427 -0.0749
  360loPI   GL1 5749  11.843  19.031   8.679 -0.0359  0.0843 -0.5004
  360loPI   GL2 5750  12.071  18.756   8.605  0.3651 -0.3291 -0.0094
  360loPI   C1A 5751  11.923  19.424   8.381 -0.3635 -0.3103 -0.1558
  360loPI   C2A 5752  11.796  19.498   7.922  0.1434 -0.2225 -0.0964
  360loPI   C3A 5753  11.784  19.652   7.526 -0.1617  0.3159 -0.1840
  360loPI   C4A 5754  11.551  19.812   7.208 -0.2223  0.0420 -0.0219
  360loPI   C5A 5755  11.401  20.191   6.988 -0.1136  0.1429  0.1351
  360loPI   C6A 5756  11.251  20.550   6.716 -0.0165  0.2021 -0.1741
  360loPI   C1B 5757  12.225  18.608   8.200 -0.1497 -0.0718  0.0926
  360loPI   C2B 5758  12.231  18.628   7.779 -0.1888  0.0915 -0.3261
  360loPI   C3B 5759  12.277  18.582   7.366  0.3259  0.3382  0.1768
  360loPI   C4B 5760  12.307  18.114   7.176 -0.0062  0.2615  0.2383
  361loPI    C1 5761  11.663   0.643   9.584  0.1804 -0.0387  0.1182
  361loPI    C2 5762  11.323   0.759   9.759  0.2487  0.1851  0.1059
  361loPI    C3 5763  11.548   0.475   9.928 -0.0579 -0.1317 -0.0045
  361loPI   PO4 5764  11.670   0.802   9.397 -0.1095  0.1758  0.1953
  361loPI   GL1 5765  11.625   0.729   8.954  0.2318  0.2983 -0.2129
  361loPI   GL2 5766  11.716   0.987   8.833  0.1879  0.3210  0.1574
  361loPI   C1A 5767  11.308   0.635   8.658 -0.1080 -0.2716 -0.1191
  361loPI   C2A 5768  11.193   0.819   8.217  0.0262 -0.1098  0.1266
  361loPI   C3A 5769  11.238   0.881   7.847  0.2628  0.2815  0.6402
  361loPI   C4A 5770  11.189   0.720   7.422  0.0137 -0.1989 -0.1300
  361loPI   C5A 5771  11.046   0.455   7.161 -0.2033 -0.0858 -0.0621
  361loPI   C6A 5772  10.668   0.149   7.080  0.1370  0.2972  0.1318
  361loPI   C1B 5773  11.618   0.902   8.400 -0.2836  0.0002 -0.0794
  361loPI   C2B 5774  11.764   0.729   7.931 -0.3199 -0.0519 -0.1506
  361loPI   C3B 5775  11.675   0.828   7.551 -0.0241 -0.0005  0.0925
  361loPI   C4B 5776  11.830   1.195   7.253 -0.0877  0.0417 -0.1039
  362loPI    C1 5777  14.198  18.592   9.793 -0.0386 -0.2561  0.3268
  362loPI    C2 5778  13.895  18.414   9.604 -0.0905  0.0215  0.1417
  362loPI    C3 5779  13.821  18.672   9.900 -0.0386  0.1355  0.0561
  362loPI   PO4 5780  14.380  18.750   9.546  0.0356  0.0169 -0.1811
  362loPI   GL1 5781  14.452  18.794   9.091  0.1390 -0.2888 -0.3923
  362loPI   GL2 5782  14.537  18.544   8.948 -0.1154  0.0438  0.1120
  362loPI   C1A 5783  14.579  19.076   8.808 -0.0889  0.0631  0.3739
  362loPI   C2A 5784  14.606  19.243   8.376 -0.1186  0.1012 -0.1741
  362loPI   C3A 5785  14.680  19.257   7.954  0.3776  0.0160  0.0145
  362loPI   C4A 5786  14.451  19.071   7.616 -0.1674 -0.0843  0.2272
  362loPI   C5A 5787  14.589  18.907   7.240  0.0571  0.2966 -0.4830
  362loPI   C6A 5788  14.817  19.095   7.033 -0.2807  0.0359  0.2551
  362loPI   C1B 5789  14.474  18.723   8.450 -0.0155  0.3232 -0.1092
  362loPI   C2B 5790  14.405  18.790   8.050  0.1028 -0.1306  0.3161
  362loPI   C3B 5791  14.115  18.761   7.728  0.1240  0.1547  0.0459
  362loPI   C4B 5792  14.050  18.885   7.210  0.0161 -0.0791 -0.0279
  363loPI    C1 5793  10.434  13.204   9.544  0.0026  0.1311  0.1229
  363loPI    C2 5794  10.040  13.264   9.573 -0.0400 -0.0477 -0.0624
  363loPI    C3 5795  10.199  12.917   9.692  0.0851  0.0847  0.1645
  363loPI   PO4 5796  10.387  13.296   9.225 -0.0992 -0.2622  0.0959
  363loPI   GL1 5797  10.530  13.139   8.872  0.2117  0.3772 -0.1345
  363loPI   GL2 5798  10.869  13.221   8.820 -0.2141 -0.0979  0.3446
  363loPI   C1A 5799  10.514  13.234   8.442  0.1485 -0.0337  0.1294
  363loPI   C2A 5800  10.650  13.182   8.031 -0.0260 -0.1963  0.0700
  363loPI   C3A 5801  10.698  13.244   7.628  0.0573  0.1398  0.1005
  363loPI   C4A 5802  10.488  13.250   7.187  0.0138  0.2633  0.0494
  363loPI   C5A 5803  10.359  13.558   6.890 -0.1822  0.1920 -0.3072
  363loPI   C6A 5804  10.247  13.637   6.511 -0.3045  0.2265  0.1583
  363loPI   C1B 5805  11.005  12.993   8.458 -0.0852 -0.1883 -0.2183
  363loPI   C2B 5806  11.064  13.002   8.026  0.3401  0.0322 -0.0817
  363loPI   C3B 5807  11.144  13.003   7.539  0.4925 -0.2285  0.0926
  363loPI   C4B 5808  11.411  13.051   7.267 -0.0169  0.0835  0.2296
  364loPI    C1 5809   6.520  18.887   9.746 -0.1179  0.2030  0.1981
  364loPI    C2 5810   6.144  18.955   9.626 -0.0236  0.3666 -0.0088
  364loPI    C3 5811   6.381  19.262   9.726  0.1224  0.2804 -0.0870
  364loPI   PO4 5812   6.570  18.718   9.459 -0.3117 -0.0995  0.3957
  364loPI   GL1 5813   6.710  18.780   8.936  0.1429  0.3142 -0.1085
  364loPI   GL2 5814   6.876  18.533   8.985  0.0059  0.0780 -0.1572
  364loPI   C1A 5815   6.520  18.976   8.628  0.0766 -0.2550 -0.1115
  364loPI   C2A 5816   6.490  19.232   8.165 -0.0211  0.0570 -0.3055
  364loPI   C3A 5817   6.595  19.230   7.763  0.0611 -0.1123  0.0186
  364loPI   C4A 5818   6.823  19.199   7.307  0.1858 -0.3631  0.1203
  364loPI   C5A 5819   7.106  18.925   7.253 -0.0796  0.5194  0.2997
  364loPI   C6A 5820   7.463  18.885   7.477 -0.1517  0.2453  0.1785
  364loPI   C1B 5821   6.916  18.460   8.507 -0.0690 -0.0727  0.2319
  364loPI   C2B 5822   7.280  18.605   8.170 -0.5199 -0.2774 -0.0495
  364loPI   C3B 5823   7.582  18.935   7.949  0.1308 -0.1607 -0.2959
  364loPI   C4B 5824   7.797  19.113   8.188 -0.0061 -0.2721 -0.0424
  365loPI    C1 5825   0.439   1.671   9.727 -0.1096 -0.0289  0.0554
  365loPI    C2 5826   0.324   1.298   9.639 -0.1700  0.0195 -0.0730
  365loPI    C3 5827   0.499   1.376   9.990 -0.1442 -0.1320 -0.0518
  365loPI   PO4 5828   0.410   1.781   9.424 -0.1933 -0.0629 -0.0103
  365loPI   GL1 5829   0.595   1.787   8.975 -0.1013 -0.0407 -0.1374
  365loPI   GL2 5830   0.344   1.706   8.821  0.2051  0.3060 -0.0908
  365loPI   C1A 5831   0.756   1.646   8.580  0.0416 -0.0552  0.1352
  365loPI   C2A 5832   0.757   1.878   8.184  0.3239 -0.0832 -0.1397
  365loPI   C3A 5833   0.664   1.810   7.783 -0.2960 -0.0241 -0.1895
  365loPI   C4A 5834   0.819   1.489   7.539 -0.0390 -0.1769 -0.0753
  365loPI   C5A 5835   0.946   1.060   7.539  0.1135 -0.0276  0.1244
  365loPI   C6A 5836   0.774   0.671   7.381  0.0540 -0.0359 -0.0495
  365loPI   C1B 5837   0.387   1.999   8.473 -0.0055 -0.1332  0.0203
  365loPI   C2B 5838  -0.081   2.204   8.417 -0.2286 -0.1200 -0.2355
  365loPI   C3B 5839  -0.333   2.064   8.185 -0.1617  0.1803 -0.3184
  365loPI   C4B 5840  -0.544   1.855   7.775 -0.0588 -0.0948 -0.2712
  366loPI    C1 5841   3.183   6.350  10.304  0.1203 -0.0188 -0.0006
  366loPI    C2 5842   2.853   6.131  10.253 -0.0728  0.3066 -0.1882
  366loPI    C3 5843   3.018   6.163  10.616 -0.0156 -0.1754 -0.1643
  366loPI   PO4 5844   3.225   6.427  10.092  0.0901  0.0321  0.1235
  366loPI   GL1 5845   3.063   6.705   9.772  0.1087  0.0787  0.0795
  366loPI   GL2 5846   3.008   7.022   9.610  0.0421  0.3546 -0.3022
  366loPI   C1A 5847   3.062   6.552   9.400 -0.1898  0.4510  0.1188
  366loPI   C2A 5848   2.986   6.585   8.982  0.1702 -0.4280 -0.2668
  366loPI   C3A 5849   2.852   6.719   8.600 -0.4393  0.2965 -0.0342
  366loPI   C4A 5850   2.839   6.865   8.182 -0.0594  0.2028 -0.1348
  366loPI   C5A 5851   2.567   6.860   7.806  0.3093  0.0226  0.1565
  366loPI   C6A 5852   2.298   6.881   7.525 -0.1876 -0.1604 -0.2419
  366loPI   C1B 5853   3.140   7.054   9.287  0.1756  0.2463  0.0069
  366loPI   C2B 5854   3.106   7.162   8.855  0.1996  0.0771 -0.0682
  366loPI   C3B 5855   3.018   7.284   8.487  0.1110  0.2279  0.0801
  366loPI   C4B 5856   2.946   7.382   8.145 -0.0473 -0.2112 -0.4653
  367loPI    C1 5857  11.618   6.263   9.989 -0.1008  0.0797 -0.2613
  367loPI    C2 5858  11.936   6.040   9.892 -0.0827  0.0932 -0.2328
  367loPI    C3 5859  11.984   6.377  10.102 -0.1627 -0.1595  0.2025
  367loPI   PO4 5860  11.456   6.167   9.774 -0.3108  0.0702 -0.0090
  367loPI   GL1 5861  11.243   6.286   9.389 -0.0569  0.2234 -0.1029
  367loPI   GL2 5862  11.488   6.319   9.138  0.4475 -0.0027  0.3405
  367loPI   C1A 5863  11.103   6.137   8.928 -0.0124 -0.4491 -0.0340
  367loPI   C2A 5864  11.179   6.084   8.442 -0.1351  0.2965  0.0029
  367loPI   C3A 5865  11.356   5.993   8.063  0.1679  0.0778  0.0933
  367loPI   C4A 5866  11.402   5.880   7.629  0.1436  0.0731 -0.1936
  367loPI   C5A 5867  11.530   5.615   7.254 -0.1853  0.3383 -0.4597
  367loPI   C6A 5868  11.633   5.088   7.176  0.0963 -0.5144  0.0695
  367loPI   C1B 5869  11.630   6.174   8.812 -0.2902 -0.2365  0.1497
  367loPI   C2B 5870  11.775   6.127   8.335  0.0252 -0.1940  0.0446
  367loPI   C3B 5871  11.783   6.202   7.895 -0.3348  0.0288 -0.3837
  367loPI   C4B 5872  11.981   6.130   7.404 -0.1777  0.0931 -0.1342
  368loPI    C1 5873   1.965  15.264  10.025  0.1979  0.0923 -0.1042
  368loPI    C2 5874   2.129  14.981   9.795 -0.4215 -0.0772 -0.3588
  368loPI    C3 5875   2.321  15.109  10.121  0.0617 -0.4822 -0.4707
  368loPI   PO4 5876   1.819  15.343   9.881 -0.0967 -0.0139  0.0304
  368loPI   GL1 5877   1.514  15.458   9.523 -0.3644  0.1046 -0.0958
  368loPI   GL2 5878   1.658  15.714   9.283 -0.3581  0.0522 -0.1256
  368loPI   C1A 5879   1.484  15.313   9.031 -0.2239 -0.0528 -0.0107
  368loPI   C2A 5880   1.478  15.297   8.593 -0.0790  0.5956 -0.0111
  368loPI   C3A 5881   1.613  15.348   8.136 -0.0032  0.2678  0.1296
  368loPI   C4A 5882   1.848  15.337   7.651  0.2716  0.1401 -0.1972
  368loPI   C5A 5883   1.772  15.611   7.267 -0.0284  0.1249  0.2397
  368loPI   C6A 5884   1.889  15.829   6.858 -0.2898  0.0197 -0.0204
  368loPI   C1B 5885   1.477  15.828   8.996  0.2557  0.1258  0.1899
  368loPI   C2B 5886   1.421  16.184   8.660  0.0108  0.1495 -0.0493
  368loPI   C3B 5887   1.269  16.251   8.202 -0.2220 -0.1905 -0.2227
  368loPI   C4B 5888   1.254  16.214   7.757 -0.0260  0.2655 -0.0492
  369loPI    C1 5889  18.320   9.693  10.460  0.1385  0.1099 -0.0803
  369loPI    C2 5890  18.667   9.686  10.261  0.1028  0.1821 -0.1457
  369loPI    C3 5891  18.538  10.027  10.426  0.0392  0.1667 -0.1631
  369loPI   PO4 5892  18.165   9.431  10.264 -0.0641 -0.1353  0.3448
  369loPI   GL1 5893  18.336   9.458   9.851  0.8633  0.0041  0.0626
  369loPI   GL2 5894  18.037   9.539   9.783  0.2093 -0.2801  0.1416
  369loPI   C1A 5895  18.406   9.711   9.419  0.0047 -0.1346 -0.0010
  369loPI   C2A 5896  18.368   9.916   9.176  0.0293  0.2413 -0.2221
  369loPI   C3A 5897  18.138  10.006   8.906 -0.1777  0.3931  0.1514
  369loPI   C4A 5898  18.197  10.161   8.514  0.2469  0.1043 -0.1842
  369loPI   C5A 5899  18.334  10.186   8.122 -0.0981  0.1189 -0.2210
  369loPI   C6A 5900  18.265   9.952   7.823  0.0768  0.0403 -0.2030
  369loPI   C1B 5901  18.003   9.346   9.461  0.2470  0.0631 -0.1302
  369loPI   C2B 5902  18.043   9.048   9.230 -0.1082  0.0791  0.1269
  369loPI   C3B 5903  18.080   9.038   8.816 -0.3460  0.2031  0.4589
  369loPI   C4B 5904  18.217   8.905   8.441  0.3934 -0.1193 -0.0934
  370loPI    C1 5905   2.781   4.840   9.901  0.1897 -0.2014 -0.1501
  370loPI    C2 5906   2.987   4.499   9.939  0.0458 -0.2482  0.2594
  370loPI    C3 5907   2.879   4.706  10.265 -0.3185 -0.0823  0.0403
  370loPI   PO4 5908   2.730   4.869   9.711  0.1859  0.1671 -0.1658
  370loPI   GL1 5909   2.896   5.161   9.410  0.4024 -0.0366 -0.5897
  370loPI   GL2 5910   3.049   4.961   9.173  0.0615 -0.0181  0.2276
  370loPI   C1A 5911   2.935   5.447   9.048  0.1486 -0.0419 -0.0935
  370loPI   C2A 5912   2.770   5.532   8.617  0.3406  0.1657 -0.0959
  370loPI   C3A 5913   2.616   5.921   8.465 -0.2012  0.1603  0.1201
  370loPI   C4A 5914   2.544   6.030   8.108 -0.1203 -0.3673 -0.0586
  370loPI   C5A 5915   2.533   5.788   7.723 -0.2738  0.1725 -0.0048
  370loPI   C6A 5916   2.669   5.710   7.287 -0.1108 -0.0643 -0.2871
  370loPI   C1B 5917   3.122   5.156   8.720 -0.0999  0.1279  0.1873
  370loPI   C2B 5918   3.150   5.337   8.321  0.1899 -0.0644  0.2422
  370loPI   C3B 5919   2.788   5.508   8.095  0.1103  0.0575  0.2431
  370loPI   C4B 5920   2.396   5.331   7.803 -0.1739  0.0827  0.3015
  371loPI    C1 5921   1.313   0.610   9.657 -0.2201 -0.0135 -0.0334
  371loPI    C2 5922   1.398   0.439  10.008  0.0807 -0.1054 -0.1483
  371loPI    C3 5923   1.520   0.812   9.932 -0.0769 -0.0466 -0.1161
  371loPI   PO4 5924   1.122   0.635   9.630  0.1707 -0.1126 -0.1466
  371loPI   GL1 5925   0.907   0.699   9.247  0.2628  0.0630  0.1875
  371loPI   GL2 5926   0.922   0.402   9.202 -0.0808 -0.0074  0.1056
  371loPI   C1A 5927   0.909   0.897   8.855  0.3823 -0.0670 -0.2723
  371loPI   C2A 5928   0.818   1.111   8.476  0.0163 -0.1112 -0.2276
  371loPI   C3A 5929   1.065   0.948   8.146 -0.2499 -0.0012  0.0992
  371loPI   C4A 5930   1.181   0.736   7.791  0.0418 -0.0829  0.0029
  371loPI   C5A 5931   1.565   0.717   7.643  0.2700 -0.0096  0.2334
  371loPI   C6A 5932   1.582   0.828   7.213  0.0315  0.1405 -0.3081
  371loPI   C1B 5933   0.718   0.385   8.864 -0.0769  0.0213 -0.0341
  371loPI   C2B 5934   0.756   0.476   8.488  0.0822 -0.1797 -0.0251
  371loPI   C3B 5935   0.757   0.504   7.999 -0.2549  0.0377  0.0832
  371loPI   C4B 5936   0.846   0.178   7.654  0.2969 -0.0444  0.3384
  372loPI    C1 5937  12.350  11.941   9.657 -0.1710  0.2587  0.0058
  372loPI    C2 5938  12.297  12.146   9.997  0.1188 -0.0528  0.2464
  372loPI    C3 5939  12.044  11.852   9.899 -0.0575  0.1412  0.1070
  372loPI   PO4 5940  12.553  11.804   9.641  0.0003 -0.0072  0.3406
  372loPI   GL1 5941  12.699  11.763   9.246 -0.0997  0.0171  0.0294
  372loPI   GL2 5942  12.976  11.606   9.276  0.0629 -0.1510  0.1156
  372loPI   C1A 5943  12.672  11.713   8.905  0.1177 -0.2346  0.6474
  372loPI   C2A 5944  12.723  11.435   8.507 -0.0613  0.0903  0.0413
  372loPI   C3A 5945  12.329  11.595   8.222  0.0986 -0.0210 -0.1987
  372loPI   C4A 5946  12.289  11.604   7.704 -0.0458  0.2476  0.1377
  372loPI   C5A 5947  12.452  11.827   7.269 -0.2411  0.1878 -0.0098
  372loPI   C6A 5948  12.706  12.149   7.207  0.2574 -0.1426 -0.1373
  372loPI   C1B 5949  13.132  11.493   8.893 -0.2361 -0.1303  0.1834
  372loPI   C2B 5950  13.227  11.385   8.556  0.2360 -0.0327  0.1278
  372loPI   C3B 5951  13.366  11.218   8.223 -0.1304 -0.0848  0.1161
  372loPI   C4B 5952  13.542  11.199   7.805  0.0078 -0.2200 -0.0047
  373loPI    C1 5953  13.768   8.965   9.953  0.0012 -0.1043 -0.2480
  373loPI    C2 5954  13.815   8.582   9.848 -0.1079 -0.2960  0.3597
  373loPI    C3 5955  13.669   8.673  10.209 -0.1818  0.3229  0.1844
  373loPI   PO4 5956  13.755   9.078   9.749 -0.2131  0.2900  0.2432
  373loPI   GL1 5957  13.560   9.075   9.305  0.0481 -0.0157 -0.1208
  373loPI   GL2 5958  13.844   9.100   9.247 -0.1586  0.1401  0.0508
  373loPI   C1A 5959  13.411   9.052   8.906  0.2300  0.5008  0.1047
  373loPI   C2A 5960  13.577   9.033   8.516  0.4959 -0.2194 -0.0822
  373loPI   C3A 5961  13.480   8.976   8.154  0.3112  0.0231  0.3192
  373loPI   C4A 5962  13.629   9.166   7.774  0.3809 -0.1686 -0.3642
  373loPI   C5A 5963  13.583   9.618   7.555 -0.2524 -0.0942  0.0076
  373loPI   C6A 5964  13.563  10.086   7.529 -0.1115 -0.0761  0.1435
  373loPI   C1B 5965  13.833   9.300   8.882 -0.4593  0.0147  0.1901
  373loPI   C2B 5966  14.019   9.366   8.505  0.0410 -0.3777  0.0165
  373loPI   C3B 5967  14.059   9.458   8.158 -0.2856  0.2635  0.0826
  373loPI   C4B 5968  14.040   9.512   7.713  0.0254 -0.0334  0.0028
  374loPI    C1 5969   3.425  10.677  10.225  0.1688 -0.2653 -0.1483
  374loPI    C2 5970   3.249  10.692  10.583  0.1200 -0.1214 -0.1778
  374loPI    C3 5971   3.623  10.556  10.550  0.1542 -0.0575 -0.0605
  374loPI   PO4 5972   3.192  10.549  10.029 -0.2217 -0.2056  0.1149
  374loPI   GL1 5973   2.916  10.619   9.596 -0.0271  0.0011 -0.1752
  374loPI   GL2 5974   2.509  10.513   9.539 -0.4206  0.0765 -0.0694
  374loPI   C1A 5975   2.788  10.565   9.135 -0.0711  0.1660 -0.4018
  374loPI   C2A 5976   2.677  10.638   8.758  0.3213  0.1307 -0.0215
  374loPI   C3A 5977   2.611  10.689   8.245 -0.0308 -0.3189  0.0019
  374loPI   C4A 5978   2.291  10.555   7.949 -0.0064 -0.0724  0.1404
  374loPI   C5A 5979   2.071  10.752   7.531 -0.0583  0.3256  0.2029
  374loPI   C6A 5980   1.935  11.155   7.445 -0.2050 -0.1708  0.1854
  374loPI   C1B 5981   2.274  10.608   9.069  0.0602 -0.1297 -0.1881
  374loPI   C2B 5982   2.198  10.676   8.633  0.3248 -0.0821  0.0088
  374loPI   C3B 5983   1.942  10.620   8.286 -0.2500 -0.1192 -0.2646
  374loPI   C4B 5984   1.751  10.971   7.968  0.0304  0.2258  0.0182
  375loPI    C1 5985  15.895  15.495  10.055 -0.0796 -0.2702  0.0660
  375loPI    C2 5986  15.622  15.283   9.855 -0.1895 -0.2375  0.1796
  375loPI    C3 5987  15.654  15.243  10.251  0.0517 -0.3294  0.1528
  375loPI   PO4 5988  16.206  15.467   9.973  0.0370 -0.1051 -0.1119
  375loPI   GL1 5989  16.226  15.464   9.583 -0.0346 -0.1942 -0.0910
  375loPI   GL2 5990  16.474  15.757   9.422  0.4412 -0.0288  0.1896
  375loPI   C1A 5991  15.893  15.427   9.220 -0.0011  0.1695 -0.1028
  375loPI   C2A 5992  15.971  15.470   8.807  0.0474 -0.3891 -0.2769
  375loPI   C3A 5993  15.706  15.473   8.576  0.0139  0.1365 -0.1591
  375loPI   C4A 5994  15.855  15.411   8.145  0.3557  0.0379 -0.1940
  375loPI   C5A 5995  15.763  15.567   7.730  0.0090  0.0365  0.2041
  375loPI   C6A 5996  15.921  15.363   7.367  0.1820 -0.5333 -0.3435
  375loPI   C1B 5997  16.326  15.869   8.958 -0.0649 -0.0241  0.2580
  375loPI   C2B 5998  16.381  15.658   8.572 -0.3999  0.1941 -0.0872
  375loPI   C3B 5999  16.510  15.836   8.267 -0.2159 -0.0133 -0.0391
  375loPI   C4B 6000  16.546  15.986   7.889  0.0440  0.0728 -0.1748
  376loPI    C1 6001   0.276   2.564   9.614  0.1465 -0.0943  0.1439
  376loPI    C2 6002   0.498   2.730   9.902 -0.0564  0.1623  0.1556
  376loPI    C3 6003   0.136   2.582   9.989 -0.1111  0.2251  0.0369
  376loPI   PO4 6004   0.245   2.727   9.388 -0.0589 -0.1198  0.2738
  376loPI   GL1 6005   0.427   2.813   9.073  0.0625  0.0834  0.3401
  376loPI   GL2 6006   0.269   3.180   9.167 -0.0026 -0.1959  0.0812
  376loPI   C1A 6007   0.322   2.996   8.668  0.0075 -0.3163 -0.0481
  376loPI   C2A 6008   0.169   2.987   8.278 -0.0025  0.0380 -0.1097
  376loPI   C3A 6009  -0.120   2.641   8.100  0.3531 -0.0772  0.2418
  376loPI   C4A 6010  -0.210   2.279   7.775 -0.1796  0.1980 -0.0255
  376loPI   C5A 6011  -0.161   2.396   7.345  0.0994  0.1082 -0.1447
  376loPI   C6A 6012   0.182   2.436   7.080 -0.3706 -0.3530  0.0255
  376loPI   C1B 6013  -0.093   3.056   8.880  0.2190 -0.0872  0.2417
  376loPI   C2B 6014  -0.346   3.101   8.454  0.0759  0.0007  0.1845
  376loPI   C3B 6015  -0.444   3.038   8.021  0.0006 -0.0761  0.0028
  376loPI   C4B 6016  -0.366   2.754   7.686  0.0019  0.1390  0.1039
  377loPI    C1 6017  15.341   7.812  10.412  0.0602 -0.2765  0.1321
  377loPI    C2 6018  15.340   7.871  10.807  0.0639 -0.1253  0.1101
  377loPI    C3 6019  14.996   7.810  10.614  0.0172  0.2188  0.0776
  377loPI   PO4 6020  15.524   7.666  10.334 -0.3301 -0.0850  0.0134
  377loPI   GL1 6021  15.735   7.651   9.887 -0.1021  0.2250 -0.2560
  377loPI   GL2 6022  15.983   7.413   9.698  0.1781 -0.2532  0.3141
  377loPI   C1A 6023  15.716   7.888   9.475  0.1280  0.0042  0.1407
  377loPI   C2A 6024  15.809   7.920   9.067  0.0160  0.0324 -0.2999
  377loPI   C3A 6025  15.719   7.976   8.594  0.0378  0.2165 -0.0654
  377loPI   C4A 6026  15.772   7.985   8.229 -0.0999  0.1053 -0.2052
  377loPI   C5A 6027  15.622   7.828   7.801 -0.4257  0.0166 -0.5126
  377loPI   C6A 6028  15.638   7.782   7.411 -0.3533 -0.0769 -0.3214
  377loPI   C1B 6029  15.759   7.427   9.294  0.3693 -0.2666 -0.1337
  377loPI   C2B 6030  15.705   7.437   8.818 -0.1603  0.3219 -0.0673
  377loPI   C3B 6031  15.668   7.520   8.374  0.0911 -0.0053 -0.1965
  377loPI   C4B 6032  16.015   7.549   8.034 -0.1485  0.0460  0.0385
  378loPI    C1 6033  10.437   1.144   9.562 -0.1283 -0.1834 -0.0022
  378loPI    C2 6034  10.360   1.451   9.807 -0.1399 -0.1137 -0.0928
  378loPI    C3 6035  10.366   1.078   9.950  0.0700 -0.0545  0.0576
  378loPI   PO4 6036  10.285   1.180   9.359 -0.1042  0.3483  0.3038
  378loPI   GL1 6037  10.428   1.010   8.925  0.3443  0.5074  0.0260
  378loPI   GL2 6038  10.293   1.284   8.858 -0.3460  0.1832 -0.1359
  378loPI   C1A 6039  10.372   0.778   8.515 -0.1373  0.0968 -0.1351
  378loPI   C2A 6040  10.437   0.492   8.060  0.2222 -0.1378  0.2573
  378loPI   C3A 6041  10.321   0.383   7.684  0.1851 -0.3902  0.0149
  378loPI   C4A 6042  10.142   0.652   7.308  0.1833 -0.0276 -0.1503
  378loPI   C5A 6043  10.011   0.923   7.026  0.1184 -0.0509  0.0017
  378loPI   C6A 6044   9.951   1.294   6.810  0.1822  0.0688 -0.1894
  378loPI   C1B 6045  10.431   1.305   8.442  0.1599  0.1156  0.3140
  378loPI   C2B 6046  10.426   1.389   8.038 -0.2711  0.1775  0.1304
  378loPI   C3B 6047  10.549   1.614   7.643  0.0218  0.5303 -0.0693
  378loPI   C4B 6048  10.941   1.639   7.470 -0.3584  0.0990 -0.0425
  379loPI    C1 6049  13.392   5.839  10.292  0.0390  0.0812 -0.2069
  379loPI    C2 6050  13.600   5.507  10.213  0.2026  0.1853 -0.2169
  379loPI    C3 6051  13.780   5.864  10.200  0.0544  0.2654 -0.0961
  379loPI   PO4 6052  13.266   5.805  10.017 -0.1920 -0.2751 -0.2159
  379loPI   GL1 6053  13.153   5.733   9.589 -0.1462 -0.0252 -0.1378
  379loPI   GL2 6054  13.131   6.087   9.516  0.2908 -0.2447  0.1420
  379loPI   C1A 6055  13.420   5.695   9.201  0.1218  0.1409  0.0430
  379loPI   C2A 6056  13.479   5.673   8.790  0.0846 -0.0042  0.2081
  379loPI   C3A 6057  13.826   5.827   8.565 -0.0846  0.2002 -0.0278
  379loPI   C4A 6058  14.076   5.897   8.187 -0.1174  0.0056 -0.1738
  379loPI   C5A 6059  14.090   6.001   7.784 -0.0156  0.2587  0.1183
  379loPI   C6A 6060  14.315   6.029   7.376 -0.0264 -0.4392  0.1100
  379loPI   C1B 6061  13.057   6.166   9.136 -0.0616 -0.1588  0.0269
  379loPI   C2B 6062  13.159   6.091   8.797 -0.0703  0.0419 -0.0852
  379loPI   C3B 6063  13.242   5.870   8.409 -0.4109 -0.0870 -0.1352
  379loPI   C4B 6064  13.138   5.672   8.081 -0.1221  0.4420 -0.0543
  380loPI    C1 6065   7.622  13.257   9.249 -0.1048 -0.0231  0.0640
  380loPI    C2 6066   8.011  13.348   9.232 -0.1737  0.2588 -0.0570
  380loPI    C3 6067   7.835  13.290   9.586  0.0425 -0.1716 -0.0128
  380loPI   PO4 6068   7.610  13.363   8.909  0.1939 -0.0057  0.3102
  380loPI   GL1 6069   7.672  13.285   8.501  0.0265  0.0736 -0.0546
  380loPI   GL2 6070   7.567  13.710   8.507  0.1855  0.1630  0.1050
  380loPI   C1A 6071   7.725  13.274   8.149  0.2681 -0.0758  0.0367
  380loPI   C2A 6072   7.928  13.175   7.768 -0.2831  0.3877 -0.3637
  380loPI   C3A 6073   7.877  13.000   7.344 -0.0558 -0.0709  0.2152
  380loPI   C4A 6074   7.582  12.718   7.127  0.1164  0.1242 -0.2125
  380loPI   C5A 6075   7.372  12.698   6.845 -0.0639  0.2446  0.2168
  380loPI   C6A 6076   7.091  12.394   6.699 -0.1489  0.2033  0.3107
  380loPI   C1B 6077   7.437  13.757   8.078 -0.1814  0.1325  0.2609
  380loPI   C2B 6078   7.305  13.789   7.715 -0.1895 -0.1658 -0.0242
  380loPI   C3B 6079   7.496  14.103   7.535 -0.3742 -0.0094  0.0336
  380loPI   C4B 6080   7.710  14.410   7.364 -0.0787  0.0032  0.1442
  381loPI    C1 6081   4.811   7.146  10.324 -0.0324 -0.0146 -0.0188
  381loPI    C2 6082   4.978   6.857  10.544 -0.0009 -0.0400 -0.0759
  381loPI    C3 6083   4.729   7.119  10.715  0.1258  0.0209  0.0176
  381loPI   PO4 6084   4.774   6.986  10.044 -0.1495 -0.1322 -0.3780
  381loPI   GL1 6085   4.658   7.012   9.645  0.1306 -0.3516 -0.2599
  381loPI   GL2 6086   4.898   7.106   9.413  0.2964  0.1403  0.2856
  381loPI   C1A 6087   4.566   6.768   9.264  0.1562  0.1077 -0.0038
  381loPI   C2A 6088   4.508   6.861   8.764 -0.1934  0.1315 -0.0358
  381loPI   C3A 6089   4.500   6.508   8.360 -0.0156 -0.3289 -0.0592
  381loPI   C4A 6090   4.448   6.227   8.068  0.0206  0.2666 -0.2548
  381loPI   C5A 6091   4.408   6.368   7.577  0.0669 -0.1470  0.1180
  381loPI   C6A 6092   4.145   6.505   7.274 -0.0238  0.0101 -0.0495
  381loPI   C1B 6093   5.085   6.971   9.169  0.1866 -0.2304 -0.0627
  381loPI   C2B 6094   5.062   6.992   8.764  0.0644  0.0022 -0.1408
  381loPI   C3B 6095   4.901   6.849   8.345 -0.3194 -0.2033 -0.0039
  381loPI   C4B 6096   4.956   6.955   7.882  0.1330  0.0547  0.1311
  382loPI    C1 6097  15.514   3.120  10.106  0.2422 -0.0773 -0.1293
  382loPI    C2 6098  15.209   2.867  10.052  0.2553 -0.1313  0.0433
  382loPI    C3 6099  15.145   3.262  10.051  0.2446 -0.1315 -0.2882
  382loPI   PO4 6100  15.677   3.101   9.961 -0.2117  0.0717  0.2109
  382loPI   GL1 6101  15.842   2.990   9.621 -0.2656  0.1797 -0.0209
  382loPI   GL2 6102  16.029   2.982   9.396  0.2679 -0.6092 -0.0695
  382loPI   C1A 6103  15.673   2.788   9.168  0.0449 -0.2052 -0.3312
  382loPI   C2A 6104  15.810   2.499   8.732 -0.0472 -0.2252  0.1118
  382loPI   C3A 6105  15.852   2.283   8.335  0.0284 -0.1544 -0.1770
  382loPI   C4A 6106  15.949   2.305   7.865  0.0042 -0.1997  0.1697
  382loPI   C5A 6107  16.119   2.293   7.453  0.1397  0.4901  0.0601
  382loPI   C6A 6108  16.325   2.084   7.154  0.1066  0.4536 -0.0883
  382loPI   C1B 6109  16.016   3.090   8.964 -0.0226  0.2347  0.1740
  382loPI   C2B 6110  15.937   3.189   8.546  0.1786 -0.0700 -0.1288
  382loPI   C3B 6111  15.860   3.163   8.088 -0.4443  0.0642  0.5528
  382loPI   C4B 6112  15.344   3.184   8.004  0.0813 -0.3141 -0.2767
  383loPI    C1 6113   3.482  17.150   9.759 -0.1829 -0.0346  0.1210
  383loPI    C2 6114   3.661  16.800   9.836 -0.1594 -0.0040  0.2069
  383loPI    C3 6115   3.777  17.131  10.028 -0.1618  0.0568  0.1043
  383loPI   PO4 6116   3.408  17.087   9.477 -0.0870 -0.0169  0.3557
  383loPI   GL1 6117   3.637  17.038   9.081 -0.1712  0.2108  0.1868
  383loPI   GL2 6118   3.909  17.204   8.871  0.0531  0.2456 -0.0216
  383loPI   C1A 6119   3.317  17.096   8.799  0.1785  0.1538  0.0628
  383loPI   C2A 6120   3.177  17.185   8.360  0.2591 -0.0044  0.0140
  383loPI   C3A 6121   3.135  17.153   7.991 -0.0559  0.6357  0.0978
  383loPI   C4A 6122   3.245  17.335   7.702  0.0022  0.2318 -0.2743
  383loPI   C5A 6123   3.454  17.451   7.298 -0.1421 -0.0949 -0.3630
  383loPI   C6A 6124   3.542  17.485   6.905 -0.1256  0.2420  0.2356
  383loPI   C1B 6125   3.681  17.233   8.467  0.5012 -0.1643  0.3492
  383loPI   C2B 6126   3.608  17.177   8.005  0.3156  0.2752  0.1389
  383loPI   C3B 6127   3.743  17.321   7.763 -0.2864  0.1601  0.1161
  383loPI   C4B 6128   4.156  17.308   7.636 -0.0958  0.0967 -0.0639
  384loPI    C1 6129  17.191  12.611  10.265  0.1461  0.0624 -0.1273
  384loPI    C2 6130  17.124  12.352  10.562  0.1398 -0.0178 -0.1984
  384loPI    C3 6131  16.884  12.668  10.515  0.2152  0.0638 -0.0422
  384loPI   PO4 6132  17.152  12.540  10.090 -0.2263 -0.0392  0.1490
  384loPI   GL1 6133  16.911  12.416   9.813 -0.1588 -0.0407 -0.4084
  384loPI   GL2 6134  16.984  12.648   9.634  0.3303 -0.1984  0.2208
  384loPI   C1A 6135  17.355  12.298   9.514  0.0195  0.1988 -0.1159
  384loPI   C2A 6136  17.564  12.182   9.137  0.1653  0.1255  0.0377
  384loPI   C3A 6137  17.740  11.939   8.781  0.0403  0.1827 -0.0141
  384loPI   C4A 6138  17.811  11.650   8.464  0.3425  0.3688  0.1045
  384loPI   C5A 6139  17.917  11.484   8.043  0.2642  0.4689 -0.0675
  384loPI   C6A 6140  17.722  11.275   7.645 -0.1184 -0.1690  0.0738
  384loPI   C1B 6141  17.352  12.795   9.294 -0.1940  0.0986  0.0398
  384loPI   C2B 6142  17.424  12.721   8.842  0.0044  0.1078 -0.2682
  384loPI   C3B 6143  17.547  12.535   8.603 -0.2978  0.0704  0.0634
  384loPI   C4B 6144  17.572  12.234   8.322  0.0326  0.1348  0.2040
  385loPI    C1 6145   3.951  13.235   9.465  0.1113 -0.0381 -0.0379
  385loPI    C2 6146   4.125  13.408   9.780  0.0605 -0.2162  0.0892
  385loPI    C3 6147   4.287  13.447   9.417 -0.0512  0.2529  0.0832
  385loPI   PO4 6148   3.854  12.971   9.688 -0.0276 -0.1821 -0.1600
  385loPI   GL1 6149   3.694  12.644   9.477 -0.5111  0.1541 -0.1148
  385loPI   GL2 6150   3.552  12.920   9.269  0.1917  0.1675 -0.0519
  385loPI   C1A 6151   4.002  12.767   9.059 -0.1706  0.0935 -0.1539
  385loPI   C2A 6152   3.978  12.826   8.575 -0.0372 -0.1654 -0.0170
  385loPI   C3A 6153   3.984  12.978   8.223 -0.0167 -0.2316  0.0805
  385loPI   C4A 6154   4.106  12.885   7.893  0.1043 -0.0769  0.1590
  385loPI   C5A 6155   4.028  12.987   7.425 -0.0180  0.2759  0.0900
  385loPI   C6A 6156   3.813  13.250   7.154 -0.0734 -0.1583 -0.1227
  385loPI   C1B 6157   3.498  12.686   8.860  0.0685  0.1778  0.3390
  385loPI   C2B 6158   3.442  12.876   8.495 -0.1038 -0.1833  0.1386
  385loPI   C3B 6159   3.547  13.006   8.013 -0.2610 -0.1877  0.0824
  385loPI   C4B 6160   3.405  12.923   7.531 -0.0495  0.1499  0.2648
  386loPI    C1 6161   6.385  11.723   9.801 -0.1509 -0.3953 -0.0489
  386loPI    C2 6162   6.002  11.650   9.891 -0.1509 -0.1694  0.1440
  386loPI    C3 6163   6.248  11.799  10.169  0.0358 -0.1547 -0.0267
  386loPI   PO4 6164   6.413  11.829   9.578  0.1104 -0.0806  0.2379
  386loPI   GL1 6165   6.294  11.583   9.315  0.0421 -0.0221  0.4507
  386loPI   GL2 6166   6.159  11.242   9.225  0.0486  0.0701 -0.3917
  386loPI   C1A 6167   6.462  11.625   8.897 -0.3029  0.0038 -0.3659
  386loPI   C2A 6168   6.707  11.574   8.465 -0.1223  0.2447  0.0566
  386loPI   C3A 6169   6.552  11.508   8.065  0.0564 -0.4119 -0.3186
  386loPI   C4A 6170   6.394  11.528   7.733  0.0920 -0.2309  0.1078
  386loPI   C5A 6171   6.461  11.567   7.357 -0.3798  0.0054 -0.0876
  386loPI   C6A 6172   6.353  11.874   7.040  0.1237  0.1187  0.2525
  386loPI   C1B 6173   5.794  11.265   8.854 -0.3250 -0.1425  0.1905
  386loPI   C2B 6174   5.843  11.236   8.369  0.0661  0.3574  0.0569
  386loPI   C3B 6175   5.735  11.274   7.933  0.1285 -0.1137  0.2200
  386loPI   C4B 6176   5.760  11.338   7.503 -0.0659 -0.3915 -0.1664
  387loPI    C1 6177   1.096   1.495   9.987 -0.0196 -0.0406 -0.1954
  387loPI    C2 6178   1.481   1.387   9.965 -0.0265 -0.1193  0.0479
  387loPI    C3 6179   1.384   1.767  10.040  0.0048 -0.1180  0.0819
  387loPI   PO4 6180   0.910   1.461   9.700 -0.0293 -0.0826 -0.1202
  387loPI   GL1 6181   0.800   1.320   9.205 -0.0087  0.1501 -0.0553
  387loPI   GL2 6182   1.082   1.381   9.093  0.1035 -0.1064  0.0276
  387loPI   C1A 6183   0.536   1.267   8.948 -0.0430  0.1353  0.0123
  387loPI   C2A 6184   0.376   1.331   8.542  0.2246  0.1884 -0.1553
  387loPI   C3A 6185   0.342   1.601   8.186  0.0963 -0.1137  0.0770
  387loPI   C4A 6186   0.182   1.899   7.823 -0.2216 -0.0293  0.3146
  387loPI   C5A 6187   0.204   1.960   7.551  0.0301  0.2554  0.0327
  387loPI   C6A 6188   0.564   1.956   7.254 -0.0676 -0.0892 -0.0951
  387loPI   C1B 6189   1.258   1.170   8.633  0.1172 -0.1285 -0.2374
  387loPI   C2B 6190   1.239   1.423   8.327  0.0796  0.1863 -0.3242
  387loPI   C3B 6191   1.024   1.438   7.985 -0.2029  0.0367  0.0727
  387loPI   C4B 6192   0.669   1.303   8.010 -0.0916 -0.0710 -0.4419
  388loPI    C1 6193   8.031   9.426   9.539  0.0002  0.1217  0.3269
  388loPI    C2 6194   7.843   9.128   9.728  0.0570  0.0318  0.2422
  388loPI    C3 6195   7.738   9.507   9.799 -0.4061 -0.0297 -0.0707
  388loPI   PO4 6196   8.032   9.336   9.231  0.2999  0.0553 -0.0950
  388loPI   GL1 6197   7.754   9.370   8.866  0.2932  0.1121 -0.2032
  388loPI   GL2 6198   7.741   9.658   8.784  0.0317  0.2651  0.3129
  388loPI   C1A 6199   7.972   9.135   8.553  0.0826  0.0857  0.0417
  388loPI   C2A 6200   8.124   8.965   8.102 -0.2514  0.0927  0.1884
  388loPI   C3A 6201   8.178   8.661   7.775  0.0129  0.2389  0.2561
  388loPI   C4A 6202   8.222   8.243   7.572  0.0690 -0.1762  0.2240
  388loPI   C5A 6203   8.422   8.104   7.171  0.0435 -0.0860 -0.0766
  388loPI   C6A 6204   8.683   8.139   6.759  0.1778  0.0680  0.1335
  388loPI   C1B 6205   7.710   9.815   8.352 -0.0965 -0.0877 -0.0490
  388loPI   C2B 6206   7.781   9.919   7.990 -0.1493  0.0305  0.0079
  388loPI   C3B 6207   7.792  10.122   7.609  0.0669 -0.0110  0.0117
  388loPI   C4B 6208   7.642  10.542   7.502  0.1429 -0.1433  0.1437
  389loPI    C1 6209  11.906   6.887  10.033 -0.0001  0.0217 -0.0092
  389loPI    C2 6210  11.568   7.047   9.892 -0.0616  0.1322  0.2571
  389loPI    C3 6211  11.552   6.734  10.140  0.0293  0.1665  0.3066
  389loPI   PO4 6212  12.040   6.865   9.799 -0.1555  0.2759 -0.2030
  389loPI   GL1 6213  12.324   7.176   9.546 -0.1289  0.0937 -0.0992
  389loPI   GL2 6214  12.360   6.901   9.347  0.1929 -0.0318  0.0613
  389loPI   C1A 6215  12.284   7.525   9.311  0.3352 -0.3189 -0.3426
  389loPI   C2A 6216  12.231   7.581   8.815 -0.2258 -0.0024  0.1718
  389loPI   C3A 6217  12.454   7.522   8.501  0.3248 -0.0777 -0.0250
  389loPI   C4A 6218  12.780   7.671   8.209 -0.1350  0.0523 -0.0077
  389loPI   C5A 6219  13.010   7.762   7.805  0.0849 -0.1167  0.0880
  389loPI   C6A 6220  13.067   8.124   7.523 -0.1076 -0.2595 -0.0804
  389loPI   C1B 6221  12.440   7.026   8.954  0.1518 -0.3069  0.0638
  389loPI   C2B 6222  12.495   7.062   8.556  0.3437  0.4437 -0.1435
  389loPI   C3B 6223  12.619   7.227   8.059 -0.0359 -0.1898  0.0395
  389loPI   C4B 6224  12.753   7.321   7.637  0.0822  0.0418 -0.2884
  390loPI    C1 6225   5.540   6.738   9.561 -0.2549 -0.2410  0.0077
  390loPI    C2 6226   5.230   6.960   9.681 -0.0337 -0.0429  0.2227
  390loPI    C3 6227   5.590   7.011   9.849  0.1504 -0.1693 -0.1234
  390loPI   PO4 6228   5.310   6.476   9.548 -0.2375 -0.0780 -0.3656
  390loPI   GL1 6229   4.913   6.595   9.560  0.4853 -0.1558 -0.2791
  390loPI   GL2 6230   4.850   6.257   9.521 -0.0892 -0.0315 -0.0969
  390loPI   C1A 6231   4.940   6.523   9.059 -0.1034 -0.0550 -0.3640
  390loPI   C2A 6232   5.011   6.444   8.597  0.0077  0.1459  0.4216
  390loPI   C3A 6233   5.258   6.333   8.399  0.4302  0.0888  0.1848
  390loPI   C4A 6234   5.383   6.299   8.114  0.0705 -0.0862  0.1453
  390loPI   C5A 6235   5.395   6.388   7.780 -0.1194 -0.2155  0.0007
  390loPI   C6A 6236   5.765   6.468   7.585 -0.1641  0.0546 -0.1754
  390loPI   C1B 6237   4.654   6.062   9.104  0.0429 -0.0048 -0.0874
  390loPI   C2B 6238   4.686   6.093   8.607  0.0937  0.0512 -0.2780
  390loPI   C3B 6239   4.478   5.860   8.420  0.1934  0.2308  0.1456
  390loPI   C4B 6240   4.437   5.517   8.065 -0.2602  0.1154  0.2064
  391loPI    C1 6241  18.278  18.412   9.792  0.0910  0.0179 -0.1387
  391loPI    C2 6242  18.175  18.565  10.147  0.1055 -0.0170 -0.1194
  391loPI    C3 6243  18.554  18.457  10.078  0.1538  0.2164 -0.2291
  391loPI   PO4 6244  18.106  18.461   9.639  0.3052 -0.1058 -0.1386
  391loPI   GL1 6245  18.066  18.735   9.432  0.2397 -0.2256  0.1593
  391loPI   GL2 6246  17.787  18.812   9.276 -0.2003 -0.3135  0.1861
  391loPI   C1A 6247  18.270  18.883   9.067 -0.1529 -0.0436 -0.4288
  391loPI   C2A 6248  18.170  18.870   8.573  0.2547 -0.0136  0.0249
  391loPI   C3A 6249  18.027  18.765   8.144  0.1012  0.1045  0.2055
  391loPI   C4A 6250  18.096  18.735   7.647 -0.4181 -0.1590 -0.2133
  391loPI   C5A 6251  18.146  18.600   7.272 -0.1086  0.0226 -0.2048
  391loPI   C6A 6252  17.881  18.318   6.927  0.0668 -0.1491  0.4342
  391loPI   C1B 6253  17.677  18.776   8.930 -0.0854 -0.2919 -0.0914
  391loPI   C2B 6254  17.773  19.129   8.563  0.2151  0.0878 -0.2889
  391loPI   C3B 6255  17.957  19.476   8.526  0.0647 -0.1433 -0.0719
  391loPI   C4B 6256  18.239  19.687   8.376  0.3330  0.0342  0.0627
  392loPI    C1 6257   1.970   8.435  10.533  0.3075 -0.1366 -0.0994
  392loPI    C2 6258   1.927   8.826  10.610  0.1074 -0.1765 -0.0032
  392loPI    C3 6259   2.173   8.603  10.834  0.2269 -0.1048 -0.0624
  392loPI   PO4 6260   2.019   8.373  10.243 -0.0214  0.4426 -0.0320
  392loPI   GL1 6261   2.403   8.303  10.047 -0.0135  0.0838  0.1002
  392loPI   GL2 6262   2.695   8.485   9.964  0.0475  0.3618  0.1525
  392loPI   C1A 6263   2.243   8.186   9.638  0.0157  0.2448 -0.3059
  392loPI   C2A 6264   2.139   7.939   9.227 -0.0563 -0.0219 -0.0506
  392loPI   C3A 6265   2.256   7.967   8.750  0.0651 -0.2312  0.3441
  392loPI   C4A 6266   2.288   7.814   8.190  0.0565 -0.1921 -0.4470
  392loPI   C5A 6267   2.000   7.871   7.875  0.3199  0.0724  0.0801
  392loPI   C6A 6268   1.673   7.698   7.540 -0.0288  0.3234 -0.0514
  392loPI   C1B 6269   2.549   8.455   9.452  0.4001 -0.2805  0.0085
  392loPI   C2B 6270   2.439   8.483   9.066  0.0131 -0.1271 -0.1530
  392loPI   C3B 6271   2.526   8.751   8.714  0.0760 -0.1123 -0.1592
  392loPI   C4B 6272   2.615   8.854   8.346 -0.2975  0.0828  0.0006
  393loPI    C1 6273   9.489   3.143   9.500  0.0175  0.1440  0.0810
  393loPI    C2 6274   9.776   3.175   9.776  0.0036  0.3828  0.0703
  393loPI    C3 6275   9.393   3.143   9.888  0.0077  0.3672  0.0799
  393loPI   PO4 6276   9.539   3.298   9.289  0.0537  0.0384  0.0377
  393loPI   GL1 6277   9.838   3.269   8.891  0.3640  0.3885 -0.1670
  393loPI   GL2 6278   9.970   3.485   8.997 -0.1090  0.1665  0.1962
  393loPI   C1A 6279   9.893   3.255   8.446 -0.0034 -0.1286  0.6056
  393loPI   C2A 6280   9.853   3.433   8.086  0.0968 -0.0619 -0.0721
  393loPI   C3A 6281   9.997   3.526   7.589 -0.4920 -0.0499 -0.2113
  393loPI   C4A 6282  10.396   3.305   7.281 -0.1329 -0.1209  0.1683
  393loPI   C5A 6283  10.464   3.283   6.881 -0.3605 -0.1140  0.3672
  393loPI   C6A 6284  10.146   3.185   6.472  0.0284  0.2146  0.1017
  393loPI   C1B 6285  10.045   3.779   8.790  0.0591 -0.0236  0.1964
  393loPI   C2B 6286   9.970   3.928   8.380 -0.4310  0.0485 -0.3150
  393loPI   C3B 6287   9.965   4.160   8.073 -0.0412  0.3034  0.2622
  393loPI   C4B 6288  10.102   4.074   7.748 -0.2209  0.0780 -0.0422
  394loPI    C1 6289   3.877   9.913  10.121 -0.1591 -0.1440  0.1213
  394loPI    C2 6290   3.626   9.714  10.361 -0.0425  0.0944  0.4482
  394loPI    C3 6291   4.017   9.723  10.444  0.0300  0.0064  0.1297
  394loPI   PO4 6292   3.833   9.868   9.909  0.2722 -0.3794  0.3322
  394loPI   GL1 6293   3.642  10.024   9.643  0.1801 -0.0534 -0.1043
  394loPI   GL2 6294   3.353  10.118   9.671  0.5105 -0.2010 -0.1309
  394loPI   C1A 6295   3.481  10.038   9.106  0.2953 -0.0532 -0.0002
  394loPI   C2A 6296   3.398  10.031   8.657  0.1784 -0.3203  0.0995
  394loPI   C3A 6297   3.376  10.141   8.121  0.0598  0.1189  0.2491
  394loPI   C4A 6298   3.164  10.149   7.665 -0.0379  0.0570 -0.0572
  394loPI   C5A 6299   3.395   9.863   7.436  0.4298  0.1190 -0.0050
  394loPI   C6A 6300   3.614   9.407   7.348 -0.1027 -0.2194  0.2410
  394loPI   C1B 6301   3.252  10.442   9.271  0.2875  0.0445 -0.0331
  394loPI   C2B 6302   3.220  10.575   8.857 -0.0333  0.1316  0.0753
  394loPI   C3B 6303   3.136  10.651   8.441  0.2589 -0.2691  0.1567
  394loPI   C4B 6304   3.051  10.771   7.997  0.1728 -0.0354 -0.0057
  395loPI    C1 6305   4.471  11.671   9.997  0.2122 -0.1918 -0.3927
  395loPI    C2 6306   4.770  11.803   9.766  0.2468  0.1437 -0.1622
  395loPI    C3 6307   4.836  11.717  10.151  0.0292  0.3063 -0.0865
  395loPI   PO4 6308   4.255  11.585   9.760  0.0845 -0.1068  0.2429
  395loPI   GL1 6309   3.906  11.766   9.529  0.0189 -0.1584 -0.3394
  395loPI   GL2 6310   3.891  12.125   9.446 -0.1680 -0.2443 -0.2324
  395loPI   C1A 6311   4.115  11.667   9.090 -0.3038 -0.1285 -0.0271
  395loPI   C2A 6312   4.378  11.605   8.698  0.0897  0.1296  0.1751
  395loPI   C3A 6313   4.472  11.394   8.331  0.0957  0.1068  0.1323
  395loPI   C4A 6314   4.398  11.021   8.128 -0.1064 -0.1881 -0.0983
  395loPI   C5A 6315   4.384  10.924   7.721  0.0691  0.2523  0.0697
  395loPI   C6A 6316   4.395  10.704   7.350 -0.0106 -0.2781  0.3505
  395loPI   C1B 6317   3.709  12.255   9.086 -0.1828  0.0751  0.2037
  395loPI   C2B 6318   3.846  12.362   8.668  0.0495 -0.0480  0.1456
  395loPI   C3B 6319   3.872  12.449   8.238  0.0261 -0.2073 -0.1165
  395loPI   C4B 6320   3.434  12.517   8.039  0.2134  0.0065 -0.0308
  396loPI    C1 6321  18.167  14.476   9.819 -0.0406  0.0188 -0.1220
  396loPI    C2 6322  18.036  14.704  10.120  0.0228  0.2036 -0.2327
  396loPI    C3 6323  18.360  14.475  10.170 -0.1161  0.0374 -0.0801
  396loPI   PO4 6324  18.028  14.684   9.645  0.3667 -0.0792  0.1494
  396loPI   GL1 6325  17.901  14.683   9.238  0.0980  0.1770 -0.2803
  396loPI   GL2 6326  17.979  15.049   9.155  0.1244  0.4322 -0.1933
  396loPI   C1A 6327  17.802  14.550   8.799 -0.0908 -0.2145 -0.1609
  396loPI   C2A 6328  17.786  14.511   8.391 -0.0035  0.0854 -0.0199
  396loPI   C3A 6329  17.804  14.448   7.961 -0.0652  0.2257  0.1932
  396loPI   C4A 6330  17.747  14.181   7.623  0.1226 -0.3052 -0.2379
  396loPI   C5A 6331  17.599  13.759   7.493 -0.0379 -0.4553  0.1448
  396loPI   C6A 6332  17.211  13.540   7.614 -0.2219 -0.3711  0.3885
  396loPI   C1B 6333  17.927  15.048   8.726 -0.0167 -0.0321  0.1367
  396loPI   C2B 6334  17.786  15.044   8.332 -0.0744  0.0865  0.1843
  396loPI   C3B 6335  17.636  15.376   8.055 -0.1635  0.1426  0.0209
  396loPI   C4B 6336  17.714  15.596   7.616 -0.1087  0.2224  0.0301
  397loPI    C1 6337  17.975  12.882   9.919 -0.0152 -0.0383 -0.0728
  397loPI    C2 6338  17.784  12.841  10.268 -0.0596  0.0622 -0.0849
  397loPI    C3 6339  18.044  12.561  10.148  0.1143  0.1293  0.1273
  397loPI   PO4 6340  17.853  13.104   9.832 -0.0010 -0.3347  0.1081
  397loPI   GL1 6341  17.650  13.273   9.607 -0.0426 -0.2159  0.0025
  397loPI   GL2 6342  17.976  13.195   9.401  0.2994  0.4419 -0.1786
  397loPI   C1A 6343  17.207  13.294   9.380 -0.5965 -0.1094 -0.1593
  397loPI   C2A 6344  17.155  13.192   8.901  0.0435 -0.2900 -0.2530
  397loPI   C3A 6345  16.938  13.256   8.549 -0.0545 -0.1731  0.4704
  397loPI   C4A 6346  16.852  13.459   8.157  0.0804  0.3581 -0.3004
  397loPI   C5A 6347  16.622  13.808   7.881  0.2569  0.3040  0.3883
  397loPI   C6A 6348  16.800  14.206   7.551 -0.0336  0.0803 -0.0944
  397loPI   C1B 6349  17.813  12.974   9.050 -0.1033 -0.4701 -0.0148
  397loPI   C2B 6350  17.828  12.960   8.606 -0.0457 -0.0960  0.0520
  397loPI   C3B 6351  17.823  12.993   8.104 -0.2909 -0.0782  0.1286
  397loPI   C4B 6352  17.785  13.170   7.763 -0.1657  0.1303 -0.0168
  398loPI    C1 6353   1.665  13.961  10.119  0.1397  0.2392 -0.0847
  398loPI    C2 6354   1.558  14.339  10.192 -0.2058  0.1258  0.0179
  398loPI    C3 6355   1.546  14.069  10.486 -0.1773 -0.0137 -0.1081
  398loPI   PO4 6356   1.522  13.900   9.907  0.1420 -0.0323  0.1351
  398loPI   GL1 6357   1.202  13.987   9.482 -0.2011 -0.1862 -0.1289
  398loPI   GL2 6358   1.197  14.263   9.210  0.1740 -0.1999  0.0060
  398loPI   C1A 6359   0.942  13.866   9.091  0.0746  0.0494  0.2152
  398loPI   C2A 6360   0.747  13.775   8.660 -0.1462 -0.4805  0.4395
  398loPI   C3A 6361   0.413  13.822   8.432  0.0049  0.1415  0.1670
  398loPI   C4A 6362   0.308  13.705   8.046 -0.1852 -0.1824  0.1181
  398loPI   C5A 6363   0.678  13.531   7.772 -0.1951  0.1429 -0.2637
  398loPI   C6A 6364   0.601  13.295   7.395  0.4422 -0.0626 -0.1195
  398loPI   C1B 6365   1.165  14.170   8.784 -0.3990  0.1911  0.1354
  398loPI   C2B 6366   1.154  14.326   8.402  0.0849  0.0146 -0.1575
  398loPI   C3B 6367   1.160  14.600   7.937 -0.0378 -0.0035 -0.2963
  398loPI   C4B 6368   1.219  14.703   7.470 -0.0348 -0.2758  0.0900
  399loPI    C1 6369  17.799   1.517  10.284  0.0152  0.3199 -0.1340
  399loPI    C2 6370  18.074   1.621  10.013 -0.0070 -0.0199 -0.2923
  399loPI    C3 6371  18.184   1.427  10.345 -0.0098  0.1892 -0.1670
  399loPI   PO4 6372  17.644   1.399  10.095 -0.1202 -0.2803  0.1396
  399loPI   GL1 6373  17.568   1.537   9.687 -0.1743 -0.0760 -0.3395
  399loPI   GL2 6374  17.843   1.421   9.586  0.4364 -0.1650 -0.0750
  399loPI   C1A 6375  17.302   1.436   9.307  0.0080 -0.2251  0.3348
  399loPI   C2A 6376  17.316   1.390   8.814 -0.3684  0.1245  0.0721
  399loPI   C3A 6377  17.550   1.149   8.513 -0.1270  0.3354 -0.1530
  399loPI   C4A 6378  17.782   1.212   8.126  0.0426  0.0884 -0.1296
  399loPI   C5A 6379  17.578   1.039   7.760 -0.0547 -0.3710 -0.1221
  399loPI   C6A 6380  17.341   0.821   7.477 -0.0121 -0.3276 -0.3780
  399loPI   C1B 6381  17.839   1.692   9.254 -0.1401  0.1022  0.1937
  399loPI   C2B 6382  17.999   1.899   8.887 -0.1458  0.0584  0.0540
  399loPI   C3B 6383  18.229   1.940   8.535  0.1583 -0.0248  0.1030
  399loPI   C4B 6384  18.555   2.207   8.403  0.5574 -0.0035  0.1000
  400loPI    C1 6385  15.663   3.737  10.261 -0.0533 -0.0335  0.0073
  400loPI    C2 6386  15.878   4.074  10.277 -0.1716  0.0324  0.2623
  400loPI    C3 6387  16.022   3.737  10.438 -0.1784  0.0315  0.2665
  400loPI   PO4 6388  15.616   3.637  10.040 -0.0492  0.1021 -0.1149
  400loPI   GL1 6389  15.625   3.556   9.649 -0.1439 -0.3023 -0.3881
  400loPI   GL2 6390  15.256   3.626   9.625 -0.0507 -0.0913  0.3906
  400loPI   C1A 6391  15.469   3.254   9.260 -0.0492  0.3495 -0.0041
  400loPI   C2A 6392  15.462   3.176   8.747  0.2765 -0.3843 -0.1647
  400loPI   C3A 6393  15.423   2.929   8.518 -0.1844  0.6329  0.1439
  400loPI   C4A 6394  15.582   2.763   8.237  0.0448 -0.2367 -0.2134
  400loPI   C5A 6395  15.598   2.804   7.811 -0.1549  0.1909 -0.2714
  400loPI   C6A 6396  15.853   2.748   7.384 -0.0896  0.0250 -0.0123
  400loPI   C1B 6397  15.312   3.711   9.184  0.4926 -0.1974 -0.1858
  400loPI   C2B 6398  15.129   3.540   8.772  0.0562 -0.1120 -0.2815
  400loPI   C3B 6399  15.020   3.283   8.394  0.0702 -0.0102  0.1022
  400loPI   C4B 6400  14.613   3.085   8.201  0.1130  0.2968 -0.1359
  401loPI    C1 6401   1.393  14.861   9.362 -0.0189  0.1347  0.1314
  401loPI    C2 6402   1.241  15.023   9.695  0.3558  0.4105  0.1746
  401loPI    C3 6403   1.627  14.919   9.681  0.2849  0.1699 -0.0933
  401loPI   PO4 6404   1.163  14.765   9.261  0.2525  0.1307 -0.1590
  401loPI   GL1 6405   1.337  14.600   8.818 -0.1085 -0.1518  0.0201
  401loPI   GL2 6406   1.628  14.539   9.076 -0.4217  0.1533  0.2568
  401loPI   C1A 6407   1.723  14.837   8.694  0.0804 -0.1520 -0.2919
  401loPI   C2A 6408   1.958  15.029   8.372 -0.2905  0.0046  0.1935
  401loPI   C3A 6409   2.019  14.751   8.027 -0.2646 -0.0011  0.0529
  401loPI   C4A 6410   1.688  14.484   7.795 -0.2097 -0.1828 -0.1469
  401loPI   C5A 6411   1.313  14.161   7.876  0.2169 -0.1277 -0.1077
  401loPI   C6A 6412   0.913  13.976   7.615  0.1161 -0.2931  0.0541
  401loPI   C1B 6413   1.669  14.201   8.848  0.0495  0.1747  0.2124
  401loPI   C2B 6414   1.732  13.998   8.449  0.1199 -0.0910  0.4714
  401loPI   C3B 6415   1.759  13.992   7.965  0.0340  0.5384  0.2742
  401loPI   C4B 6416   1.821  14.112   7.495  0.0861  0.3188 -0.0637
  402loPI    C1 6417  13.759   9.758   9.841 -0.2142 -0.0599 -0.1566
  402loPI    C2 6418  13.403   9.940   9.832 -0.0666  0.2474  0.0381
  402loPI    C3 6419  13.558   9.822  10.181  0.0045  0.0746 -0.0504
  402loPI   PO4 6420  13.961   9.891   9.791  0.2713 -0.0425 -0.1330
  402loPI   GL1 6421  14.235   9.947   9.402  0.0592 -0.0882 -0.1210
  402loPI   GL2 6422  14.198  10.180   9.236 -0.2175  0.0158 -0.2130
  402loPI   C1A 6423  14.497   9.628   9.220 -0.0022 -0.3310 -0.1876
  402loPI   C2A 6424  14.780   9.570   8.876 -0.0915 -0.0016 -0.1243
  402loPI   C3A 6425  14.954   9.533   8.533 -0.3205 -0.0718  0.0495
  402loPI   C4A 6426  14.964   9.485   8.142  0.5409 -0.2161  0.0310
  402loPI   C5A 6427  15.147   9.588   7.684 -0.3653  0.2617 -0.3096
  402loPI   C6A 6428  15.337   9.662   7.350 -0.3349 -0.1192 -0.3609
  402loPI   C1B 6429  14.126  10.387   8.861 -0.2328  0.0662 -0.2082
  402loPI   C2B 6430  14.118  10.647   8.580 -0.0733 -0.0927 -0.5137
  402loPI   C3B 6431  14.017  10.810   8.140 -0.0679 -0.4224 -0.0665
  402loPI   C4B 6432  14.170  11.088   7.784  0.1739  0.2642  0.4294
  403loPI    C1 6433   8.252   0.643   9.312 -0.0797  0.0654 -0.0739
  403loPI    C2 6434   8.553   0.809   9.517 -0.0248 -0.0582 -0.0534
  403loPI    C3 6435   8.329   0.523   9.686 -0.2610  0.1495 -0.0083
  403loPI   PO4 6436   8.419   0.548   9.064 -0.0075  0.0696 -0.3558
  403loPI   GL1 6437   8.358   0.327   8.685  0.0494  0.0653  0.1822
  403loPI   GL2 6438   8.504  -0.022   8.623  0.1153 -0.1209  0.4215
  403loPI   C1A 6439   8.520   0.394   8.331  0.0379  0.2043  0.0737
  403loPI   C2A 6440   8.602   0.335   7.910  0.0430 -0.1357 -0.1457
  403loPI   C3A 6441   8.542   0.323   7.477  0.0246  0.0214  0.3158
  403loPI   C4A 6442   8.518   0.322   7.004 -0.0588  0.1101 -0.1219
  403loPI   C5A 6443   8.256   0.088   6.664 -0.2411 -0.0200 -0.0911
  403loPI   C6A 6444   8.348  -0.261   6.490 -0.0846  0.2462  0.0168
  403loPI   C1B 6445   8.452  -0.144   8.149 -0.0896 -0.0113  0.1640
  403loPI   C2B 6446   8.305  -0.288   7.798  0.0624 -0.0230 -0.0232
  403loPI   C3B 6447   8.232  -0.023   7.432 -0.2305  0.1331  0.0362
  403loPI   C4B 6448   7.992   0.126   7.097  0.1024 -0.1461 -0.2118
  404loPI    C1 6449  10.264  15.453   9.142 -0.0182  0.0026 -0.0928
  404loPI    C2 6450   9.926  15.529   9.343 -0.0431 -0.0582 -0.1116
  404loPI    C3 6451  10.204  15.289   9.502  0.1130  0.2092  0.0250
  404loPI   PO4 6452  10.121  15.363   8.887 -0.4820 -0.1342  0.4995
  404loPI   GL1 6453  10.398  15.270   8.592  0.1314 -0.4412 -0.0819
  404loPI   GL2 6454  10.759  15.236   8.729  0.4307  0.1618 -0.0253
  404loPI   C1A 6455  10.536  14.916   8.319 -0.2859 -0.0147 -0.1267
  404loPI   C2A 6456  10.634  14.654   8.075  0.0564  0.2557  0.2425
  404loPI   C3A 6457  10.632  14.684   7.711 -0.1425  0.0610 -0.1962
  404loPI   C4A 6458  10.685  14.669   7.246 -0.1600 -0.2064  0.2940
  404loPI   C5A 6459  10.662  14.488   6.850  0.1563 -0.0071  0.0018
  404loPI   C6A 6460  10.354  14.454   6.661  0.0929  0.2510  0.1091
  404loPI   C1B 6461  10.904  15.287   8.233  0.0666  0.2234  0.4238
  404loPI   C2B 6462  11.215  15.292   7.960 -0.2392  0.3462 -0.1862
  404loPI   C3B 6463  11.417  15.555   7.642  0.0498 -0.2578 -0.0761
  404loPI   C4B 6464  11.784  15.776   7.413 -0.4758  0.0654  0.1422
  405loPI    C1 6465  10.123  12.459   9.444 -0.0236 -0.3727  0.0131
  405loPI    C2 6466   9.731  12.381   9.461 -0.0543 -0.2120  0.0554
  405loPI    C3 6467   9.940  12.429   9.799 -0.0953  0.1729  0.0298
  405loPI   PO4 6468  10.322  12.306   9.264 -0.0133 -0.1987 -0.0262
  405loPI   GL1 6469  10.227  12.396   8.872 -0.2179 -0.4194  0.3517
  405loPI   GL2 6470  10.620  12.664   8.728 -0.0728  0.1512 -0.0838
  405loPI   C1A 6471  10.303  12.420   8.407  0.2400  0.0233  0.1163
  405loPI   C2A 6472  10.216  12.422   7.902  0.2946 -0.1513  0.1548
  405loPI   C3A 6473  10.282  12.460   7.491  0.3084 -0.3778 -0.1152
  405loPI   C4A 6474  10.332  12.643   7.052 -0.1531 -0.2197  0.3377
  405loPI   C5A 6475  10.102  12.561   6.780 -0.4220  0.0991 -0.1992
  405loPI   C6A 6476   9.972  12.597   6.387 -0.0633  0.0015  0.2357
  405loPI   C1B 6477  10.667  12.710   8.213  0.0857 -0.1274  0.0496
  405loPI   C2B 6478  10.674  12.688   7.830  0.3394  0.2764 -0.0765
  405loPI   C3B 6479  10.874  12.560   7.458 -0.3393  0.2053 -0.1275
  405loPI   C4B 6480  10.768  12.319   7.094  0.0143 -0.1603  0.2545
  406loPI    C1 6481  18.101  15.198   9.760  0.0169  0.1535 -0.1434
  406loPI    C2 6482  18.372  15.269  10.045 -0.0035  0.1031 -0.1112
  406loPI    C3 6483  18.416  14.955   9.802 -0.1932 -0.0832  0.0912
  406loPI   PO4 6484  18.070  15.433   9.656  0.2014 -0.0618 -0.1987
  406loPI   GL1 6485  17.935  15.693   9.345  0.1152  0.1844  0.1787
  406loPI   GL2 6486  18.288  15.743   9.237  0.3045 -0.1960  0.0154
  406loPI   C1A 6487  17.845  15.914   9.043  0.0718 -0.1445  0.0328
  406loPI   C2A 6488  17.854  16.010   8.512  0.0646 -0.2411  0.0718
  406loPI   C3A 6489  18.124  16.280   8.245  0.0491  0.1372 -0.0564
  406loPI   C4A 6490  18.356  16.221   7.900 -0.1119  0.0386  0.2158
  406loPI   C5A 6491  18.561  16.006   7.629 -0.3032  0.1545 -0.0698
  406loPI   C6A 6492  18.494  15.632   7.319  0.1805 -0.0019 -0.0037
  406loPI   C1B 6493  18.106  15.486   8.909  0.1459  0.1133  0.0364
  406loPI   C2B 6494  18.024  15.514   8.453 -0.2081 -0.0207 -0.3834
  406loPI   C3B 6495  17.912  15.842   8.059 -0.1994  0.1932  0.0440
  406loPI   C4B 6496  18.096  15.890   7.586 -0.3050  0.2600 -0.2357
  407loPI    C1 6497   7.012  14.913   9.669 -0.2194 -0.2077 -0.0935
  407loPI    C2 6498   6.782  15.046   9.968 -0.0603 -0.1080 -0.0144
  407loPI    C3 6499   6.840  14.653   9.921  0.1307 -0.1146  0.2515
  407loPI   PO4 6500   6.904  14.959   9.430 -0.2190  0.1715  0.0411
  407loPI   GL1 6501   6.791  15.160   9.093  0.1603 -0.1456  0.0093
  407loPI   GL2 6502   7.147  15.192   9.082 -0.3838 -0.2645 -0.3536
  407loPI   C1A 6503   6.528  15.096   8.815  0.0822 -0.2623 -0.2385
  407loPI   C2A 6504   6.286  15.315   8.523 -0.0731  0.1065 -0.3144
  407loPI   C3A 6505   6.073  15.183   8.170 -0.1972  0.0141 -0.2935
  407loPI   C4A 6506   5.965  15.087   7.796  0.2887 -0.0622 -0.2221
  407loPI   C5A 6507   5.956  15.111   7.420  0.0450  0.2045 -0.1254
  407loPI   C6A 6508   6.112  15.193   7.052 -0.3206 -0.0318 -0.1121
  407loPI   C1B 6509   7.281  15.257   8.719  0.1169 -0.0534  0.2273
  407loPI   C2B 6510   7.545  15.428   8.442  0.0184  0.0051  0.0321
  407loPI   C3B 6511   7.524  15.666   7.996 -0.2933 -0.0581  0.1129
  407loPI   C4B 6512   7.759  15.757   7.680 -0.1815  0.2843  0.1146
  408loPI    C1 6513  12.097   1.096   9.508  0.0327 -0.3229 -0.1010
  408loPI    C2 6514  12.287   1.168   9.852 -0.1574  0.2372 -0.1031
  408loPI    C3 6515  12.015   0.876   9.832  0.0115  0.0567  0.1582
  408loPI   PO4 6516  12.236   1.035   9.310 -0.1584 -0.0868 -0.0534
  408loPI   GL1 6517  12.159   0.807   8.922 -0.1256  0.0544 -0.1841
  408loPI   GL2 6518  12.416   0.611   9.022 -0.0265  0.0240  0.2453
  408loPI   C1A 6519  12.144   0.986   8.513 -0.3321 -0.0476  0.1056
  408loPI   C2A 6520  12.179   1.022   8.077 -0.2302 -0.0958 -0.1575
  408loPI   C3A 6521  12.097   1.090   7.664  0.0997  0.0981 -0.2394
  408loPI   C4A 6522  12.320   1.072   7.360 -0.1405 -0.1181 -0.0457
  408loPI   C5A 6523  12.495   1.320   7.130 -0.0243 -0.0277  0.0509
  408loPI   C6A 6524  12.880   1.302   6.953  0.1261 -0.0182 -0.1441
  408loPI   C1B 6525  12.459   0.573   8.581  0.0014 -0.0773 -0.1805
  408loPI   C2B 6526  12.578   0.742   8.249 -0.3003  0.2517  0.0088
  408loPI   C3B 6527  12.613   0.847   7.803  0.2591  0.1549 -0.2940
  408loPI   C4B 6528  12.913   1.053   7.492 -0.3318  0.2359 -0.0264
  409loPI    C1 6529   0.218   7.186  10.179 -0.0965 -0.3206 -0.0853
  409loPI    C2 6530   0.507   7.348   9.954 -0.1554 -0.1211 -0.0202
  409loPI    C3 6531   0.517   6.958  10.044 -0.0690 -0.1781 -0.2691
  409loPI   PO4 6532   0.180   7.392  10.340  0.4482  0.1834  0.1602
  409loPI   GL1 6533   0.044   7.762  10.084 -0.0484 -0.0141 -0.0175
  409loPI   GL2 6534  -0.193   7.533   9.974 -0.0807  0.0425  0.1247
  409loPI   C1A 6535  -0.136   8.013   9.653  0.0417 -0.0138  0.0147
  409loPI   C2A 6536  -0.293   8.168   9.261 -0.2057  0.1717 -0.1231
  409loPI   C3A 6537  -0.204   8.173   8.788  0.0184  0.4970  0.2973
  409loPI   C4A 6538  -0.130   8.402   8.347 -0.1611  0.2545 -0.0032
  409loPI   C5A 6539  -0.004   8.536   7.970 -0.0203 -0.1547  0.3452
  409loPI   C6A 6540  -0.033   8.742   7.504 -0.0852 -0.2524  0.1296
  409loPI   C1B 6541   0.123   7.422   9.577  0.0525 -0.0126  0.0160
  409loPI   C2B 6542   0.462   7.190   9.422 -0.3009 -0.2060 -0.2194
  409loPI   C3B 6543   0.849   7.294   9.456 -0.2022  0.1847 -0.0322
  409loPI   C4B 6544   1.079   7.292   9.743 -0.0063  0.0168 -0.0492
  410loPI    C1 6545   9.344  10.867   9.312 -0.4062 -0.2846  0.0119
  410loPI    C2 6546   9.139  10.979   9.636  0.0684 -0.0769  0.2512
  410loPI    C3 6547   9.536  10.939   9.655  0.1260  0.1089 -0.3520
  410loPI   PO4 6548   9.124  10.761   9.175 -0.0814  0.0225  0.1266
  410loPI   GL1 6549   8.950  10.704   8.779  0.2760  0.1500 -0.2683
  410loPI   GL2 6550   8.719  10.878   8.595  0.0242  0.1666 -0.1197
  410loPI   C1A 6551   9.384  10.592   8.577  0.2924 -0.3812  0.1461
  410loPI   C2A 6552   9.769  10.349   8.397  0.1091 -0.1352 -0.0994
  410loPI   C3A 6553   9.928  10.240   8.043 -0.1474 -0.1118 -0.3646
  410loPI   C4A 6554  10.000  10.297   7.690 -0.5110 -0.0116  0.1025
  410loPI   C5A 6555  10.238  10.396   7.248  0.1047  0.0563 -0.4224
  410loPI   C6A 6556   9.991  10.326   6.853  0.0066  0.0096 -0.0607
  410loPI   C1B 6557   8.963  10.697   8.187  0.4340  0.0169  0.1155
  410loPI   C2B 6558   9.194  10.859   7.869 -0.2876 -0.1365  0.2801
  410loPI   C3B 6559   9.278  10.871   7.404  0.0878 -0.0195  0.1705
  410loPI   C4B 6560   9.208  10.582   7.104  0.1682  0.4271 -0.0834
  411loPI    C1 6561  10.445   4.045   9.475 -0.1581 -0.0148  0.0440
  411loPI    C2 6562  10.159   4.296   9.352 -0.1216 -0.0359 -0.0858
  411loPI    C3 6563  10.178   3.926   9.202  0.1914  0.0829 -0.3500
  411loPI   PO4 6564  10.729   4.114   9.410  0.1204  0.0295  0.1132
  411loPI   GL1 6565  10.869   4.229   8.975  0.1976  0.0114  0.0539
  411loPI   GL2 6566  11.177   4.261   9.059  0.0822 -0.1286  0.0775
  411loPI   C1A 6567  10.912   4.264   8.442  0.0835 -0.1324 -0.0350
  411loPI   C2A 6568  11.034   4.430   8.099  0.3239 -0.0028  0.1785
  411loPI   C3A 6569  11.137   4.295   7.621  0.3957  0.1261  0.1589
  411loPI   C4A 6570  10.813   4.252   7.334 -0.1396  0.0352  0.3355
  411loPI   C5A 6571  10.347   4.233   7.308 -0.1571 -0.0674  0.2908
  411loPI   C6A 6572   9.937   4.209   7.277 -0.1923  0.1528 -0.0443
  411loPI   C1B 6573  11.315   4.522   8.877 -0.3522  0.3770  0.3139
  411loPI   C2B 6574  11.353   4.651   8.448 -0.2116  0.1628  0.1345
  411loPI   C3B 6575  11.534   4.643   8.016 -0.1666 -0.1146 -0.5191
  411loPI   C4B 6576  11.475   4.753   7.582  0.3197 -0.1281  0.1287
  412loPI    C1 6577  18.264   3.700  10.055 -0.1000 -0.2951 -0.2087
  412loPI    C2 6578  18.008   3.683  10.361 -0.0827  0.0163 -0.1735
  412loPI    C3 6579  18.402   3.678  10.430 -0.0789  0.0158 -0.1949
  412loPI   PO4 6580  18.166   3.626   9.921 -0.2666  0.0495  0.2380
  412loPI   GL1 6581  18.066   3.317   9.590 -0.1425 -0.1313 -0.1309
  412loPI   GL2 6582  18.244   3.589   9.453 -0.0544 -0.1138 -0.2441
  412loPI   C1A 6583  17.943   2.965   9.350 -0.0058  0.2679  0.3986
  412loPI   C2A 6584  17.766   2.822   9.073  0.6958 -0.3235  0.2426
  412loPI   C3A 6585  17.810   2.780   8.599  0.1236 -0.0613 -0.0381
  412loPI   C4A 6586  17.687   2.597   8.217  0.0033 -0.2087 -0.0483
  412loPI   C5A 6587  17.510   2.471   7.931  0.1913  0.4237 -0.3494
  412loPI   C6A 6588  17.417   2.732   7.635  0.3179  0.0943  0.0377
  412loPI   C1B 6589  18.450   3.828   9.053 -0.0021  0.2156  0.2830
  412loPI   C2B 6590  18.669   3.909   8.704  0.0923  0.0931  0.1654
  412loPI   C3B 6591  18.636   3.944   8.231  0.1230 -0.2863  0.4101
  412loPI   C4B 6592  18.642   3.678   7.841  0.0292 -0.0623  0.1816
  413loPI    C1 6593   6.576  11.268   9.717 -0.1758 -0.0406 -0.1692
  413loPI    C2 6594   6.187  11.178   9.692 -0.2120  0.0338  0.0939
  413loPI    C3 6595   6.344  11.293  10.042  0.0665 -0.0826  0.0103
  413loPI   PO4 6596   6.779  11.058   9.626  0.1807 -0.0107 -0.2584
  413loPI   GL1 6597   6.801  10.976   9.147 -0.0317  0.1141  0.2785
  413loPI   GL2 6598   6.624  11.179   9.129 -0.0534 -0.4053 -0.0301
  413loPI   C1A 6599   6.680  10.743   8.854 -0.0206  0.2479  0.0551
  413loPI   C2A 6600   6.552  10.752   8.446 -0.0227  0.0810 -0.1194
  413loPI   C3A 6601   6.647  10.714   8.102  0.1097  0.0546  0.2312
  413loPI   C4A 6602   6.659  10.810   7.705  0.4580  0.0628  0.0604
  413loPI   C5A 6603   6.834  10.744   7.256  0.2624 -0.2421 -0.3273
  413loPI   C6A 6604   6.796  10.460   6.899 -0.1503 -0.2551 -0.1291
  413loPI   C1B 6605   6.378  11.126   8.757 -0.0020 -0.2211  0.0639
  413loPI   C2B 6606   6.346  11.220   8.436 -0.2141  0.0348  0.5103
  413loPI   C3B 6607   6.261  11.049   8.062  0.1793  0.1545 -0.2286
  413loPI   C4B 6608   6.082  10.866   7.668  0.1517 -0.2523 -0.0230
  414loPI    C1 6609   4.009  10.648  10.298 -0.0927 -0.0224  0.0194
  414loPI    C2 6610   4.377  10.514  10.379 -0.0606  0.0692  0.0254
  414loPI    C3 6611   4.058  10.293  10.476  0.0038 -0.1835 -0.3216
  414loPI   PO4 6612   4.077  10.784  10.070 -0.0649  0.1326 -0.1143
  414loPI   GL1 6613   3.698  10.963   9.898  0.0858  0.0331 -0.0320
  414loPI   GL2 6614   3.722  10.800   9.664 -0.0406 -0.3530  0.1197
  414loPI   C1A 6615   3.642  11.335   9.735 -0.0461  0.0618  0.0604
  414loPI   C2A 6616   3.742  11.348   9.204 -0.0871 -0.2114 -0.1458
  414loPI   C3A 6617   3.851  11.388   8.737 -0.2521 -0.2065 -0.4450
  414loPI   C4A 6618   4.016  11.247   8.347 -0.0804  0.0387  0.0090
  414loPI   C5A 6619   3.831  11.002   7.958 -0.1499  0.0225 -0.0164
  414loPI   C6A 6620   3.565  11.190   7.554 -0.0528 -0.0821  0.0666
  414loPI   C1B 6621   3.854  10.823   9.184  0.2466  0.4241 -0.0115
  414loPI   C2B 6622   4.188  11.121   9.018  0.0223  0.0658  0.0242
  414loPI   C3B 6623   4.401  11.054   8.633 -0.0157  0.1378 -0.2973
  414loPI   C4B 6624   4.902  11.020   8.457 -0.0248 -0.1459 -0.0602
  415loPI    C1 6625  17.842  12.312  10.553  0.2215 -0.3546  0.0564
  415loPI    C2 6626  17.807  12.541  10.878 -0.0378 -0.1894 -0.0845
  415loPI    C3 6627  18.143  12.552  10.661 -0.0440  0.0539 -0.0857
  415loPI   PO4 6628  17.658  12.363  10.449  0.0143 -0.3298  0.4287
  415loPI   GL1 6629  17.611  12.402   9.923 -0.1889  0.2682 -0.0178
  415loPI   GL2 6630  17.547  12.689   9.736  0.4580  0.3959  0.1814
  415loPI   C1A 6631  17.774  12.086   9.569 -0.1758  0.2056  0.0658
  415loPI   C2A 6632  17.912  11.832   9.325  0.3489  0.3982  0.1712
  415loPI   C3A 6633  17.982  11.583   9.021 -0.0660  0.0451  0.0806
  415loPI   C4A 6634  18.120  11.292   8.807 -0.1944  0.1044 -0.1196
  415loPI   C5A 6635  17.965  11.067   8.459 -0.1177 -0.0226 -0.0579
  415loPI   C6A 6636  17.807  10.932   8.018  0.1501 -0.1870 -0.0232
  415loPI   C1B 6637  17.841  12.574   9.360  0.2943  0.0077  0.1141
  415loPI   C2B 6638  17.898  12.477   8.946 -0.0590  0.1714  0.1432
  415loPI   C3B 6639  17.981  12.277   8.568 -0.1960  0.0884  0.0758
  415loPI   C4B 6640  18.070  11.986   8.144 -0.0975 -0.0805 -0.3431
  416loPI    C1 6641   8.560   2.879   9.704  0.2236  0.2383  0.0137
  416loPI    C2 6642   8.571   2.549   9.929  0.2368  0.2853  0.0825
  416loPI    C3 6643   8.537   2.908  10.102 -0.1245  0.2990 -0.0072
  416loPI   PO4 6644   8.354   2.849   9.477  0.2272  0.1427  0.0322
  416loPI   GL1 6645   8.043   2.832   9.262  0.1130  0.1454  0.0737
  416loPI   GL2 6646   7.995   2.561   9.256 -0.0635  0.0520  0.1037
  416loPI   C1A 6647   7.889   2.990   8.893 -0.1361 -0.3833 -0.0023
  416loPI   C2A 6648   7.965   3.185   8.477  0.1756 -0.1930  0.5458
  416loPI   C3A 6649   7.981   3.113   7.955 -0.0555  0.0401  0.5142
  416loPI   C4A 6650   8.010   3.149   7.532 -0.1395  0.3997 -0.0153
  416loPI   C5A 6651   7.976   3.122   7.121 -0.5690 -0.3107 -0.1306
  416loPI   C6A 6652   8.089   2.741   6.884 -0.1004  0.1874 -0.2789
  416loPI   C1B 6653   7.952   2.485   8.868 -0.1110  0.1946  0.0800
  416loPI   C2B 6654   8.089   2.275   8.451 -0.2899 -0.1929  0.0424
  416loPI   C3B 6655   8.297   2.309   8.125 -0.2460 -0.0285  0.0493
  416loPI   C4B 6656   8.207   2.289   7.662  0.2878 -0.0301 -0.0308
  417loPI    C1 6657   1.717   3.699   9.564 -0.1009  0.1666  0.1558
  417loPI    C2 6658   1.473   3.690   9.247 -0.0195  0.1106  0.0942
  417loPI    C3 6659   1.322   3.738   9.614 -0.0845  0.5496  0.0158
  417loPI   PO4 6660   1.927   3.874   9.484  0.1568 -0.2421  0.1648
  417loPI   GL1 6661   1.801   4.101   9.127  0.0070  0.2579  0.1175
  417loPI   GL2 6662   1.767   4.371   9.039  0.3180  0.2193  0.0591
  417loPI   C1A 6663   1.806   3.809   8.749 -0.2141 -0.2322  0.1000
  417loPI   C2A 6664   1.843   3.844   8.284 -0.2487  0.0215  0.1175
  417loPI   C3A 6665   1.869   3.764   7.961 -0.0846 -0.1850  0.0943
  417loPI   C4A 6666   2.100   4.028   7.640  0.0296 -0.0330  0.1613
  417loPI   C5A 6667   2.327   4.381   7.498  0.0641 -0.0882 -0.3341
  417loPI   C6A 6668   2.642   4.659   7.160  0.0265  0.0861 -0.1088
  417loPI   C1B 6669   1.630   4.322   8.641  0.1384  0.1155  0.2742
  417loPI   C2B 6670   1.506   4.372   8.210  0.1893 -0.1270 -0.1246
  417loPI   C3B 6671   1.156   4.430   7.916  0.0324  0.2397 -0.0610
  417loPI   C4B 6672   0.952   4.370   7.555  0.1153 -0.0530  0.0331
  418loPI    C1 6673   5.574  17.860   9.447 -0.0806  0.3430  0.1601
  418loPI    C2 6674   5.405  17.941   9.800  0.0290  0.1621  0.2554
  418loPI    C3 6675   5.792  17.842   9.782 -0.0439 -0.1063  0.1179
  418loPI   PO4 6676   5.365  17.909   9.311 -0.2270  0.0628  0.0658
  418loPI   GL1 6677   5.209  18.121   9.015  0.1308 -0.3828  0.0994
  418loPI   GL2 6678   4.939  18.405   8.971  0.1478  0.3735 -0.3042
  418loPI   C1A 6679   5.073  17.996   8.582 -0.1001  0.3593  0.1605
  418loPI   C2A 6680   4.930  17.962   8.137  0.1199 -0.1503  0.3153
  418loPI   C3A 6681   4.944  17.911   7.651  0.0650 -0.2114 -0.2045
  418loPI   C4A 6682   5.071  17.945   7.269 -0.1048 -0.2191  0.3472
  418loPI   C5A 6683   5.048  18.200   6.859  0.1172 -0.3021  0.0752
  418loPI   C6A 6684   5.282  18.627   6.674 -0.1160  0.2837 -0.0143
  418loPI   C1B 6685   5.095  18.485   8.561  0.0530  0.5259 -0.1037
  418loPI   C2B 6686   5.254  18.436   8.091  0.4273 -0.0648 -0.6159
  418loPI   C3B 6687   5.300  18.353   7.596 -0.3090 -0.0859 -0.0291
  418loPI   C4B 6688   5.404  18.388   7.242  0.0438  0.0901  0.3777
  419loPI    C1 6689   4.011  13.932   9.857 -0.1145  0.0101 -0.0152
  419loPI    C2 6690   4.392  13.811   9.842 -0.1062  0.0181  0.1240
  419loPI    C3 6691   4.286  14.109  10.087 -0.1782  0.1052 -0.0116
  419loPI   PO4 6692   3.920  13.828   9.572 -0.0920  0.1921  0.0302
  419loPI   GL1 6693   3.966  13.688   9.100  0.2055 -0.1823  0.3061
  419loPI   GL2 6694   3.688  13.568   9.202  0.1491  0.0694 -0.2563
  419loPI   C1A 6695   3.879  13.306   8.733  0.0854  0.1404 -0.1935
  419loPI   C2A 6696   3.613  13.391   8.310 -0.0853 -0.0505 -0.2992
  419loPI   C3A 6697   3.532  13.690   8.024 -0.0638  0.0391  0.0251
  419loPI   C4A 6698   3.495  13.726   7.707 -0.0448  0.1810 -0.0573
  419loPI   C5A 6699   3.740  13.762   7.328 -0.0442 -0.0159 -0.0593
  419loPI   C6A 6700   4.119  13.800   7.235 -0.4338 -0.0377  0.0138
  419loPI   C1B 6701   3.581  13.774   8.839  0.1409  0.1787 -0.3116
  419loPI   C2B 6702   3.669  13.855   8.461  0.3130 -0.0437 -0.2437
  419loPI   C3B 6703   3.924  13.937   8.147  0.2234  0.2541  0.0008
  419loPI   C4B 6704   3.966  13.797   7.785 -0.0485 -0.2495  0.0458
  420loPI    C1 6705  17.785  17.022  10.178 -0.0886  0.0138  0.0077
  420loPI    C2 6706  17.435  16.921  10.345  0.0201 -0.0712  0.1873
  420loPI    C3 6707  17.507  17.302  10.247 -0.1155 -0.0505  0.1663
  420loPI   PO4 6708  17.768  16.795   9.950  0.1457  0.0854 -0.0068
  420loPI   GL1 6709  17.757  16.927   9.493 -0.1614  0.0104 -0.0415
  420loPI   GL2 6710  17.905  17.230   9.588 -0.1969 -0.0206  0.1905
  420loPI   C1A 6711  17.657  16.906   9.002  0.1786  0.1143  0.2331
  420loPI   C2A 6712  17.522  16.814   8.567 -0.1754 -0.2105  0.0379
  420loPI   C3A 6713  17.337  17.069   8.335 -0.3543 -0.0465  0.2362
  420loPI   C4A 6714  17.492  17.397   8.077  0.1724  0.0170 -0.1190
  420loPI   C5A 6715  17.493  17.343   7.642 -0.1186  0.2240 -0.0479
  420loPI   C6A 6716  17.376  17.698   7.374  0.0040  0.0340  0.2416
  420loPI   C1B 6717  17.930  17.303   9.136  0.1017 -0.0366 -0.3226
  420loPI   C2B 6718  17.977  17.251   8.730  0.1838 -0.1373 -0.1191
  420loPI   C3B 6719  17.912  17.250   8.316 -0.0586 -0.1513 -0.2285
  420loPI   C4B 6720  17.943  17.394   7.929 -0.1059  0.0502 -0.2564
  421loPI    C1 6721  17.720  10.628  10.452 -0.0991  0.1892 -0.0868
  421loPI    C2 6722  17.523  10.351  10.242  0.0518  0.0390 -0.0323
  421loPI    C3 6723  17.610  10.286  10.628  0.0117  0.1995  0.0044
  421loPI   PO4 6724  17.625  10.910  10.259  0.2530  0.1043  0.1369
  421loPI   GL1 6725  17.850  10.886   9.781 -0.1334 -0.0398  0.1781
  421loPI   GL2 6726  18.025  10.634   9.609  0.0178 -0.3774  0.0806
  421loPI   C1A 6727  17.606  10.836   9.432 -0.1607  0.0964 -0.1894
  421loPI   C2A 6728  17.486  10.752   9.030 -0.2730  0.0929 -0.0273
  421loPI   C3A 6729  17.402  10.751   8.624 -0.1131 -0.0942  0.2836
  421loPI   C4A 6730  17.472  10.594   8.186 -0.4532  0.1762 -0.1560
  421loPI   C5A 6731  17.467  10.273   7.821  0.0247 -0.0121 -0.0318
  421loPI   C6A 6732  17.592  10.162   7.325  0.1414 -0.0483 -0.1064
  421loPI   C1B 6733  17.887  10.414   9.167  0.2940  0.1536 -0.1308
  421loPI   C2B 6734  17.627  10.110   8.963  0.1146 -0.0424  0.3251
  421loPI   C3B 6735  17.728  10.000   8.576 -0.0308  0.1344  0.0891
  421loPI   C4B 6736  17.886  10.006   8.085  0.1440  0.0331  0.0526
  422loPI    C1 6737  15.740   0.229  10.249  0.1703 -0.0562  0.0212
  422loPI    C2 6738  16.045   0.307  10.496  0.0719 -0.0654  0.1464
  422loPI    C3 6739  15.776   0.026  10.592  0.1455 -0.2116 -0.0670
  422loPI   PO4 6740  15.805   0.498  10.006  0.1204 -0.0707  0.2552
  422loPI   GL1 6741  15.827   0.695   9.629 -0.0814 -0.0911  0.1475
  422loPI   GL2 6742  15.835   0.987   9.515  0.0659  0.2274 -0.0327
  422loPI   C1A 6743  16.088   0.554   9.252 -0.0997  0.2170  0.2146
  422loPI   C2A 6744  16.029   0.560   8.846  0.0286  0.0387  0.0978
  422loPI   C3A 6745  15.863   0.585   8.462 -0.0312  0.0357  0.3290
  422loPI   C4A 6746  15.779   0.556   7.970 -0.0388 -0.2524 -0.2616
  422loPI   C5A 6747  15.837   0.300   7.578  0.0600  0.2004 -0.1744
  422loPI   C6A 6748  15.803   0.222   7.158  0.0185  0.1935 -0.0354
  422loPI   C1B 6749  16.015   1.017   9.131  0.1741  0.0349 -0.2766
  422loPI   C2B 6750  16.140   1.036   8.658 -0.2841 -0.1324  0.0041
  422loPI   C3B 6751  16.106   1.340   8.349  0.1974  0.1763  0.0931
  422loPI   C4B 6752  16.011   1.543   7.927  0.0422  0.3178  0.2132
  423loPI    C1 6753   7.318  16.144   9.393  0.0362 -0.0394  0.0330
  423loPI    C2 6754   7.037  16.003   9.641  0.1203 -0.3396 -0.0390
  423loPI    C3 6755   7.411  15.860   9.659  0.1921 -0.1696 -0.1574
  423loPI   PO4 6756   7.289  16.145   9.141 -0.0189  0.0789  0.1946
  423loPI   GL1 6757   7.097  16.267   8.789 -0.0563  0.0356 -0.1755
  423loPI   GL2 6758   6.866  16.125   8.573  0.4811  0.0191  0.0477
  423loPI   C1A 6759   7.090  16.582   8.383  0.1816 -0.2717 -0.0129
  423loPI   C2A 6760   7.073  16.825   7.960 -0.1147  0.0588 -0.4056
  423loPI   C3A 6761   6.992  16.989   7.485 -0.2645 -0.0064 -0.0758
  423loPI   C4A 6762   7.028  17.336   7.198  0.1965  0.0488  0.0649
  423loPI   C5A 6763   6.960  17.536   6.858 -0.1676 -0.3391  0.2331
  423loPI   C6A 6764   6.738  17.614   6.385 -0.2502  0.2812  0.0427
  423loPI   C1B 6765   6.915  15.851   8.214  0.0076 -0.1864  0.1767
  423loPI   C2B 6766   7.014  15.734   7.821 -0.0429 -0.0456  0.2004
  423loPI   C3B 6767   7.157  15.769   7.393  0.1047 -0.1380 -0.2172
  423loPI   C4B 6768   7.523  15.697   7.146  0.0545  0.2126  0.1018
  424loPI    C1 6769   2.481   3.294   9.644  0.1463 -0.1935 -0.0170
  424loPI    C2 6770   2.105   3.357   9.524  0.2415 -0.0974 -0.2716
  424loPI    C3 6771   2.179   3.100   9.821 -0.0416  0.0353 -0.0815
  424loPI   PO4 6772   2.600   3.300   9.463  0.2708 -0.0421  0.0379
  424loPI   GL1 6773   2.416   3.279   9.092  0.0648 -0.2653  0.2485
  424loPI   GL2 6774   2.312   3.638   9.025 -0.1072  0.1739 -0.3261
  424loPI   C1A 6775   2.474   3.147   8.669 -0.0801 -0.0921  0.1801
  424loPI   C2A 6776   2.492   3.336   8.273  0.0351 -0.0535  0.0960
  424loPI   C3A 6777   2.322   3.475   7.917 -0.1407 -0.1391  0.3693
  424loPI   C4A 6778   2.342   3.604   7.613 -0.0666  0.2565  0.1476
  424loPI   C5A 6779   2.536   3.886   7.451  0.4261  0.2847  0.2323
  424loPI   C6A 6780   2.563   4.129   7.098 -0.0139 -0.2931 -0.1403
  424loPI   C1B 6781   2.266   3.658   8.565  0.2491  0.1833  0.0838
  424loPI   C2B 6782   2.318   3.974   8.137  0.2180 -0.1604 -0.2569
  424loPI   C3B 6783   2.585   4.217   7.890  0.3516 -0.0611 -0.0682
  424loPI   C4B 6784   2.852   4.245   7.535  0.0106  0.2737 -0.0287
  425loPI    C1 6785   8.457   6.863  10.072  0.0880 -0.0395  0.0412
  425loPI    C2 6786   8.467   6.501  10.241  0.1143 -0.1165 -0.1233
  425loPI    C3 6787   8.728   6.781  10.355 -0.0905 -0.0547  0.2103
  425loPI   PO4 6788   8.214   6.852   9.894  0.0448 -0.1619  0.2184
  425loPI   GL1 6789   8.082   6.870   9.443  0.4663 -0.0612  0.0985
  425loPI   GL2 6790   7.748   6.909   9.366 -0.1420  0.1654 -0.3181
  425loPI   C1A 6791   7.935   7.126   8.958 -0.3200 -0.2774  0.1637
  425loPI   C2A 6792   8.057   7.207   8.460  0.0260 -0.1290  0.1575
  425loPI   C3A 6793   7.978   7.129   7.995  0.0493 -0.0456  0.1329
  425loPI   C4A 6794   7.697   7.078   7.596  0.2651 -0.0607 -0.3791
  425loPI   C5A 6795   7.477   7.087   7.262 -0.2888 -0.0552  0.1107
  425loPI   C6A 6796   7.273   7.047   6.910 -0.1086 -0.2138  0.1250
  425loPI   C1B 6797   7.839   6.612   9.035  0.0032 -0.0349  0.0230
  425loPI   C2B 6798   7.767   6.729   8.624  0.2281 -0.0817 -0.0123
  425loPI   C3B 6799   7.733   6.566   8.322  0.3047 -0.1430 -0.0223
  425loPI   C4B 6800   7.660   6.742   7.989  0.0954  0.0370  0.0900
  426loPI    C1 6801   2.469  13.483   9.882 -0.0496  0.2285 -0.0693
  426loPI    C2 6802   2.776  13.737   9.913  0.1928 -0.0890  0.1901
  426loPI    C3 6803   2.660  13.523  10.231 -0.0633 -0.2403 -0.0019
  426loPI   PO4 6804   2.403  13.457   9.701 -0.0342  0.0233 -0.3124
  426loPI   GL1 6805   2.408  13.231   9.328 -0.0605  0.1611  0.2933
  426loPI   GL2 6806   2.505  13.442   9.180 -0.2261 -0.3312  0.0925
  426loPI   C1A 6807   2.133  13.083   9.147 -0.0777 -0.3839 -0.0082
  426loPI   C2A 6808   1.918  13.081   8.787  0.1385  0.0232 -0.0631
  426loPI   C3A 6809   1.845  12.842   8.378 -0.0205  0.2539  0.0069
  426loPI   C4A 6810   1.859  12.481   8.073 -0.2913 -0.1653 -0.3052
  426loPI   C5A 6811   1.981  12.335   7.733  0.0388 -0.0485  0.0005
  426loPI   C6A 6812   2.018  11.991   7.335  0.0436 -0.2706 -0.1919
  426loPI   C1B 6813   2.314  13.403   8.835 -0.2511  0.1881  0.0591
  426loPI   C2B 6814   2.197  13.275   8.399  0.1447  0.2831 -0.2286
  426loPI   C3B 6815   2.134  13.192   7.979 -0.1536  0.1572  0.2517
  426loPI   C4B 6816   1.942  12.998   7.686 -0.4694 -0.1131 -0.2065
  427loPI    C1 6817   4.926   8.734  10.323 -0.1372  0.2214  0.0609
  427loPI    C2 6818   4.559   8.601  10.410 -0.0593  0.1206  0.2423
  427loPI    C3 6819   4.836   8.624  10.697  0.0530  0.2743  0.1234
  427loPI   PO4 6820   4.962   8.532  10.037 -0.1564  0.0407 -0.2599
  427loPI   GL1 6821   4.634   8.709   9.844 -0.0170  0.2101  0.0671
  427loPI   GL2 6822   4.303   8.626  10.016 -0.1755 -0.0727 -0.0023
  427loPI   C1A 6823   4.595   8.794   9.388  0.1615 -0.1064  0.1907
  427loPI   C2A 6824   4.706   8.725   8.927  0.0588  0.0868 -0.0518
  427loPI   C3A 6825   4.671   8.594   8.397 -0.2446 -0.0107  0.0502
  427loPI   C4A 6826   4.684   8.469   7.933  0.0733 -0.2798 -0.0619
  427loPI   C5A 6827   4.724   8.274   7.521  0.0493  0.1483  0.0523
  427loPI   C6A 6828   5.095   8.258   7.306  0.3850  0.2340  0.0549
  427loPI   C1B 6829   4.317   8.413   9.573  0.0041 -0.1722  0.3268
  427loPI   C2B 6830   4.358   8.403   9.125  0.2061  0.0343 -0.1945
  427loPI   C3B 6831   4.474   8.142   8.724 -0.1946 -0.3595  0.1495
  427loPI   C4B 6832   4.223   7.974   8.388  0.0785 -0.0118  0.0162
  428loPI    C1 6833   7.254  11.821   9.371  0.3464 -0.1046 -0.0327
  428loPI    C2 6834   7.282  12.218   9.408  0.1890 -0.1230  0.3216
  428loPI    C3 6835   7.441  11.979   9.687  0.2912 -0.3105  0.1054
  428loPI   PO4 6836   7.384  11.748   9.182  0.4127 -0.2509 -0.2040
  428loPI   GL1 6837   7.487  12.057   8.959  0.4405 -0.0049 -0.2212
  428loPI   GL2 6838   7.543  12.335   8.770 -0.4616 -0.2204 -0.0741
  428loPI   C1A 6839   7.533  11.773   8.592 -0.2327  0.1347 -0.0385
  428loPI   C2A 6840   7.509  11.786   8.157 -0.2127 -0.2748 -0.1158
  428loPI   C3A 6841   7.373  11.916   7.858 -0.3182 -0.2342  0.0097
  428loPI   C4A 6842   7.189  11.867   7.496 -0.0848  0.0565 -0.0300
  428loPI   C5A 6843   6.864  11.781   7.120  0.1279  0.0780 -0.2048
  428loPI   C6A 6844   6.719  11.493   6.870  0.1491 -0.1981  0.1182
  428loPI   C1B 6845   7.467  12.384   8.346 -0.1131  0.0730  0.3687
  428loPI   C2B 6846   7.669  12.300   7.935 -0.0241 -0.1338 -0.0755
  428loPI   C3B 6847   7.501  12.244   7.483 -0.1385 -0.0386  0.1566
  428loPI   C4B 6848   7.344  12.182   7.062 -0.3933  0.1150 -0.0609
  429loPI    C1 6849  11.041  14.095   9.330  0.1732  0.2440  0.2158
  429loPI    C2 6850  11.249  13.813   9.522 -0.0972 -0.0071  0.1461
  429loPI    C3 6851  10.972  14.025   9.718 -0.3073 -0.1989  0.0611
  429loPI   PO4 6852  11.178  14.058   9.111  0.2339 -0.2059 -0.0391
  429loPI   GL1 6853  11.198  14.218   8.795 -0.0673 -0.1162  0.1073
  429loPI   GL2 6854  11.575  13.961   8.758  0.0439 -0.2008  0.0816
  429loPI   C1A 6855  11.195  14.010   8.385  0.3544  0.2755 -0.4396
  429loPI   C2A 6856  11.505  13.812   8.046  0.1315 -0.1280 -0.4628
  429loPI   C3A 6857  11.848  13.500   7.856  0.0506 -0.1978  0.0179
  429loPI   C4A 6858  11.838  13.176   7.499 -0.0655  0.2496 -0.0257
  429loPI   C5A 6859  11.999  12.703   7.418 -0.0271 -0.2973  0.1709
  429loPI   C6A 6860  12.246  12.616   7.100 -0.0595 -0.2453  0.0900
  429loPI   C1B 6861  11.675  13.641   8.527 -0.1402  0.1802 -0.1691
  429loPI   C2B 6862  11.495  13.337   8.245 -0.0917  0.2758 -0.0998
  429loPI   C3B 6863  11.571  13.098   7.943 -0.0194 -0.3695 -0.0043
  429loPI   C4B 6864  11.561  12.825   7.700 -0.0459  0.2578  0.1758
  430loPI    C1 6865  15.426   6.292  10.060  0.0265 -0.1347  0.1710
  430loPI    C2 6866  15.149   6.003  10.048 -0.0237 -0.0807  0.0081
  430loPI    C3 6867  15.466   5.968  10.290 -0.0007 -0.2985 -0.0521
  430loPI   PO4 6868  15.520   6.308   9.802 -0.2904 -0.2475  0.1160
  430loPI   GL1 6869  15.335   6.056   9.460 -0.0079 -0.0400 -0.0932
  430loPI   GL2 6870  15.111   6.272   9.198  0.0609  0.1033  0.2190
  430loPI   C1A 6871  15.588   5.983   9.033 -0.4396 -0.0047  0.0299
  430loPI   C2A 6872  15.550   6.110   8.673 -0.0421 -0.0116  0.1023
  430loPI   C3A 6873  15.634   6.160   8.195  0.0372  0.4527  0.1002
  430loPI   C4A 6874  15.659   6.003   7.823 -0.1980 -0.2462 -0.0363
  430loPI   C5A 6875  15.530   5.889   7.425 -0.1094 -0.2132 -0.0001
  430loPI   C6A 6876  15.190   5.752   7.379  0.0376 -0.0095 -0.0180
  430loPI   C1B 6877  14.983   6.162   8.831 -0.0490  0.0930 -0.0869
  430loPI   C2B 6878  14.848   5.843   8.592 -0.2803  0.1797 -0.1336
  430loPI   C3B 6879  14.897   5.410   8.568  0.1183 -0.2767  0.0837
  430loPI   C4B 6880  14.974   5.420   8.177 -0.1262 -0.2476 -0.1181
  431loPI    C1 6881  13.711  14.750   9.826  0.1628 -0.0250 -0.0925
  431loPI    C2 6882  13.834  15.029  10.086 -0.0978 -0.1208  0.1387
  431loPI    C3 6883  13.976  14.656  10.111  0.0909 -0.0624 -0.0376
  431loPI   PO4 6884  13.499  14.951   9.667 -0.0933 -0.4736  0.2378
  431loPI   GL1 6885  13.403  15.323   9.334 -0.1377  0.0584  0.1193
  431loPI   GL2 6886  13.318  15.090   9.205  0.1871 -0.1957  0.0621
  431loPI   C1A 6887  13.605  15.426   9.038  0.7675  0.0110 -0.0278
  431loPI   C2A 6888  14.046  15.412   8.866  0.0653 -0.1969  0.0226
  431loPI   C3A 6889  14.192  15.502   8.390 -0.0600 -0.1647 -0.0603
  431loPI   C4A 6890  14.177  15.537   7.931 -0.0136  0.2053  0.1144
  431loPI   C5A 6891  14.216  15.419   7.568  0.0918  0.0211 -0.2471
  431loPI   C6A 6892  14.503  15.447   7.279  0.1353 -0.1212 -0.1605
  431loPI   C1B 6893  13.334  15.066   8.716 -0.0250  0.0949 -0.1437
  431loPI   C2B 6894  13.390  14.870   8.310  0.3022 -0.0155  0.6091
  431loPI   C3B 6895  13.462  14.973   7.890  0.2396 -0.1928  0.0861
  431loPI   C4B 6896  13.235  15.206   7.474 -0.0225 -0.1444  0.1659
  432loPI    C1 6897   9.040   6.349  10.192 -0.0970 -0.2264  0.1338
  432loPI    C2 6898   9.381   6.161  10.284  0.0273 -0.0440  0.0533
  432loPI    C3 6899   9.076   6.164  10.544  0.1528 -0.0528  0.2020
  432loPI   PO4 6900   9.161   6.223   9.853 -0.0061 -0.2424  0.0413
  432loPI   GL1 6901   9.129   6.355   9.450 -0.3309  0.0945  0.0608
  432loPI   GL2 6902   8.940   6.590   9.335 -0.2069  0.1726  0.0406
  432loPI   C1A 6903   9.107   6.295   8.926  0.1631  0.0871  0.0993
  432loPI   C2A 6904   9.036   6.029   8.520 -0.1416 -0.3413 -0.4522
  432loPI   C3A 6905   8.935   5.991   8.050  0.1660  0.1929 -0.1439
  432loPI   C4A 6906   8.938   5.985   7.620 -0.1032 -0.0635 -0.0525
  432loPI   C5A 6907   8.877   6.312   7.360 -0.1374 -0.0162  0.3487
  432loPI   C6A 6908   9.132   6.634   7.354  0.2614 -0.1048  0.1692
  432loPI   C1B 6909   8.858   6.692   8.906  0.2046 -0.0109 -0.1971
  432loPI   C2B 6910   8.818   6.674   8.561 -0.1821 -0.2329 -0.1117
  432loPI   C3B 6911   8.730   6.683   8.096 -0.0082 -0.1150 -0.0699
  432loPI   C4B 6912   8.600   6.632   7.650 -0.3486  0.3374  0.0915
  433loPI    C1 6913  12.067  12.987   9.990  0.1849 -0.0827  0.0470
  433loPI    C2 6914  11.870  12.704  10.193  0.3444 -0.2034  0.0355
  433loPI    C3 6915  12.214  12.851  10.337  0.1877  0.0931  0.1162
  433loPI   PO4 6916  12.025  12.862   9.702  0.0411  0.1373 -0.1650
  433loPI   GL1 6917  11.930  13.041   9.379 -0.2040  0.1146  0.1252
  433loPI   GL2 6918  11.803  13.220   9.081 -0.2375  0.1782  0.1553
  433loPI   C1A 6919  12.105  12.804   9.106  0.1078 -0.1323 -0.0361
  433loPI   C2A 6920  12.572  12.685   9.031  0.2551 -0.3234 -0.0364
  433loPI   C3A 6921  12.800  12.620   8.664 -0.2080  0.1786  0.0486
  433loPI   C4A 6922  13.053  12.397   8.478 -0.4736 -0.0714 -0.0192
  433loPI   C5A 6923  13.512  12.267   8.475  0.3145 -0.1941 -0.0188
  433loPI   C6A 6924  13.769  12.178   8.779  0.2705  0.0851 -0.1905
  433loPI   C1B 6925  11.846  13.143   8.690 -0.3535 -0.2845 -0.1638
  433loPI   C2B 6926  11.966  13.104   8.242  0.4211 -0.0379 -0.1336
  433loPI   C3B 6927  12.198  13.039   7.860 -0.4437 -0.0085 -0.5583
  433loPI   C4B 6928  12.328  13.036   7.447  0.3956 -0.0482 -0.1982
  434loPI    C1 6929   0.124  19.279  10.336  0.1628 -0.1421 -0.1119
  434loPI    C2 6930   0.083  19.652  10.475  0.0109 -0.1792 -0.0555
  434loPI    C3 6931   0.432  19.461  10.515  0.0215 -0.1254  0.1188
  434loPI   PO4 6932   0.075  19.292  10.107  0.0254  0.3648  0.1852
  434loPI   GL1 6933  -0.040  19.067   9.739  0.0559  0.1009  0.0370
  434loPI   GL2 6934  -0.032  18.958   9.423  0.3628  0.1259 -0.0085
  434loPI   C1A 6935  -0.078  19.413   9.337  0.1165 -0.1134  0.0336
  434loPI   C2A 6936  -0.161  19.372   8.853  0.1577  0.1900 -0.2156
  434loPI   C3A 6937  -0.137  19.447   8.372 -0.0246 -0.3137 -0.0236
  434loPI   C4A 6938  -0.202  19.534   7.926 -0.1604  0.0908 -0.0225
  434loPI   C5A 6939  -0.131  19.482   7.556  0.0074  0.2275  0.2670
  434loPI   C6A 6940   0.271  19.243   7.491  0.2442  0.0002 -0.1249
  434loPI   C1B 6941  -0.028  18.886   9.033  0.0501 -0.1122  0.0079
  434loPI   C2B 6942   0.090  19.033   8.480  0.3744  0.2168  0.1899
  434loPI   C3B 6943   0.160  19.145   8.021 -0.1550  0.0189  0.3714
  434loPI   C4B 6944   0.031  18.878   7.680 -0.0218  0.4077  0.2383
  435loPI    C1 6945  15.208  17.258   9.809  0.0963  0.3020  0.2703
  435loPI    C2 6946  15.210  16.873   9.698  0.1344  0.3366  0.1492
  435loPI    C3 6947  15.149  16.971  10.081  0.3250  0.2006  0.2156
  435loPI   PO4 6948  15.426  17.371   9.556  0.1648 -0.1825  0.2182
  435loPI   GL1 6949  15.500  17.049   9.269 -0.1422 -0.0387 -0.2848
  435loPI   GL2 6950  15.859  17.191   9.264  0.1624 -0.0005  0.0009
  435loPI   C1A 6951  15.544  17.310   8.916  0.0368 -0.0140  0.2424
  435loPI   C2A 6952  15.605  17.359   8.452  0.2552  0.0172  0.2943
  435loPI   C3A 6953  15.557  17.394   8.040  0.1724  0.1540  0.0074
  435loPI   C4A 6954  15.590  17.520   7.630  0.0019 -0.0644 -0.0545
  435loPI   C5A 6955  15.242  17.624   7.329  0.2375 -0.0651 -0.0581
  435loPI   C6A 6956  14.860  17.860   7.217  0.0879 -0.0382 -0.1128
  435loPI   C1B 6957  15.841  16.939   8.826  0.1598  0.1595  0.0768
  435loPI   C2B 6958  16.152  16.728   8.455 -0.1595 -0.1867  0.1172
  435loPI   C3B 6959  16.181  16.821   8.004  0.0186 -0.0965  0.0889
  435loPI   C4B 6960  16.268  16.776   7.621  0.0162  0.1983 -0.1375
  436loPI    C1 6961   7.154   4.478  10.052  0.0888 -0.1193 -0.0131
  436loPI    C2 6962   7.352   4.812  10.150  0.0364 -0.1061  0.0475
  436loPI    C3 6963   7.105   4.640  10.414  0.0159 -0.1583 -0.0054
  436loPI   PO4 6964   7.095   4.496   9.756 -0.3019 -0.1700 -0.1870
  436loPI   GL1 6965   7.126   4.568   9.395 -0.2069 -0.1428 -0.1963
  436loPI   GL2 6966   6.961   4.848   9.352 -0.0663 -0.0248 -0.3101
  436loPI   C1A 6967   7.335   4.420   9.035  0.1807  0.1316  0.0923
  436loPI   C2A 6968   7.209   4.400   8.715 -0.2126  0.0504  0.3765
  436loPI   C3A 6969   7.180   4.409   8.256 -0.2733 -0.0609  0.2012
  436loPI   C4A 6970   7.207   4.349   7.801  0.1935 -0.1202 -0.2757
  436loPI   C5A 6971   7.058   4.101   7.650 -0.1461  0.0913  0.2220
  436loPI   C6A 6972   7.073   4.024   7.218 -0.2318 -0.2226  0.0111
  436loPI   C1B 6973   7.054   4.999   8.939 -0.0834 -0.2012 -0.2890
  436loPI   C2B 6974   7.230   4.919   8.490 -0.1726 -0.0469  0.0641
  436loPI   C3B 6975   7.440   4.829   8.174  0.2836 -0.0289 -0.3423
  436loPI   C4B 6976   7.447   4.811   7.698  0.0619  0.0577 -0.0248
  437loPI    C1 6977   7.811   3.612   9.718 -0.1514 -0.0552 -0.1411
  437loPI    C2 6978   7.618   3.297   9.873 -0.0623 -0.0530 -0.0241
  437loPI    C3 6979   7.866   3.512  10.102 -0.1877  0.1544 -0.0798
  437loPI   PO4 6980   7.688   3.673   9.483  0.1710 -0.3097 -0.1340
  437loPI   GL1 6981   7.880   3.869   9.136  0.3581 -0.1221  0.2930
  437loPI   GL2 6982   7.525   3.720   9.029  0.3005  0.2377  0.0367
  437loPI   C1A 6983   7.724   4.103   8.731 -0.0146  0.0407 -0.0949
  437loPI   C2A 6984   7.672   4.023   8.263 -0.5277  0.1255  0.3547
  437loPI   C3A 6985   7.623   4.086   7.858 -0.3319  0.2606  0.3256
  437loPI   C4A 6986   7.551   4.307   7.453  0.1910  0.2215 -0.0906
  437loPI   C5A 6987   8.053   4.363   7.273  0.4293  0.3027 -0.0441
  437loPI   C6A 6988   8.231   4.081   6.986 -0.1512 -0.2184 -0.0486
  437loPI   C1B 6989   7.666   3.596   8.578  0.1010 -0.0691 -0.2104
  437loPI   C2B 6990   7.616   3.548   8.166 -0.3026  0.2450  0.4002
  437loPI   C3B 6991   7.629   3.574   7.779  0.3146  0.2911  0.0122
  437loPI   C4B 6992   7.589   3.409   7.427  0.1191 -0.1969 -0.1229
  438loPI    C1 6993  17.896   5.982   9.812 -0.0923  0.1510  0.0777
  438loPI    C2 6994  18.229   6.156   9.674  0.0577 -0.1431  0.0614
  438loPI    C3 6995  18.219   6.012  10.047 -0.0882 -0.0394  0.0980
  438loPI   PO4 6996  17.720   5.918   9.690 -0.1606 -0.0510 -0.1521
  438loPI   GL1 6997  17.381   5.995   9.457 -0.0179  0.0576  0.0054
  438loPI   GL2 6998  17.221   5.737   9.480  0.1701  0.0931  0.2528
  438loPI   C1A 6999  17.262   6.129   9.067  0.1317 -0.2387 -0.0225
  438loPI   C2A 7000  17.454   6.273   8.651  0.1006 -0.1909  0.0117
  438loPI   C3A 7001  17.525   6.004   8.233 -0.2318 -0.1760  0.1525
  438loPI   C4A 7002  17.557   6.175   7.732  0.3769 -0.0862  0.0124
  438loPI   C5A 7003  17.289   6.289   7.500  0.2449  0.0991 -0.1824
  438loPI   C6A 7004  17.248   6.570   7.180  0.0743 -0.0375 -0.0884
  438loPI   C1B 7005  17.271   5.596   8.985  0.0697 -0.0824  0.0756
  438loPI   C2B 7006  17.455   5.775   8.702  0.2360  0.0620 -0.2499
  438loPI   C3B 7007  17.886   5.733   8.616 -0.0394  0.1017  0.0888
  438loPI   C4B 7008  18.035   6.138   8.429  0.1036  0.1731 -0.1047
  439loPI    C1 7009   8.296   0.068   9.266 -0.2767 -0.0558 -0.0893
  439loPI    C2 7010   8.217  -0.280   9.447  0.0813 -0.0670  0.0551
  439loPI    C3 7011   8.216   0.060   9.658 -0.0492 -0.0068 -0.0404
  439loPI   PO4 7012   8.169   0.043   9.033 -0.0113 -0.1341  0.3642
  439loPI   GL1 7013   8.015  -0.172   8.753  0.0273  0.0017  0.3114
  439loPI   GL2 7014   7.777   0.036   8.677 -0.0238  0.1147  0.0465
  439loPI   C1A 7015   8.216  -0.493   8.488 -0.2800  0.0466  0.1599
  439loPI   C2A 7016   8.192  -0.679   8.102 -0.0231 -0.0700  0.1006
  439loPI   C3A 7017   7.988  -0.654   7.794 -0.1332  0.0278 -0.1725
  439loPI   C4A 7018   7.637  -0.892   7.622 -0.1254 -0.2361  0.1008
  439loPI   C5A 7019   7.318  -0.894   7.195 -0.1648 -0.2064 -0.2981
  439loPI   C6A 7020   6.959  -0.966   7.077 -0.3704  0.1675  0.0440
  439loPI   C1B 7021   8.026   0.243   8.369  0.1171 -0.0416  0.2825
  439loPI   C2B 7022   8.108   0.229   7.881  0.2930 -0.0108  0.2744
  439loPI   C3B 7023   8.070   0.528   7.587  0.1544  0.2404 -0.1584
  439loPI   C4B 7024   8.075   0.591   7.242 -0.1471 -0.2725  0.2896
  440loPI    C1 7025  13.154   1.733   9.958  0.3288  0.0292 -0.0799
  440loPI    C2 7026  13.084   1.467  10.248 -0.2167  0.1771 -0.0644
  440loPI    C3 7027  13.180   1.843  10.342 -0.1793  0.1712 -0.0785
  440loPI   PO4 7028  13.021   1.619   9.625  0.1111  0.0695  0.0832
  440loPI   GL1 7029  12.844   1.702   9.251  0.2086  0.0910  0.2136
  440loPI   GL2 7030  13.096   1.949   9.190  0.0347 -0.2427  0.1515
  440loPI   C1A 7031  12.783   1.854   8.803 -0.0001  0.1612  0.0724
  440loPI   C2A 7032  12.773   1.678   8.349  0.1291  0.0662  0.0413
  440loPI   C3A 7033  12.927   1.719   7.884 -0.0067 -0.2000 -0.2937
  440loPI   C4A 7034  13.234   1.764   7.518 -0.2681  0.0970 -0.1706
  440loPI   C5A 7035  13.576   1.395   7.464 -0.1232 -0.1271  0.0222
  440loPI   C6A 7036  13.451   0.926   7.293 -0.3371 -0.0082  0.1796
  440loPI   C1B 7037  13.443   1.949   8.875 -0.1536  0.0492  0.2652
  440loPI   C2B 7038  13.696   1.949   8.456 -0.0604  0.4155  0.1412
  440loPI   C3B 7039  13.919   2.164   8.096  0.0818 -0.1341  0.0262
  440loPI   C4B 7040  14.202   2.343   7.993 -0.1676  0.3421  0.1471
  441loPI    C1 7041   8.709  15.682   9.300  0.3014  0.0124  0.1745
  441loPI    C2 7042   8.499  15.701   9.640 -0.0793  0.0916 -0.0592
  441loPI    C3 7043   8.626  15.347   9.502  0.0645  0.0579  0.1547
  441loPI   PO4 7044   8.574  15.770   9.120 -0.1753  0.1773  0.0590
  441loPI   GL1 7045   8.423  15.883   8.768  0.0764 -0.1616 -0.0148
  441loPI   GL2 7046   8.317  16.211   8.926  0.1475  0.2567 -0.1401
  441loPI   C1A 7047   8.449  16.054   8.487  0.2231  0.2407  0.0404
  441loPI   C2A 7048   8.472  16.030   8.110 -0.3335  0.1595 -0.1401
  441loPI   C3A 7049   8.212  15.912   7.775  0.1930  0.3256  0.1853
  441loPI   C4A 7050   8.117  15.967   7.322 -0.1951  0.2279 -0.1181
  441loPI   C5A 7051   8.027  15.885   6.936  0.0539  0.0232  0.4046
  441loPI   C6A 7052   7.658  15.880   6.696 -0.0864  0.0014  0.0637
  441loPI   C1B 7053   8.134  16.373   8.470 -0.1828 -0.0438 -0.1477
  441loPI   C2B 7054   7.935  16.305   8.073 -0.0785  0.0141 -0.0736
  441loPI   C3B 7055   7.833  16.313   7.645 -0.3652 -0.1018 -0.3154
  441loPI   C4B 7056   7.662  16.094   7.333  0.5401 -0.1981  0.0096
  442loPI    C1 7057   5.817  14.041  10.218 -0.0313  0.0589 -0.2677
  442loPI    C2 7058   6.103  14.319  10.190 -0.0388  0.0823 -0.1161
  442loPI    C3 7059   5.959  14.215  10.549 -0.3161  0.1681 -0.2003
  442loPI   PO4 7060   5.770  14.129   9.866  0.0428  0.0188 -0.1031
  442loPI   GL1 7061   5.758  13.872   9.388 -0.3762  0.2015 -0.5748
  442loPI   GL2 7062   6.125  13.702   9.281  0.3118  0.0399  0.1773
  442loPI   C1A 7063   5.706  13.656   8.955  0.3126 -0.3361  0.1470
  442loPI   C2A 7064   5.698  13.617   8.621  0.0493 -0.2001  0.0772
  442loPI   C3A 7065   5.838  13.909   8.276  0.2578 -0.0199 -0.0572
  442loPI   C4A 7066   6.085  13.887   7.932  0.0263 -0.1678 -0.2327
  442loPI   C5A 7067   6.054  13.909   7.444  0.1419 -0.2036 -0.0706
  442loPI   C6A 7068   5.983  14.119   7.156  0.3136  0.0189  0.1444
  442loPI   C1B 7069   6.208  13.807   8.940  0.4204  0.2548  0.2381
  442loPI   C2B 7070   6.163  13.706   8.615 -0.2801  0.0785 -0.0401
  442loPI   C3B 7071   6.068  13.434   8.278  0.4145 -0.2498  0.1168
  442loPI   C4B 7072   5.900  13.360   7.907  0.2848 -0.2270  0.0585
  443loPI    C1 7073   8.668  14.817   9.626  0.1442  0.0135  0.1434
  443loPI    C2 7074   8.331  14.757   9.833 -0.0917 -0.0391 -0.2450
  443loPI    C3 7075   8.685  14.667   9.996 -0.2676 -0.0472  0.1426
  443loPI   PO4 7076   8.627  14.664   9.393  0.2467 -0.2325  0.3225
  443loPI   GL1 7077   8.441  14.795   8.973 -0.0999 -0.3827 -0.2405
  443loPI   GL2 7078   8.344  14.440   8.951  0.1414 -0.0161  0.1256
  443loPI   C1A 7079   8.453  14.957   8.586  0.0463  0.0416 -0.0809
  443loPI   C2A 7080   8.403  15.031   8.212  0.2159 -0.3920  0.1062
  443loPI   C3A 7081   8.443  14.998   7.769 -0.0637 -0.1053 -0.1122
  443loPI   C4A 7082   8.295  15.058   7.384  0.0105  0.0347  0.1049
  443loPI   C5A 7083   8.233  14.917   6.929 -0.1619  0.0076 -0.2460
  443loPI   C6A 7084   8.287  14.798   6.515 -0.2481 -0.2160  0.3519
  443loPI   C1B 7085   8.161  14.527   8.606  0.2180  0.1015 -0.1739
  443loPI   C2B 7086   8.082  14.403   8.196  0.3490  0.2392  0.1074
  443loPI   C3B 7087   8.108  14.463   7.716  0.4769  0.2389 -0.0095
  443loPI   C4B 7088   8.187  14.498   7.295 -0.2198 -0.1186  0.0537
  444loPI    C1 7089   8.252  12.784   9.464 -0.0774  0.0766  0.0950
  444loPI    C2 7090   8.411  13.122   9.607 -0.2097  0.0691  0.2636
  444loPI    C3 7091   8.351  12.810   9.850 -0.1628 -0.0485  0.1261
  444loPI   PO4 7092   8.001  12.816   9.318 -0.5052  0.1436  0.4339
  444loPI   GL1 7093   7.981  12.937   8.922  0.4337  0.2100 -0.1271
  444loPI   GL2 7094   7.605  12.876   8.841 -0.0874 -0.0891 -0.0209
  444loPI   C1A 7095   8.062  12.890   8.579  0.3052  0.0640  0.0065
  444loPI   C2A 7096   8.258  13.096   8.260 -0.0002 -0.0371 -0.0152
  444loPI   C3A 7097   8.484  13.146   7.991 -0.2164  0.0764  0.1073
  444loPI   C4A 7098   8.397  13.111   7.508  0.0733 -0.1779 -0.1510
  444loPI   C5A 7099   8.394  13.181   7.019 -0.0300 -0.1688  0.0091
  444loPI   C6A 7100   8.512  13.169   6.544  0.0155 -0.2080  0.0369
  444loPI   C1B 7101   7.370  12.827   8.503 -0.1956 -0.2424  0.4392
  444loPI   C2B 7102   7.306  12.916   8.093 -0.1202 -0.1712  0.0723
  444loPI   C3B 7103   7.310  13.136   7.738  0.3042 -0.1209 -0.0092
  444loPI   C4B 7104   7.542  13.395   7.402 -0.2564  0.1932  0.0104
  445loPI    C1 7105   6.740   6.294   9.920  0.1817  0.0478 -0.1051
  445loPI    C2 7106   6.691   6.513  10.251  0.0561 -0.0628 -0.0498
  445loPI    C3 7107   6.442   6.209  10.173  0.0394  0.0090 -0.2833
  445loPI   PO4 7108   6.866   6.463   9.731  0.0825 -0.1493  0.0802
  445loPI   GL1 7109   6.856   6.257   9.322 -0.1975  0.0552 -0.2867
  445loPI   GL2 7110   6.906   6.484   9.002  0.1088 -0.1841 -0.0346
  445loPI   C1A 7111   7.033   5.989   8.985  0.1365 -0.1592 -0.1114
  445loPI   C2A 7112   7.089   5.991   8.555  0.0385  0.1101 -0.2746
  445loPI   C3A 7113   7.133   5.805   8.285 -0.2235  0.0648  0.2979
  445loPI   C4A 7114   7.078   5.864   7.916 -0.0282 -0.1660 -0.1815
  445loPI   C5A 7115   7.037   5.627   7.585 -0.1363 -0.1248  0.1932
  445loPI   C6A 7116   7.268   5.773   7.128 -0.2177 -0.0943 -0.2369
  445loPI   C1B 7117   6.615   6.618   8.795 -0.1230 -0.2610  0.1648
  445loPI   C2B 7118   6.445   6.977   8.697 -0.1300  0.1666 -0.2727
  445loPI   C3B 7119   6.599   7.254   8.489 -0.0843 -0.1332 -0.2528
  445loPI   C4B 7120   6.363   7.143   8.149  0.2211 -0.0313 -0.0476
  446loPI    C1 7121   4.723   1.791   9.243 -0.2183 -0.4402  0.1757
  446loPI    C2 7122   4.962   1.500   9.110  0.2324 -0.0138  0.0191
  446loPI    C3 7123   5.085   1.741   9.405 -0.0298  0.1775 -0.0241
  446loPI   PO4 7124   4.612   1.866   8.918  0.0496 -0.0711 -0.2396
  446loPI   GL1 7125   4.339   1.910   8.540 -0.3522  0.1352 -0.0662
  446loPI   GL2 7126   4.002   1.924   8.607  0.2745 -0.1077 -0.0453
  446loPI   C1A 7127   4.454   2.034   8.096  0.2331  0.0005 -0.0037
  446loPI   C2A 7128   4.540   2.184   7.695 -0.0204 -0.1802 -0.0020
  446loPI   C3A 7129   4.419   2.237   7.286 -0.0294  0.2587  0.0733
  446loPI   C4A 7130   4.452   2.225   6.869 -0.0887  0.1433  0.1982
  446loPI   C5A 7131   4.668   2.388   6.584  0.1306 -0.0368  0.3447
  446loPI   C6A 7132   4.883   2.472   6.173  0.0088  0.1974  0.0733
  446loPI   C1B 7133   3.970   1.891   8.140 -0.3218  0.1417  0.0485
  446loPI   C2B 7134   3.934   2.007   7.683  0.0026  0.1387  0.0288
  446loPI   C3B 7135   3.906   2.062   7.251  0.2785  0.1027  0.1519
  446loPI   C4B 7136   3.967   2.155   6.911  0.1338 -0.2028 -0.1502
  447loPI    C1 7137  14.238   7.910  10.118 -0.2864  0.0708 -0.0694
  447loPI    C2 7138  14.115   8.272  10.237 -0.2807  0.0856 -0.1079
  447loPI    C3 7139  13.894   7.949  10.319 -0.2029  0.0773  0.0729
  447loPI   PO4 7140  14.429   7.928   9.873 -0.0176 -0.1293 -0.0092
  447loPI   GL1 7141  14.472   7.756   9.392  0.0136  0.3295 -0.0946
  447loPI   GL2 7142  14.378   7.895   9.148 -0.1380 -0.2295 -0.0694
  447loPI   C1A 7143  14.303   7.415   9.054  0.1576 -0.0531 -0.0769
  447loPI   C2A 7144  14.463   7.257   8.603  0.0045  0.2337  0.0825
  447loPI   C3A 7145  14.700   7.202   8.137 -0.4636  0.1540 -0.2020
  447loPI   C4A 7146  14.894   7.246   7.797  0.1656 -0.0902 -0.3919
  447loPI   C5A 7147  15.047   7.522   7.436  0.0031  0.2963  0.0022
  447loPI   C6A 7148  15.213   7.821   7.110 -0.0770  0.3310  0.0366
  447loPI   C1B 7149  14.299   7.754   8.724 -0.0758 -0.0242  0.1529
  447loPI   C2B 7150  14.185   7.897   8.373  0.2900 -0.2114  0.3578
  447loPI   C3B 7151  14.123   7.915   8.014 -0.2790 -0.0441  0.1659
  447loPI   C4B 7152  13.852   7.768   7.650 -0.1464  0.2303 -0.0202
  448loPI    C1 7153  15.131   0.133  10.404  0.1724  0.0774  0.0730
  448loPI    C2 7154  14.851  -0.098  10.571 -0.0615  0.3369  0.0470
  448loPI    C3 7155  15.000   0.213  10.773  0.3539  0.0885  0.1360
  448loPI   PO4 7156  15.295  -0.070  10.210 -0.1295 -0.1840 -0.0817
  448loPI   GL1 7157  15.328  -0.059   9.750  0.1686 -0.2063  0.1645
  448loPI   GL2 7158  15.532   0.115   9.811  0.0853  0.0548 -0.0095
  448loPI   C1A 7159  15.180  -0.060   9.308  0.1933 -0.0183 -0.0376
  448loPI   C2A 7160  15.071   0.046   8.847 -0.0819  0.0657 -0.0817
  448loPI   C3A 7161  15.180   0.054   8.341  0.0022  0.0559  0.0737
  448loPI   C4A 7162  15.105   0.117   7.952  0.0100  0.2307  0.0326
  448loPI   C5A 7163  15.515  -0.115   7.727  0.1154 -0.2665 -0.2539
  448loPI   C6A 7164  15.824  -0.207   7.420  0.1245  0.1450  0.0798
  448loPI   C1B 7165  15.633   0.224   9.414 -0.1466 -0.4789 -0.0409
  448loPI   C2B 7166  15.552   0.255   8.998 -0.2597 -0.2603  0.0777
  448loPI   C3B 7167  15.432   0.457   8.650  0.3049  0.0826 -0.0493
  448loPI   C4B 7168  15.341   0.486   8.195 -0.2017 -0.2172 -0.4590
  449loPI    C1 7169  14.521   2.430   9.876  0.0731 -0.1905 -0.2106
  449loPI    C2 7170  14.298   2.629  10.142  0.2087 -0.2531 -0.0482
  449loPI    C3 7171  14.391   2.245  10.206  0.0567 -0.3337 -0.2963
  449loPI   PO4 7172  14.368   2.544   9.632 -0.1056 -0.0638 -0.0293
  449loPI   GL1 7173  14.475   2.424   9.226 -0.0641  0.2065 -0.1369
  449loPI   GL2 7174  14.530   2.605   9.157 -0.0891 -0.2018 -0.0729
  449loPI   C1A 7175  14.139   2.311   9.019 -0.1402 -0.3303 -0.0701
  449loPI   C2A 7176  14.053   2.305   8.585 -0.0605  0.1321 -0.0823
  449loPI   C3A 7177  13.954   2.639   8.288  0.0469 -0.0997 -0.0537
  449loPI   C4A 7178  14.107   2.824   7.902 -0.0093 -0.3358 -0.2802
  449loPI   C5A 7179  13.981   3.182   7.607 -0.4217  0.3303  0.2154
  449loPI   C6A 7180  13.739   3.264   7.319  0.1500 -0.1234  0.2184
  449loPI   C1B 7181  14.482   2.601   8.751  0.2407 -0.2116  0.0290
  449loPI   C2B 7182  14.520   2.588   8.275 -0.2399 -0.0824  0.2571
  449loPI   C3B 7183  14.606   2.681   7.850 -0.1253  0.4224  0.2294
  449loPI   C4B 7184  14.460   2.929   7.517  0.1156  0.3483  0.3233
  450loPI    C1 7185  12.435   5.988  10.069  0.0065 -0.0246  0.1779
  450loPI    C2 7186  12.785   5.874   9.912  0.0377 -0.0851  0.2898
  450loPI    C3 7187  12.668   5.728  10.265  0.0821  0.2361  0.4410
  450loPI   PO4 7188  12.458   6.255   9.974 -0.0723  0.2898  0.2507
  450loPI   GL1 7189  12.228   6.443   9.678 -0.0779  0.0660  0.2630
  450loPI   GL2 7190  11.923   6.345   9.497  0.3060 -0.0691  0.0479
  450loPI   C1A 7191  12.307   6.481   9.164  0.0759 -0.2478 -0.1272
  450loPI   C2A 7192  12.529   6.583   8.728 -0.2779  0.1427  0.0515
  450loPI   C3A 7193  12.647   6.693   8.278 -0.0077 -0.1705 -0.2983
  450loPI   C4A 7194  12.673   6.459   7.914 -0.0478 -0.2282 -0.1131
  450loPI   C5A 7195  12.443   6.334   7.523  0.2618  0.1748 -0.0647
  450loPI   C6A 7196  12.242   6.450   7.150 -0.2086 -0.0278  0.1732
  450loPI   C1B 7197  11.969   6.144   9.137  0.1201  0.0641 -0.0981
  450loPI   C2B 7198  12.096   6.035   8.780 -0.0455 -0.2992  0.0430
  450loPI   C3B 7199  12.202   5.923   8.260 -0.1339  0.1526 -0.0948
  450loPI   C4B 7200  12.246   5.972   7.762 -0.1421  0.1046  0.0030
  451loPI    C1 7201  16.114   5.353   9.703  0.0236 -0.1506  0.0323
  451loPI    C2 7202  16.024   5.363  10.093 -0.1209 -0.3175  0.0046
  451loPI    C3 7203  16.106   5.703   9.897  0.0302 -0.2411  0.1972
  451loPI   PO4 7204  16.372   5.176   9.594  0.1999 -0.0719  0.0928
  451loPI   GL1 7205  16.718   5.171   9.443 -0.1680 -0.0304 -0.0956
  451loPI   GL2 7206  16.753   4.894   9.363  0.2403  0.0594 -0.1654
  451loPI   C1A 7207  16.847   5.431   9.118 -0.0593  0.2098  0.0349
  451loPI   C2A 7208  16.895   5.445   8.707 -0.0814  0.1480  0.2765
  451loPI   C3A 7209  17.044   5.720   8.386  0.1158  0.1588  0.1895
  451loPI   C4A 7210  16.976   6.078   8.076  0.0600  0.2343  0.1731
  451loPI   C5A 7211  16.872   6.331   7.690  0.0126  0.0717 -0.2071
  451loPI   C6A 7212  16.814   6.350   7.169 -0.1459 -0.0326  0.0542
  451loPI   C1B 7213  16.616   4.957   8.913 -0.1726 -0.1584  0.0269
  451loPI   C2B 7214  16.747   5.031   8.516  0.1829 -0.3027  0.0313
  451loPI   C3B 7215  16.759   5.284   8.242  0.0642 -0.0186 -0.0193
  451loPI   C4B 7216  17.074   5.444   7.954 -0.0596  0.0109  0.0858
  452loPI    C1 7217  14.695   6.342   9.960 -0.3000  0.0595  0.4146
  452loPI    C2 7218  14.700   6.734   9.881  0.1448 -0.0148  0.0274
  452loPI    C3 7219  14.935   6.584  10.168 -0.1316  0.0155  0.2745
  452loPI   PO4 7220  14.512   6.280   9.877  0.1507  0.1763 -0.0977
  452loPI   GL1 7221  14.359   6.207   9.485  0.1870  0.0728  0.1946
  452loPI   GL2 7222  14.079   6.161   9.357 -0.2173  0.2519  0.0504
  452loPI   C1A 7223  14.518   6.216   9.169  0.3304 -0.3759 -0.0767
  452loPI   C2A 7224  14.681   6.546   8.843  0.0633 -0.1159  0.0119
  452loPI   C3A 7225  14.475   6.725   8.499  0.0433 -0.0937 -0.3249
  452loPI   C4A 7226  14.474   6.628   8.091  0.0641  0.2312 -0.3107
  452loPI   C5A 7227  14.629   6.222   7.885 -0.2604 -0.1150 -0.1847
  452loPI   C6A 7228  14.568   5.858   8.152 -0.2541 -0.1164  0.2045
  452loPI   C1B 7229  14.061   5.931   9.001 -0.0314 -0.0372 -0.1141
  452loPI   C2B 7230  14.369   6.029   8.579  0.1108 -0.0640 -0.2404
  452loPI   C3B 7231  14.698   6.284   8.384 -0.1477 -0.3919 -0.0710
  452loPI   C4B 7232  15.098   6.270   8.191 -0.1472  0.0328 -0.3068
  453loPI    C1 7233   3.369  15.590   9.383  0.0345 -0.2546  0.0537
  453loPI    C2 7234   3.554  15.878   9.590 -0.0265 -0.1921  0.0217
  453loPI    C3 7235   3.404  15.560   9.780 -0.0504 -0.1525  0.0695
  453loPI   PO4 7236   3.457  15.558   9.164  0.0114  0.0037  0.1734
  453loPI   GL1 7237   3.641  15.709   8.800 -0.1150  0.1634  0.4577
  453loPI   GL2 7238   4.076  15.832   8.679 -0.0973 -0.0260  0.2163
  453loPI   C1A 7239   3.313  15.818   8.529 -0.4335  0.0729 -0.1224
  453loPI   C2A 7240   3.301  15.783   8.118  0.0207  0.0901 -0.2527
  453loPI   C3A 7241   3.120  16.027   7.749 -0.1929 -0.0546 -0.0942
  453loPI   C4A 7242   2.870  16.160   7.523  0.0224 -0.0351  0.1780
  453loPI   C5A 7243   2.940  16.165   7.058 -0.0360 -0.1619 -0.2573
  453loPI   C6A 7244   2.608  16.363   6.718 -0.1597 -0.0543  0.0803
  453loPI   C1B 7245   3.777  15.890   8.305 -0.0192  0.1001 -0.1017
  453loPI   C2B 7246   3.965  15.797   7.909  0.3604 -0.1118  0.0411
  453loPI   C3B 7247   4.108  15.810   7.611  0.2281  0.2652  0.3678
  453loPI   C4B 7248   4.503  15.692   7.391  0.0255  0.2365 -0.1043
  454loPI    C1 7249  12.517  10.926   9.701 -0.0930 -0.0517  0.0919
  454loPI    C2 7250  12.526  10.634   9.974  0.0605 -0.0601  0.0789
  454loPI    C3 7251  12.257  10.928  10.005 -0.2151 -0.2982 -0.0081
  454loPI   PO4 7252  12.536  10.862   9.492  0.1888  0.3316 -0.3185
  454loPI   GL1 7253  12.591  10.927   9.129  0.0281  0.2076 -0.0658
  454loPI   GL2 7254  12.721  10.642   8.974 -0.3700 -0.3467 -0.1432
  454loPI   C1A 7255  12.486  10.961   8.719 -0.0887  0.2460 -0.1352
  454loPI   C2A 7256  12.295  11.003   8.381  0.3514 -0.3322 -0.0210
  454loPI   C3A 7257  12.102  11.180   7.957  0.3708  0.0323  0.0094
  454loPI   C4A 7258  12.062  11.074   7.507 -0.0269 -0.2366 -0.0923
  454loPI   C5A 7259  12.193  11.098   7.060  0.1955  0.0215  0.0063
  454loPI   C6A 7260  12.248  11.472   6.748  0.2525 -0.0408  0.0790
  454loPI   C1B 7261  12.501  10.457   8.614 -0.2732  0.1708  0.0772
  454loPI   C2B 7262  12.339  10.512   8.190 -0.2537 -0.0371 -0.0838
  454loPI   C3B 7263  12.330  10.662   7.848  0.0940 -0.0022  0.1407
  454loPI   C4B 7264  11.889  10.734   7.826 -0.0609 -0.1561 -0.1035
  455loPI    C1 7265   9.673  14.120   9.169 -0.1808  0.0063 -0.0850
  455loPI    C2 7266   9.635  13.918   9.512 -0.2062 -0.0900 -0.1441
  455loPI    C3 7267   9.898  14.219   9.485 -0.2201 -0.0674 -0.0336
  455loPI   PO4 7268   9.359  14.176   9.201 -0.0620 -0.0073  0.0098
  455loPI   GL1 7269   9.122  14.128   8.881  0.2835  0.0232  0.0740
  455loPI   GL2 7270   9.297  13.982   8.727  0.2007  0.3480 -0.0296
  455loPI   C1A 7271   9.058  14.250   8.419  0.3947 -0.0860  0.4836
  455loPI   C2A 7272   8.955  14.330   7.969 -0.0364  0.1974  0.0144
  455loPI   C3A 7273   9.033  14.319   7.501 -0.0461 -0.0417  0.4328
  455loPI   C4A 7274   8.955  14.304   7.055  0.0833  0.2528  0.1951
  455loPI   C5A 7275   9.158  14.509   6.684 -0.0707 -0.0860  0.0638
  455loPI   C6A 7276   9.233  14.910   6.526  0.0904 -0.0318  0.0246
  455loPI   C1B 7277   9.329  13.820   8.391 -0.3331  0.2224 -0.0657
  455loPI   C2B 7278   9.445  13.781   7.947  0.2972 -0.2326 -0.1379
  455loPI   C3B 7279   9.616  13.738   7.536 -0.0022 -0.0351  0.2663
  455loPI   C4B 7280   9.701  13.653   7.007 -0.0345  0.1179 -0.0702
  456loPI    C1 7281   0.577  10.562  10.569 -0.2978  0.1128 -0.0104
  456loPI    C2 7282   0.543  10.325  10.889 -0.1100  0.2191  0.0897
  456loPI    C3 7283   0.691  10.695  10.928  0.0380  0.1858 -0.1399
  456loPI   PO4 7284   0.646  10.436  10.378 -0.2268 -0.3135  0.0170
  456loPI   GL1 7285   1.114  10.310  10.243 -0.1212 -0.3643  0.2755
  456loPI   GL2 7286   1.199  10.576  10.200  0.2265  0.2152  0.0971
  456loPI   C1A 7287   1.195  10.056   9.823  0.0757  0.0642  0.1545
  456loPI   C2A 7288   1.109   9.849   9.410 -0.0594  0.1269 -0.3102
  456loPI   C3A 7289   1.129   9.725   8.948  0.2680 -0.1221  0.0901
  456loPI   C4A 7290   0.875   9.740   8.475  0.0994 -0.1177  0.0270
  456loPI   C5A 7291   0.778   9.807   8.041  0.0008  0.0726  0.0190
  456loPI   C6A 7292   0.739   9.840   7.692 -0.2496  0.5053  0.0982
  456loPI   C1B 7293   1.213  10.574   9.755  0.0805  0.0121 -0.1488
  456loPI   C2B 7294   1.108  10.824   9.326  0.1802  0.2854 -0.1577
  456loPI   C3B 7295   1.094  10.831   8.917  0.2107  0.1382 -0.0331
  456loPI   C4B 7296   0.994  10.839   8.487 -0.0391  0.2283 -0.1279
  457loPI    C1 7297   0.994  15.429   9.987 -0.2298  0.2270  0.1798
  457loPI    C2 7298   0.843  15.065  10.058 -0.2140  0.1680 -0.0777
  457loPI    C3 7299   0.720  15.379  10.274  0.0024 -0.0403  0.3593
  457loPI   PO4 7300   1.028  15.468   9.674 -0.0434 -0.1192  0.0024
  457loPI   GL1 7301   1.045  15.534   9.279  0.1827  0.2180  0.5444
  457loPI   GL2 7302   0.995  15.230   9.195 -0.1477 -0.0481  0.0027
  457loPI   C1A 7303   1.102  15.543   8.847  0.3227  0.0402  0.2733
  457loPI   C2A 7304   1.236  15.768   8.491  0.0742 -0.0259 -0.4457
  457loPI   C3A 7305   1.113  15.765   8.167  0.1840  0.0633 -0.1263
  457loPI   C4A 7306   1.201  15.698   7.809  0.1554 -0.1868  0.2462
  457loPI   C5A 7307   1.371  15.423   7.420 -0.0672 -0.2965  0.1446
  457loPI   C6A 7308   1.273  15.610   6.971 -0.0926 -0.0164  0.2227
  457loPI   C1B 7309   0.966  15.083   8.788  0.0756  0.3224  0.2042
  457loPI   C2B 7310   1.125  14.834   8.434  0.2903  0.3438 -0.3005
  457loPI   C3B 7311   1.538  14.856   8.203 -0.0724 -0.0258 -0.0824
  457loPI   C4B 7312   1.602  14.466   8.313  0.2763  0.1936  0.0823
  458loPI    C1 7313  13.681  13.651  10.152  0.0429  0.0361 -0.0825
  458loPI    C2 7314  13.307  13.529  10.228  0.1119 -0.1527 -0.0409
  458loPI    C3 7315  13.555  13.614  10.530  0.0524  0.1332 -0.0696
  458loPI   PO4 7316  13.731  13.479   9.921 -0.2575 -0.1441 -0.0095
  458loPI   GL1 7317  13.965  13.705   9.577 -0.1642  0.2162 -0.1233
  458loPI   GL2 7318  14.125  13.464   9.411 -0.1918  0.2148  0.1159
  458loPI   C1A 7319  13.908  13.908   9.229  0.2972  0.0632  0.1134
  458loPI   C2A 7320  14.176  13.996   8.838 -0.1852  0.1794  0.4577
  458loPI   C3A 7321  14.159  14.021   8.432  0.0882 -0.1822 -0.0603
  458loPI   C4A 7322  14.194  14.088   8.042 -0.0482 -0.1669  0.4864
  458loPI   C5A 7323  14.316  14.198   7.608 -0.4587 -0.2153 -0.0779
  458loPI   C6A 7324  14.031  14.162   7.242 -0.0710 -0.1112  0.0018
  458loPI   C1B 7325  14.175  13.548   8.993  0.1353 -0.2183 -0.0501
  458loPI   C2B 7326  14.332  13.604   8.606 -0.1233  0.1411  0.4248
  458loPI   C3B 7327  14.337  13.418   8.167 -0.0650 -0.2260 -0.0645
  458loPI   C4B 7328  14.154  13.163   7.839  0.1005  0.1023 -0.2336
  459loPI    C1 7329   4.719  16.112   9.765  0.2298  0.1053 -0.0736
  459loPI    C2 7330   5.004  16.161  10.041  0.0117  0.3553  0.1133
  459loPI    C3 7331   4.622  16.125  10.152 -0.0766  0.4346 -0.1560
  459loPI   PO4 7332   4.838  16.042   9.566 -0.2611  0.3900 -0.0102
  459loPI   GL1 7333   5.054  16.001   9.082 -0.1639  0.1344 -0.1936
  459loPI   GL2 7334   5.432  15.967   9.119  0.1400  0.0085 -0.1119
  459loPI   C1A 7335   5.085  15.745   8.655 -0.0457 -0.0053  0.1816
  459loPI   C2A 7336   5.188  15.762   8.205 -0.0870  0.2381 -0.2988
  459loPI   C3A 7337   5.271  15.727   7.790 -0.0570 -0.3234 -0.0840
  459loPI   C4A 7338   5.306  15.709   7.364 -0.1351  0.0276  0.1457
  459loPI   C5A 7339   5.211  15.898   7.004 -0.1815  0.1237 -0.0802
  459loPI   C6A 7340   4.965  16.095   6.594 -0.2302  0.1259  0.0497
  459loPI   C1B 7341   5.494  15.985   8.779  0.0057  0.0610  0.4992
  459loPI   C2B 7342   5.589  16.025   8.372 -0.0494  0.1944  0.2350
  459loPI   C3B 7343   5.682  15.956   7.917  0.1295 -0.1462 -0.1100
  459loPI   C4B 7344   5.650  16.127   7.551 -0.0102  0.1101 -0.1441
  460loPI    C1 7345  15.109  14.209   9.859 -0.0884  0.2113 -0.3111
  460loPI    C2 7346  15.026  13.917   9.599 -0.0259  0.2004 -0.3190
  460loPI    C3 7347  15.023  13.842   9.992  0.0866  0.1644 -0.3246
  460loPI   PO4 7348  15.362  14.415   9.794 -0.0616  0.1801 -0.2136
  460loPI   GL1 7349  15.621  14.566   9.525 -0.1411  0.0597  0.0758
  460loPI   GL2 7350  15.700  14.946   9.461 -0.3723  0.0858 -0.1498
  460loPI   C1A 7351  15.784  14.481   9.144 -0.3848  0.3051  0.5384
  460loPI   C2A 7352  15.909  14.547   8.749  0.0922  0.1069 -0.1457
  460loPI   C3A 7353  15.934  14.556   8.361  0.1477 -0.2090 -0.3874
  460loPI   C4A 7354  16.143  14.456   8.008  0.0128  0.0399  0.0610
  460loPI   C5A 7355  16.294  14.114   7.685  0.1821  0.1352  0.4193
  460loPI   C6A 7356  16.170  13.737   7.513 -0.0341  0.1984 -0.0343
  460loPI   C1B 7357  15.545  14.948   9.031  0.3112  0.0523  0.2988
  460loPI   C2B 7358  15.446  14.965   8.596 -0.0149  0.0149  0.1642
  460loPI   C3B 7359  15.601  14.853   8.176  0.2964 -0.1643 -0.1903
  460loPI   C4B 7360  15.598  14.555   7.822 -0.1977  0.0197 -0.1133
  461loPI    C1 7361   8.372  10.934   9.412  0.0116  0.1271  0.0103
  461loPI    C2 7362   8.525  10.734   9.101 -0.1250  0.0614 -0.0154
  461loPI    C3 7363   8.707  11.064   9.236  0.0217  0.0013 -0.0643
  461loPI   PO4 7364   8.071  10.943   9.343 -0.0425 -0.4745  0.1157
  461loPI   GL1 7365   7.857  10.887   9.043 -0.2706  0.1622  0.0605
  461loPI   GL2 7366   7.989  10.621   8.945 -0.3978 -0.1820  0.1116
  461loPI   C1A 7367   7.704  10.951   8.660 -0.0554  0.0920  0.1280
  461loPI   C2A 7368   7.541  10.910   8.243 -0.0363 -0.2555  0.0138
  461loPI   C3A 7369   7.593  10.959   7.828 -0.0300 -0.1286 -0.0802
  461loPI   C4A 7370   7.839  10.958   7.451  0.0869 -0.0898 -0.1019
  461loPI   C5A 7371   8.034  10.912   7.015 -0.6691  0.4239 -0.1650
  461loPI   C6A 7372   8.135  10.794   6.582  0.1124  0.0125  0.1528
  461loPI   C1B 7373   8.229  10.629   8.536 -0.5614  0.0691 -0.1485
  461loPI   C2B 7374   8.430  10.602   8.051 -0.4290 -0.3319  0.1367
  461loPI   C3B 7375   8.736  10.671   7.645  0.1294 -0.0516 -0.0392
  461loPI   C4B 7376   8.802  10.789   7.183 -0.2499 -0.4217  0.2180
  462loPI    C1 7377   5.970  18.298   9.804 -0.1649 -0.2088 -0.2921
  462loPI    C2 7378   5.615  18.374   9.637 -0.2996 -0.1696  0.0051
  462loPI    C3 7379   5.652  18.373  10.035  0.1143  0.1939 -0.0244
  462loPI   PO4 7380   6.104  18.467   9.554 -0.2024 -0.1956  0.5150
  462loPI   GL1 7381   6.250  18.539   9.120  0.3063 -0.0686  0.1882
  462loPI   GL2 7382   6.241  18.850   9.081 -0.1009 -0.2743 -0.0282
  462loPI   C1A 7383   6.468  18.387   8.719 -0.1488 -0.1176  0.1850
  462loPI   C2A 7384   6.424  18.300   8.344  0.2334  0.0039  0.0083
  462loPI   C3A 7385   6.243  18.274   8.000  0.1892 -0.0178 -0.0692
  462loPI   C4A 7386   6.500  18.232   7.758  0.1472 -0.0448 -0.2561
  462loPI   C5A 7387   6.534  18.304   7.316  0.2291  0.1773 -0.2214
  462loPI   C6A 7388   6.526  18.385   6.800  0.0913  0.1658 -0.0286
  462loPI   C1B 7389   6.072  18.677   8.691 -0.1209 -0.1587 -0.2412
  462loPI   C2B 7390   6.137  18.721   8.307  0.1394  0.0849 -0.0620
  462loPI   C3B 7391   6.016  18.763   7.966 -0.3094  0.0746 -0.1455
  462loPI   C4B 7392   6.170  18.711   7.718  0.3154  0.1499 -0.0808
  463loPI    C1 7393   9.050   3.645   9.855  0.1160  0.0960 -0.0342
  463loPI    C2 7394   8.921   3.296  10.002 -0.0655  0.1103 -0.1566
  463loPI    C3 7395   9.119   3.552  10.238  0.1125 -0.0961 -0.0791
  463loPI   PO4 7396   9.124   3.509   9.571 -0.0026 -0.1651  0.0840
  463loPI   GL1 7397   9.003   3.423   9.174  0.0517  0.1130  0.1943
  463loPI   GL2 7398   9.205   3.669   9.123  0.1349 -0.1540  0.2250
  463loPI   C1A 7399   9.038   3.379   8.738 -0.0721 -0.5875 -0.0569
  463loPI   C2A 7400   9.108   3.417   8.381 -0.5147  0.0400  0.1091
  463loPI   C3A 7401   9.100   3.551   7.954 -0.1426 -0.0833  0.0091
  463loPI   C4A 7402   9.092   3.479   7.607  0.3227 -0.4119 -0.0143
  463loPI   C5A 7403   9.224   3.169   7.298  0.1167 -0.0476  0.0281
  463loPI   C6A 7404   9.068   3.000   6.969 -0.0242  0.1854 -0.0926
  463loPI   C1B 7405   9.510   3.644   8.776 -0.0503  0.2375 -0.0153
  463loPI   C2B 7406   9.521   3.676   8.318  0.1419  0.2152 -0.0684
  463loPI   C3B 7407   9.571   3.850   7.819  0.0980  0.0188 -0.1255
  463loPI   C4B 7408   9.542   3.880   7.333  0.1231  0.2616  0.3287
  464loPI    C1 7409   9.635   7.116  10.403 -0.0878 -0.0532 -0.0887
  464loPI    C2 7410   9.300   7.236  10.586  0.0020  0.3083 -0.1535
  464loPI    C3 7411   9.564   7.008  10.782 -0.1907  0.1804 -0.0394
  464loPI   PO4 7412   9.556   7.052  10.121  0.1481  0.0787 -0.2047
  464loPI   GL1 7413   9.780   7.192   9.708  0.0675  0.1654 -0.0308
  464loPI   GL2 7414   9.858   6.954   9.675 -0.3342  0.1524 -0.0356
  464loPI   C1A 7415   9.476   7.412   9.388  0.4393 -0.3139  0.0114
  464loPI   C2A 7416   9.406   7.399   9.001 -0.1326 -0.0291 -0.2885
  464loPI   C3A 7417   9.602   7.145   8.704  0.0924  0.0558  0.0823
  464loPI   C4A 7418   9.534   7.104   8.259  0.1341  0.0503  0.0387
  464loPI   C5A 7419   9.398   6.891   7.867 -0.1084 -0.0733 -0.2515
  464loPI   C6A 7420   9.591   6.865   7.487 -0.0057  0.1676 -0.1058
  464loPI   C1B 7421   9.681   6.996   9.200  0.0388  0.0866  0.1053
  464loPI   C2B 7422   9.827   6.692   8.867 -0.1962  0.1629 -0.0955
  464loPI   C3B 7423   9.971   6.661   8.450  0.0511 -0.0500 -0.1954
  464loPI   C4B 7424  10.070   6.506   8.145 -0.3983 -0.0880 -0.0877
  465loPI    C1 7425   2.844   3.986   9.872 -0.2166 -0.0770 -0.0484
  465loPI    C2 7426   2.820   3.599   9.774 -0.0121 -0.1309  0.1088
  465loPI    C3 7427   2.683   3.725  10.128  0.0996 -0.0926  0.1389
  465loPI   PO4 7428   2.808   4.117   9.622  0.1616  0.1104  0.1533
  465loPI   GL1 7429   2.648   4.257   9.211 -0.2356  0.0820  0.0235
  465loPI   GL2 7430   2.477   4.086   9.152  0.1547 -0.0193 -0.2305
  465loPI   C1A 7431   2.843   4.130   8.858  0.0096 -0.0303 -0.0401
  465loPI   C2A 7432   2.664   4.170   8.475  0.0518  0.1248 -0.0887
  465loPI   C3A 7433   2.455   4.525   8.289 -0.1656  0.0431 -0.0477
  465loPI   C4A 7434   2.351   4.851   8.017  0.1150  0.0902  0.0564
  465loPI   C5A 7435   2.537   4.821   7.720 -0.0915  0.1498  0.2833
  465loPI   C6A 7436   2.968   4.729   7.572  0.2083 -0.1230  0.0235
  465loPI   C1B 7437   2.225   4.119   8.799  0.3031  0.2271  0.2006
  465loPI   C2B 7438   2.028   4.268   8.381  0.3395 -0.1611  0.0913
  465loPI   C3B 7439   2.022   4.358   8.000  0.0021 -0.0910  0.0208
  465loPI   C4B 7440   1.905   4.589   7.714 -0.4012 -0.0959 -0.2073
  466loPI    C1 7441   5.094   0.800   9.684  0.1850 -0.0927  0.0835
  466loPI    C2 7442   5.176   1.191   9.705  0.1261 -0.0867  0.2167
  466loPI    C3 7443   4.841   1.049   9.869  0.0536 -0.1659  0.0031
  466loPI   PO4 7444   5.324   0.744   9.428  0.0469  0.0165 -0.2351
  466loPI   GL1 7445   5.429   0.562   9.072  0.1203  0.0736 -0.0472
  466loPI   GL2 7446   5.599   0.729   8.897  0.2260  0.1978  0.2007
  466loPI   C1A 7447   5.145   0.453   8.761 -0.1536 -0.3519  0.2114
  466loPI   C2A 7448   4.980   0.292   8.456 -0.0751 -0.2596  0.6914
  466loPI   C3A 7449   4.955   0.229   8.111 -0.0166  0.1102  0.2828
  466loPI   C4A 7450   4.958   0.109   7.569  0.0070  0.0121 -0.3216
  466loPI   C5A 7451   5.106   0.236   7.282 -0.0850  0.2325  0.1949
  466loPI   C6A 7452   5.441   0.373   6.931  0.0592 -0.1439 -0.3845
  466loPI   C1B 7453   5.632   0.951   8.520 -0.2624 -0.2407 -0.1834
  466loPI   C2B 7454   5.622   1.041   8.082  0.0933 -0.0410 -0.0555
  466loPI   C3B 7455   5.666   1.059   7.619  0.1009 -0.0417  0.0580
  466loPI   C4B 7456   5.630   1.248   7.135  0.0102 -0.5446 -0.2455
  467loPI    C1 7457  16.363   0.650  10.170 -0.0526 -0.0155 -0.0013
  467loPI    C2 7458  16.678   0.838  10.329 -0.1305 -0.1092  0.2705
  467loPI    C3 7459  16.679   0.439  10.296 -0.0194 -0.0768 -0.1850
  467loPI   PO4 7460  16.256   0.845  10.008  0.1476 -0.1199  0.0801
  467loPI   GL1 7461  16.340   0.871   9.471  0.1611  0.4807 -0.0319
  467loPI   GL2 7462  16.247   1.231   9.615  0.1547  0.0686  0.0846
  467loPI   C1A 7463  16.484   0.810   9.036 -0.2078 -0.0495 -0.0374
  467loPI   C2A 7464  16.453   0.625   8.595  0.0267  0.0480 -0.0027
  467loPI   C3A 7465  16.347   0.841   8.167 -0.0132 -0.1189  0.1026
  467loPI   C4A 7466  16.385   1.132   7.727  0.2790 -0.0336  0.0087
  467loPI   C5A 7467  16.629   1.463   7.429 -0.3086  0.3281 -0.0675
  467loPI   C6A 7468  16.998   1.411   7.074 -0.4312  0.0211  0.1858
  467loPI   C1B 7469  16.416   1.446   9.265  0.0652 -0.2694  0.0980
  467loPI   C2B 7470  16.406   1.301   8.915 -0.1653 -0.2073 -0.3846
  467loPI   C3B 7471  16.602   1.190   8.577 -0.2209 -0.0431 -0.1483
  467loPI   C4B 7472  16.738   1.068   8.021  0.0124  0.0989  0.1536
  468loPI    C1 7473   2.137   4.267   9.655 -0.1907  0.0250 -0.0910
  468loPI    C2 7474   2.448   4.446   9.833 -0.1996 -0.0669  0.0185
  468loPI    C3 7475   2.332   4.082   9.952 -0.3102 -0.0592 -0.0641
  468loPI   PO4 7476   2.189   4.392   9.387  0.0745  0.1043  0.3358
  468loPI   GL1 7477   2.105   4.599   8.819 -0.2455  0.2751 -0.1229
  468loPI   GL2 7478   2.056   4.840   8.592 -0.1758  0.0103  0.2129
  468loPI   C1A 7479   2.505   4.575   8.756  0.1236  0.0287  0.1341
  468loPI   C2A 7480   2.997   4.583   8.615  0.0086  0.2593  0.0013
  468loPI   C3A 7481   3.265   4.859   8.299  0.1577 -0.0258  0.0633
  468loPI   C4A 7482   3.218   5.025   7.947 -0.2286  0.0111  0.0004
  468loPI   C5A 7483   2.993   5.283   7.704  0.0177  0.3197  0.3119
  468loPI   C6A 7484   2.732   5.187   7.323 -0.0724 -0.1298  0.0004
  468loPI   C1B 7485   1.777   4.764   8.206 -0.1688  0.0697  0.2154
  468loPI   C2B 7486   1.467   4.814   7.888 -0.1271  0.2848  0.3818
  468loPI   C3B 7487   1.403   5.160   7.480 -0.0961  0.4155 -0.1971
  468loPI   C4B 7488   1.408   5.521   7.169  0.1379 -0.2391  0.0269
  469loPI    C1 7489  10.602  13.713   9.591 -0.0332 -0.0767  0.0696
  469loPI    C2 7490  10.557  13.883   9.951  0.0834  0.0260  0.0368
  469loPI    C3 7491  10.484  13.492   9.903 -0.0140  0.0293  0.1527
  469loPI   PO4 7492  10.519  13.869   9.388 -0.2398  0.0456 -0.0414
  469loPI   GL1 7493  10.603  13.863   8.888  0.1648  0.4292 -0.0386
  469loPI   GL2 7494  10.440  13.666   8.892  0.0603 -0.0653  0.1409
  469loPI   C1A 7495  10.709  14.004   8.522  0.1037  0.1047 -0.1215
  469loPI   C2A 7496  10.679  13.856   8.058 -0.2063 -0.0767  0.0485
  469loPI   C3A 7497  10.640  13.748   7.691  0.2088  0.1592 -0.0167
  469loPI   C4A 7498  10.515  13.788   7.275  0.1186 -0.0903 -0.3840
  469loPI   C5A 7499  10.244  14.073   6.993  0.0589 -0.1043  0.1343
  469loPI   C6A 7500   9.946  14.080   6.768 -0.0467 -0.0470  0.5629
  469loPI   C1B 7501  10.288  13.683   8.495 -0.0526  0.2324  0.3768
  469loPI   C2B 7502  10.215  13.540   8.200  0.0856 -0.4359 -0.1400
  469loPI   C3B 7503  10.246  13.470   7.843 -0.0387  0.1325  0.0010
  469loPI   C4B 7504  10.093  13.546   7.302  0.1340 -0.1905 -0.1777
  470loPI    C1 7505   3.118   1.337   9.165  0.0532 -0.2820  0.0330
  470loPI    C2 7506   2.814   1.433   8.923  0.0286  0.0467  0.1883
  470loPI    C3 7507   2.742   1.256   9.274  0.0046  0.2394  0.2814
  470loPI   PO4 7508   3.313   1.533   9.005  0.1307 -0.0653  0.0786
  470loPI   GL1 7509   3.233   1.704   8.605  0.2656  0.1498 -0.2683
  470loPI   GL2 7510   3.276   1.352   8.546 -0.3295 -0.1325  0.0222
  470loPI   C1A 7511   3.521   1.696   8.261  0.0749  0.2673  0.0728
  470loPI   C2A 7512   3.503   1.726   7.823 -0.0722  0.1705 -0.1723
  470loPI   C3A 7513   3.475   1.890   7.500 -0.3265  0.1219  0.0174
  470loPI   C4A 7514   3.488   1.948   7.025  0.1835 -0.1151  0.0003
  470loPI   C5A 7515   3.115   2.107   6.650  0.1331 -0.0069  0.2490
  470loPI   C6A 7516   2.892   2.041   6.309  0.1091  0.2029  0.3068
  470loPI   C1B 7517   3.571   1.109   8.246  0.0346  0.0361  0.0228
  470loPI   C2B 7518   3.500   1.165   7.762  0.0152  0.0150  0.5035
  470loPI   C3B 7519   3.390   1.422   7.302  0.1233  0.2806 -0.0245
  470loPI   C4B 7520   3.119   1.340   6.959  0.2233  0.0655  0.1308
  471loPI    C1 7521  17.302   4.607  10.325 -0.1085 -0.2125 -0.0305
  471loPI    C2 7522  17.038   4.718  10.604 -0.1212  0.3797 -0.2647
  471loPI    C3 7523  17.421   4.661  10.703 -0.1650  0.3848 -0.0897
  471loPI   PO4 7524  17.257   4.809  10.086 -0.0404 -0.0410  0.2454
  471loPI   GL1 7525  17.387   4.822   9.666 -0.2372  0.1247 -0.1663
  471loPI   GL2 7526  17.221   4.609   9.583  0.0034  0.0290  0.2301
  471loPI   C1A 7527  17.242   5.110   9.308  0.2447 -0.1662 -0.1413
  471loPI   C2A 7528  17.166   5.062   8.892  0.1302 -0.2368  0.0789
  471loPI   C3A 7529  17.243   5.100   8.458  0.1057  0.0175  0.0949
  471loPI   C4A 7530  17.346   4.974   7.990  0.1826 -0.0915 -0.1148
  471loPI   C5A 7531  17.041   5.036   7.696 -0.2845  0.0711  0.0445
  471loPI   C6A 7532  16.714   5.376   7.548  0.2540  0.5212 -0.2435
  471loPI   C1B 7533  17.126   4.635   9.143 -0.1291 -0.1333  0.0958
  471loPI   C2B 7534  17.207   4.600   8.712  0.3794  0.0753 -0.1401
  471loPI   C3B 7535  17.001   4.626   8.271  0.3335  0.1501  0.0786
  471loPI   C4B 7536  16.766   4.851   8.020  0.1049 -0.0924 -0.1511
  472loPI    C1 7537  10.523   9.569   9.737 -0.3917 -0.0790  0.0014
  472loPI    C2 7538  10.830   9.614   9.990 -0.1941 -0.0722 -0.2360
  472loPI    C3 7539  10.499   9.422  10.108 -0.3016  0.3529  0.1849
  472loPI   PO4 7540  10.643   9.595   9.508 -0.1628 -0.0727 -0.3174
  472loPI   GL1 7541  10.402   9.754   9.112 -0.0101  0.0898  0.1365
  472loPI   GL2 7542  10.420  10.085   9.055 -0.2165  0.0095 -0.0111
  472loPI   C1A 7543  10.288   9.622   8.657 -0.1755  0.0734  0.0461
  472loPI   C2A 7544  10.173   9.394   8.288 -0.1949 -0.0450 -0.2904
  472loPI   C3A 7545  10.125   9.112   8.004 -0.0780  0.1234 -0.0238
  472loPI   C4A 7546   9.977   8.831   7.714 -0.3659 -0.1821 -0.0619
  472loPI   C5A 7547   9.679   8.793   7.243  0.4365 -0.3129  0.1385
  472loPI   C6A 7548   9.245   8.750   7.183 -0.1635  0.2134 -0.0269
  472loPI   C1B 7549  10.714  10.061   8.714  0.0105 -0.0980  0.2830
  472loPI   C2B 7550  10.745   9.994   8.274  0.1995  0.4180 -0.1477
  472loPI   C3B 7551  10.819   9.845   7.898 -0.0684  0.3031 -0.0343
  472loPI   C4B 7552  10.679   9.737   7.434 -0.0302  0.1404 -0.1671
  473loPI    C1 7553   7.064  12.656   9.807 -0.1787 -0.3656 -0.3419
  473loPI    C2 7554   7.438  12.557   9.910 -0.0692 -0.1561 -0.5284
  473loPI    C3 7555   7.210  12.765  10.164 -0.0846 -0.3438 -0.3865
  473loPI   PO4 7556   7.060  12.642   9.544  0.0936  0.1328 -0.0400
  473loPI   GL1 7557   6.915  12.441   9.143  0.2244  0.0829  0.0228
  473loPI   GL2 7558   6.613  12.633   9.281  0.0717  0.1103 -0.5345
  473loPI   C1A 7559   7.007  12.478   8.679  0.3438 -0.1279 -0.0784
  473loPI   C2A 7560   6.992  12.532   8.190  0.0514 -0.2861  0.1147
  473loPI   C3A 7561   7.107  12.379   7.862 -0.3633  0.0629 -0.0217
  473loPI   C4A 7562   6.980  12.274   7.397 -0.1046 -0.0308  0.2172
  473loPI   C5A 7563   6.757  12.380   7.059 -0.4417  0.0604  0.0130
  473loPI   C6A 7564   6.636  12.174   6.711  0.2740 -0.2783 -0.0881
  473loPI   C1B 7565   6.517  12.553   8.770  0.0159  0.3818  0.0531
  473loPI   C2B 7566   6.480  12.577   8.352 -0.3285 -0.0381 -0.2825
  473loPI   C3B 7567   6.586  12.494   7.957  0.2568 -0.0793 -0.2538
  473loPI   C4B 7568   6.694  12.500   7.667 -0.0912 -0.3210 -0.2785
  474loPI    C1 7569   5.143  10.963  10.022 -0.0107 -0.1607  0.0502
  474loPI    C2 7570   5.102  10.906  10.415 -0.1286 -0.0979  0.0473
  474loPI    C3 7571   4.952  11.235  10.244  0.1764  0.0176 -0.0040
  474loPI   PO4 7572   5.000  10.804   9.899  0.2218  0.2276  0.2121
  474loPI   GL1 7573   4.770  10.830   9.535  0.3546 -0.1599 -0.2778
  474loPI   GL2 7574   5.016  10.666   9.312 -0.1499  0.0241 -0.0521
  474loPI   C1A 7575   4.523  10.772   9.119 -0.0245 -0.0793  0.3219
  474loPI   C2A 7576   4.217  10.569   8.969 -0.2691 -0.1686 -0.1216
  474loPI   C3A 7577   4.022  10.737   8.640 -0.0368  0.2546  0.0274
  474loPI   C4A 7578   4.075  10.591   8.248  0.2511 -0.1416  0.0254
  474loPI   C5A 7579   4.586  10.588   8.022  0.1789 -0.1199  0.0620
  474loPI   C6A 7580   4.965  10.414   7.730  0.0475 -0.0725 -0.1119
  474loPI   C1B 7581   4.948  10.994   9.071  0.0152  0.1455  0.0874
  474loPI   C2B 7582   4.710  11.338   8.880 -0.0453  0.1585 -0.1490
  474loPI   C3B 7583   4.909  11.529   8.486  0.0193  0.0731 -0.0203
  474loPI   C4B 7584   4.951  11.709   8.160  0.0131  0.1115 -0.1224
  475loPI    C1 7585   8.952   7.304  10.174  0.0326  0.0630  0.0197
  475loPI    C2 7586   9.276   7.479  10.018 -0.1081  0.1211 -0.2117
  475loPI    C3 7587   9.099   7.637  10.339 -0.0522  0.2284 -0.2333
  475loPI   PO4 7588   8.763   7.259  10.058 -0.0789 -0.2289  0.1837
  475loPI   GL1 7589   8.798   7.158   9.614  0.0914 -0.3724 -0.0910
  475loPI   GL2 7590   8.597   6.923   9.497 -0.0610 -0.0173 -0.3582
  475loPI   C1A 7591   9.035   7.221   9.275 -0.0609 -0.2907  0.0795
  475loPI   C2A 7592   9.115   7.071   8.782 -0.1761  0.3817 -0.1817
  475loPI   C3A 7593   9.013   7.043   8.321 -0.0651 -0.2361 -0.0996
  475loPI   C4A 7594   8.932   7.018   7.761  0.0981  0.0470  0.0151
  475loPI   C5A 7595   9.209   7.236   7.475  0.0663 -0.1414  0.1164
  475loPI   C6A 7596   9.187   7.072   7.119  0.0675 -0.0992  0.0381
  475loPI   C1B 7597   8.414   7.033   9.083 -0.0744  0.0475  0.0704
  475loPI   C2B 7598   8.515   7.083   8.633  0.1482  0.1190  0.1461
  475loPI   C3B 7599   8.527   7.160   8.128 -0.0302  0.2119 -0.4340
  475loPI   C4B 7600   8.405   7.294   7.732  0.1195 -0.1557 -0.0319
  476loPI    C1 7601  14.458  14.317  10.206 -0.0913 -0.1109 -0.1077
  476loPI    C2 7602  14.844  14.221  10.250 -0.0528 -0.0131 -0.2269
  476loPI    C3 7603  14.596  14.202  10.563  0.0780  0.0546 -0.1181
  476loPI   PO4 7604  14.481  14.535  10.032 -0.0741 -0.1059 -0.1070
  476loPI   GL1 7605  14.383  14.514   9.579 -0.1341  0.0478  0.0273
  476loPI   GL2 7606  14.516  14.802   9.547  0.2379  0.1053  0.1966
  476loPI   C1A 7607  13.979  14.730   9.383 -0.1813  0.0162 -0.1546
  476loPI   C2A 7608  13.868  14.952   8.969  0.2338 -0.0767  0.4733
  476loPI   C3A 7609  13.740  15.134   8.487 -0.0389  0.1605  0.2155
  476loPI   C4A 7610  13.763  15.304   8.125 -0.2303  0.0819 -0.0534
  476loPI   C5A 7611  13.672  15.482   7.759 -0.2672  0.1898  0.1056
  476loPI   C6A 7612  13.751  15.515   7.349  0.2812 -0.0852 -0.4969
  476loPI   C1B 7613  14.511  14.554   9.046  0.1373 -0.0974  0.1062
  476loPI   C2B 7614  14.531  14.281   8.683  0.1667  0.1838  0.0393
  476loPI   C3B 7615  14.820  14.260   8.404  0.1703 -0.1344  0.2986
  476loPI   C4B 7616  15.090  14.535   8.146 -0.1237 -0.0501  0.0221
  477loPI    C1 7617   1.008   9.661  10.811 -0.0793 -0.0875  0.1590
  477loPI    C2 7618   0.767   9.865  10.566  0.0499 -0.1360 -0.0106
  477loPI    C3 7619   0.967  10.056  10.855  0.2072 -0.0122 -0.1983
  477loPI   PO4 7620   1.048   9.441  10.649 -0.3334  0.2956 -0.0686
  477loPI   GL1 7621   0.862   9.429  10.194 -0.0948 -0.2940 -0.0079
  477loPI   GL2 7622   0.588   9.524  10.206 -0.3238 -0.0727  0.0623
  477loPI   C1A 7623   1.028   9.520   9.867 -0.0862 -0.1242  0.0334
  477loPI   C2A 7624   0.842   9.359   9.468 -0.0412  0.1916 -0.0133
  477loPI   C3A 7625   0.838   9.317   9.074 -0.0040 -0.2288  0.1480
  477loPI   C4A 7626   0.754   9.286   8.651 -0.2233  0.0175  0.0846
  477loPI   C5A 7627   0.686   9.375   8.246  0.2768  0.3041  0.0197
  477loPI   C6A 7628   0.705   9.278   7.892 -0.0842  0.0698 -0.3523
  477loPI   C1B 7629   0.450   9.696   9.827 -0.1496  0.1602  0.3436
  477loPI   C2B 7630   0.628   9.840   9.407  0.0799 -0.0287  0.1254
  477loPI   C3B 7631   0.643   9.726   8.909  0.0425  0.2142 -0.1583
  477loPI   C4B 7632   0.404   9.718   8.583  0.2179  0.4116  0.1968
  478loPI    C1 7633  14.064   1.215   9.967  0.3280 -0.2702  0.1339
  478loPI    C2 7634  13.983   1.405  10.310  0.1396 -0.0002 -0.0564
  478loPI    C3 7635  14.148   1.041  10.318  0.1163 -0.0067  0.3200
  478loPI   PO4 7636  13.832   1.267   9.864  0.0238  0.0869 -0.0659
  478loPI   GL1 7637  13.740   1.115   9.498  0.1467 -0.1931 -0.0042
  478loPI   GL2 7638  14.002   0.887   9.448  0.0481 -0.2876 -0.1910
  478loPI   C1A 7639  14.057   1.290   9.015  0.0901 -0.0821  0.0591
  478loPI   C2A 7640  14.192   1.230   8.576  0.0909  0.0778 -0.1801
  478loPI   C3A 7641  14.203   1.329   8.207 -0.0120 -0.4241  0.1308
  478loPI   C4A 7642  14.117   1.319   7.768 -0.2136 -0.2451 -0.1698
  478loPI   C5A 7643  14.083   1.457   7.362 -0.0216  0.1310  0.2081
  478loPI   C6A 7644  13.898   1.750   7.038  0.1610 -0.3115 -0.2725
  478loPI   C1B 7645  13.765   0.838   8.937 -0.1446  0.2490 -0.1244
  478loPI   C2B 7646  13.842   0.750   8.512 -0.4746 -0.1898  0.0593
  478loPI   C3B 7647  13.846   0.989   8.117 -0.1180  0.0860  0.1123
  478loPI   C4B 7648  13.695   1.031   7.782 -0.0202  0.0598 -0.1284
  479loPI    C1 7649  10.242   5.400   9.897 -0.1306 -0.0761 -0.2198
  479loPI    C2 7650   9.864   5.307   9.988 -0.1479  0.1438 -0.0569
  479loPI    C3 7651  10.106   5.454  10.270 -0.0115  0.2297 -0.2173
  479loPI   PO4 7652  10.317   5.532   9.738  0.0570 -0.1004 -0.0621
  479loPI   GL1 7653  10.311   5.537   9.319 -0.0628  0.1449  0.0285
  479loPI   GL2 7654  10.624   5.537   9.248 -0.1712  0.3142  0.1496
  479loPI   C1A 7655  10.398   5.872   8.961  0.1862  0.3866 -0.2032
  479loPI   C2A 7656  10.644   6.243   8.792  0.0646  0.4031 -0.0574
  479loPI   C3A 7657  10.916   6.473   8.533 -0.0520 -0.0904 -0.1941
  479loPI   C4A 7658  11.096   6.840   8.263  0.3867  0.0976 -0.3280
  479loPI   C5A 7659  10.970   7.123   7.948 -0.0454 -0.2529  0.2575
  479loPI   C6A 7660  10.939   7.335   7.542  0.1123  0.2283  0.4033
  479loPI   C1B 7661  10.851   5.661   8.889 -0.0772  0.2065  0.1270
  479loPI   C2B 7662  10.771   5.810   8.488 -0.0105 -0.2959 -0.0392
  479loPI   C3B 7663  10.825   5.973   8.093 -0.0695  0.0809  0.0595
  479loPI   C4B 7664  10.893   6.389   8.065 -0.0142 -0.0656  0.2873
  480loPI    C1 7665  18.638   8.684  10.540  0.0806 -0.2113 -0.0019
  480loPI    C2 7666  18.822   8.423  10.781  0.0456 -0.0274  0.2284
  480loPI    C3 7667  18.833   8.814  10.864  0.0449  0.0410 -0.0794
  480loPI   PO4 7668  18.638   8.619  10.343 -0.0088 -0.1613  0.2569
  480loPI   GL1 7669  18.657   8.387  10.027 -0.1114 -0.0402 -0.0439
  480loPI   GL2 7670  18.669   8.669   9.843  0.0757 -0.1732 -0.0571
  480loPI   C1A 7671  18.616   8.171   9.662  0.1069 -0.0139 -0.0755
  480loPI   C2A 7672  18.535   8.171   9.225 -0.3938  0.0220 -0.2820
  480loPI   C3A 7673  18.657   8.362   8.783  0.1852  0.0718  0.1583
  480loPI   C4A 7674  18.585   8.431   8.412 -0.0953 -0.2457 -0.2194
  480loPI   C5A 7675  18.811   8.434   7.997 -0.0531  0.0854 -0.1209
  480loPI   C6A 7676  18.671   8.599   7.632 -0.2108 -0.2419 -0.0100
  480loPI   C1B 7677  18.625   8.665   9.400  0.1540 -0.0256  0.0491
  480loPI   C2B 7678  18.533   8.829   8.980  0.0394  0.1357 -0.4204
  480loPI   C3B 7679  18.572   9.170   8.800  0.2947 -0.2889 -0.0604
  480loPI   C4B 7680  18.589   9.437   8.428 -0.2165  0.1554  0.0011
  481loPI    C1 7681   7.337   9.243   9.617  0.0655  0.0250 -0.0257
  481loPI    C2 7682   7.270   9.482   9.930  0.0878 -0.1157  0.0879
  481loPI    C3 7683   7.440   9.125   9.985  0.0845 -0.1447 -0.0846
  481loPI   PO4 7684   7.301   9.357   9.367  0.2473 -0.4800 -0.2202
  481loPI   GL1 7685   7.104   9.644   9.018 -0.1472 -0.3265  0.1452
  481loPI   GL2 7686   6.922   9.765   8.982 -0.0518 -0.0730 -0.1130
  481loPI   C1A 7687   7.270   9.423   8.717  0.2509  0.2298 -0.1345
  481loPI   C2A 7688   7.484   9.305   8.426  0.0481  0.2937 -0.1521
  481loPI   C3A 7689   7.699   9.416   8.017  0.0160  0.0552  0.0897
  481loPI   C4A 7690   7.682   9.600   7.636 -0.1813 -0.0597  0.2649
  481loPI   C5A 7691   7.805   9.731   7.163 -0.0300 -0.1423 -0.1666
  481loPI   C6A 7692   7.618   9.839   6.876  0.4094 -0.3897 -0.0151
  481loPI   C1B 7693   6.773   9.680   8.599  0.1712  0.0460 -0.3693
  481loPI   C2B 7694   6.658   9.561   8.216 -0.0358  0.1023 -0.0215
  481loPI   C3B 7695   6.614   9.471   7.769  0.1114  0.0015 -0.2370
  481loPI   C4B 7696   6.922   9.296   7.435  0.0351  0.2678  0.2932
  482loPI    C1 7697  13.144   2.831  10.091 -0.0182 -0.0101 -0.1270
  482loPI    C2 7698  12.841   2.857   9.832  0.0097  0.0576 -0.1531
  482loPI    C3 7699  12.801   2.641  10.166 -0.0748  0.0842 -0.1458
  482loPI   PO4 7700  13.360   2.879   9.816 -0.1322  0.0952  0.0645
  482loPI   GL1 7701  13.545   2.623   9.495 -0.1144  0.2198  0.0297
  482loPI   GL2 7702  13.290   2.470   9.381 -0.1619  0.1554  0.0241
  482loPI   C1A 7703  13.746   2.744   9.099  0.4246  0.0739  0.2319
  482loPI   C2A 7704  13.974   2.823   8.774 -0.0573 -0.1613 -0.1629
  482loPI   C3A 7705  14.232   3.009   8.450  0.1950  0.1012 -0.3951
  482loPI   C4A 7706  14.092   3.339   8.153 -0.0879  0.1193  0.2991
  482loPI   C5A 7707  14.368   3.378   7.864 -0.2419  0.1319  0.0071
  482loPI   C6A 7708  14.616   3.494   7.442 -0.3739  0.0129 -0.1032
  482loPI   C1B 7709  13.280   2.413   9.011  0.1561 -0.2617  0.1054
  482loPI   C2B 7710  13.086   2.210   8.641  0.0841 -0.1054 -0.0105
  482loPI   C3B 7711  13.069   2.210   8.162 -0.0742  0.1877 -0.0265
  482loPI   C4B 7712  12.819   2.268   7.871 -0.2461 -0.0382 -0.0349
  483loPI    C1 7713  16.510   6.228  10.095 -0.1611  0.4482 -0.0211
  483loPI    C2 7714  16.550   6.237  10.493  0.1028  0.0073 -0.0317
  483loPI    C3 7715  16.363   5.930  10.318  0.2255  0.0634 -0.2656
  483loPI   PO4 7716  16.393   6.507  10.034 -0.0301 -0.0008  0.2232
  483loPI   GL1 7717  16.053   6.581   9.670 -0.1859 -0.4237  0.1349
  483loPI   GL2 7718  16.261   6.703   9.530 -0.0751 -0.3258  0.3135
  483loPI   C1A 7719  15.872   6.329   9.290 -0.2290  0.2365 -0.0211
  483loPI   C2A 7720  15.883   6.410   8.831  0.2289 -0.1589 -0.1786
  483loPI   C3A 7721  15.646   6.554   8.497 -0.3035  0.0846 -0.2390
  483loPI   C4A 7722  15.401   6.651   8.061 -0.1333 -0.0153  0.1779
  483loPI   C5A 7723  15.295   6.414   7.688  0.1190  0.2901 -0.1050
  483loPI   C6A 7724  15.243   6.238   7.260 -0.0968 -0.1985 -0.1813
  483loPI   C1B 7725  16.348   6.616   9.109  0.0152 -0.2668 -0.0751
  483loPI   C2B 7726  16.385   6.380   8.673 -0.2499  0.1652 -0.3740
  483loPI   C3B 7727  16.083   6.363   8.331  0.3272  0.1790 -0.1108
  483loPI   C4B 7728  15.897   6.507   7.892 -0.0100 -0.2959 -0.1810
  484loPI    C1 7729  15.334  18.221  10.540 -0.2135 -0.3194 -0.1122
  484loPI    C2 7730  15.144  18.446  10.811 -0.0370 -0.0475 -0.2095
  484loPI    C3 7731  14.986  18.098  10.693 -0.1913 -0.0946  0.1260
  484loPI   PO4 7732  15.348  18.416  10.208 -0.1902 -0.2296 -0.2414
  484loPI   GL1 7733  15.320  18.327   9.706  0.3285 -0.1516 -0.1836
  484loPI   GL2 7734  15.102  18.382   9.716 -0.0361  0.0293 -0.3348
  484loPI   C1A 7735  15.641  18.245   9.391 -0.2063 -0.0331 -0.1663
  484loPI   C2A 7736  15.563  18.361   8.961 -0.1976 -0.0748  0.1311
  484loPI   C3A 7737  15.370  18.484   8.641 -0.1220  0.1539 -0.0321
  484loPI   C4A 7738  15.338  18.541   8.225  0.2728  0.1651  0.2849
  484loPI   C5A 7739  15.174  18.381   7.898  0.3876 -0.0812 -0.0419
  484loPI   C6A 7740  15.172  18.543   7.522  0.0266 -0.0567 -0.1381
  484loPI   C1B 7741  15.200  18.454   9.226  0.1888 -0.0532 -0.0788
  484loPI   C2B 7742  14.980  18.234   8.763  0.1844  0.1159  0.0215
  484loPI   C3B 7743  14.952  18.112   8.402  0.2845 -0.3658  0.0568
  484loPI   C4B 7744  14.751  18.453   8.112 -0.2319 -0.0766 -0.2638
  485loPI    C1 7745   4.500  19.017   9.636 -0.0886  0.3393  0.2039
  485loPI    C2 7746   4.890  18.957   9.569 -0.1568 -0.0089  0.1032
  485loPI    C3 7747   4.773  19.216   9.851  0.1449  0.1725  0.0653
  485loPI   PO4 7748   4.373  18.971   9.449 -0.0571 -0.0552 -0.2348
  485loPI   GL1 7749   4.252  19.084   9.006 -0.0367 -0.1369  0.4711
  485loPI   GL2 7750   4.124  18.831   9.068  0.3270 -0.1043 -0.2393
  485loPI   C1A 7751   4.403  18.991   8.585 -0.0327  0.2395 -0.1270
  485loPI   C2A 7752   4.415  18.973   8.126 -0.2001  0.1392  0.1390
  485loPI   C3A 7753   4.571  18.975   7.702  0.1928 -0.0684  0.1752
  485loPI   C4A 7754   4.695  19.084   7.260 -0.1971  0.2193 -0.3246
  485loPI   C5A 7755   4.809  19.320   6.927 -0.0221 -0.1273 -0.0273
  485loPI   C6A 7756   4.664  19.573   6.546 -0.2317  0.2112 -0.2739
  485loPI   C1B 7757   3.931  18.876   8.636 -0.2861 -0.2322 -0.0338
  485loPI   C2B 7758   3.823  18.887   8.193 -0.0284  0.3671 -0.1304
  485loPI   C3B 7759   3.814  18.739   7.752 -0.1577  0.0965 -0.2522
  485loPI   C4B 7760   3.568  18.549   7.461  0.0194 -0.0468 -0.1136
  486loPI    C1 7761  15.560   4.507   9.759  0.0978  0.0866 -0.1493
  486loPI    C2 7762  15.916   4.370   9.882 -0.1868 -0.3140  0.2605
  486loPI    C3 7763  15.682   4.576  10.134 -0.1804  0.0944 -0.0578
  486loPI   PO4 7764  15.589   4.649   9.540  0.2354 -0.0886 -0.0154
  486loPI   GL1 7765  15.667   4.993   9.313 -0.3529  0.0590 -0.0948
  486loPI   GL2 7766  15.910   5.041   9.370 -0.2023 -0.0310  0.3379
  486loPI   C1A 7767  15.670   4.777   8.851  0.2152  0.2687 -0.3779
  486loPI   C2A 7768  15.433   4.561   8.517 -0.1848  0.3497  0.1313
  486loPI   C3A 7769  15.462   4.543   8.061  0.0222  0.0848 -0.1868
  486loPI   C4A 7770  15.494   4.831   7.852  0.2049 -0.1448 -0.2238
  486loPI   C5A 7771  15.639   4.951   7.496  0.1941 -0.2733 -0.1354
  486loPI   C6A 7772  15.608   4.951   7.155 -0.0318 -0.0803  0.0078
  486loPI   C1B 7773  16.164   4.969   9.056  0.1718  0.1912 -0.0823
  486loPI   C2B 7774  16.158   4.923   8.601  0.2830  0.4475  0.1413
  486loPI   C3B 7775  16.311   5.069   8.268 -0.0612  0.2815  0.0601
  486loPI   C4B 7776  16.376   5.111   7.891  0.2076 -0.0438 -0.0270
  487loPI    C1 7777   5.274   5.059   9.547 -0.2095  0.1474 -0.1592
  487loPI    C2 7778   4.881   5.088   9.481 -0.2984  0.0524  0.2922
  487loPI    C3 7779   5.015   4.889   9.800  0.1263 -0.0840  0.0365
  487loPI   PO4 7780   5.384   4.934   9.331 -0.0923 -0.1196 -0.2291
  487loPI   GL1 7781   5.402   4.958   8.967 -0.0920  0.0415 -0.2272
  487loPI   GL2 7782   5.707   4.810   8.947 -0.2395  0.2106 -0.4820
  487loPI   C1A 7783   5.342   4.919   8.603  0.2615  0.1338  0.0167
  487loPI   C2A 7784   5.188   5.018   8.241 -0.1494 -0.2303  0.3016
  487loPI   C3A 7785   5.361   5.100   7.925  0.2293  0.2821 -0.0309
  487loPI   C4A 7786   5.483   5.032   7.498  0.0193  0.0074 -0.1228
  487loPI   C5A 7787   5.738   5.254   7.392 -0.1487 -0.1639  0.0761
  487loPI   C6A 7788   5.898   5.524   7.074  0.2694 -0.1064 -0.0151
  487loPI   C1B 7789   5.837   4.549   8.512  0.1961 -0.2255  0.1373
  487loPI   C2B 7790   6.152   4.678   8.242 -0.2683  0.0191  0.4586
  487loPI   C3B 7791   6.257   4.701   7.849 -0.0184 -0.3171 -0.7212
  487loPI   C4B 7792   6.132   4.807   7.389 -0.1660 -0.0479  0.3689
  488loPI    C1 7793  17.292  19.129   9.771 -0.0710 -0.1010 -0.1440
  488loPI    C2 7794  17.307  19.109  10.170  0.0331  0.0707 -0.1384
  488loPI    C3 7795  17.592  19.305   9.968  0.2040 -0.3564 -0.3251
  488loPI   PO4 7796  17.153  19.191   9.689  0.1834 -0.1919  0.0526
  488loPI   GL1 7797  16.830  19.157   9.471 -0.0555  0.1705 -0.1252
  488loPI   GL2 7798  16.576  19.258   9.443  0.1842 -0.0804  0.0523
  488loPI   C1A 7799  16.930  19.288   9.038 -0.0940 -0.0707 -0.2558
  488loPI   C2A 7800  16.775  19.277   8.645  0.3035  0.3980  0.0511
  488loPI   C3A 7801  16.584  19.201   8.226  0.0351 -0.1600 -0.0136
  488loPI   C4A 7802  16.427  19.085   7.884 -0.0144  0.0085 -0.1848
  488loPI   C5A 7803  16.219  18.849   7.625 -0.1520  0.1115  0.1664
  488loPI   C6A 7804  16.344  18.554   7.447 -0.2382  0.3703  0.5718
  488loPI   C1B 7805  16.470  19.133   8.969  0.0766 -0.2131 -0.1713
  488loPI   C2B 7806  16.266  18.980   8.554 -0.2069 -0.0429  0.4043
  488loPI   C3B 7807  16.219  18.696   8.153  0.3874  0.2848 -0.2114
  488loPI   C4B 7808  16.208  18.314   7.897 -0.0127  0.2845 -0.2291
  489loPI    C1 7809  10.957  16.183   8.997 -0.1752 -0.2084  0.0277
  489loPI    C2 7810  11.219  15.917   8.854 -0.2132 -0.3189  0.1621
  489loPI    C3 7811  11.284  16.091   9.209  0.1158  0.2971 -0.1840
  489loPI   PO4 7812  10.729  16.127   8.917  0.4597 -0.0784 -0.4898
  489loPI   GL1 7813  10.349  16.262   8.643 -0.1685 -0.0795 -0.0250
  489loPI   GL2 7814   9.981  16.219   8.597  0.1159 -0.1781  0.0648
  489loPI   C1A 7815  10.338  16.253   8.156  0.0020  0.1273 -0.0458
  489loPI   C2A 7816  10.438  16.150   7.755 -0.0518  0.2827 -0.0171
  489loPI   C3A 7817  10.388  15.963   7.435 -0.0201  0.1957 -0.2359
  489loPI   C4A 7818  10.118  15.882   7.092 -0.1890 -0.0675 -0.1419
  489loPI   C5A 7819   9.931  15.794   6.789  0.0730 -0.0720  0.1661
  489loPI   C6A 7820   9.477  15.775   6.583 -0.1445 -0.0517 -0.0409
  489loPI   C1B 7821   9.882  16.096   8.172  0.1170 -0.0143 -0.4193
  489loPI   C2B 7822   9.924  16.106   7.800  0.1003  0.1501  0.2266
  489loPI   C3B 7823   9.787  16.144   7.351  0.0415 -0.0828  0.0473
  489loPI   C4B 7824   9.533  16.130   6.950 -0.0144  0.1433 -0.1778
  490loPI    C1 7825  17.169   8.542  10.498  0.0263  0.0708 -0.1233
  490loPI    C2 7826  17.472   8.476  10.751 -0.1397  0.1418  0.0961
  490loPI    C3 7827  17.122   8.613  10.888 -0.2053  0.2608 -0.1839
  490loPI   PO4 7828  17.244   8.591  10.249  0.0927 -0.2945 -0.1423
  490loPI   GL1 7829  17.568   8.651   9.856 -0.0062 -0.0729  0.2350
  490loPI   GL2 7830  17.718   8.928   9.741  0.3418 -0.1547  0.0034
  490loPI   C1A 7831  17.501   8.449   9.486 -0.0846 -0.1691 -0.0084
  490loPI   C2A 7832  17.297   8.291   9.157  0.4051 -0.0311  0.1582
  490loPI   C3A 7833  17.342   8.299   8.678 -0.1446 -0.0077 -0.0130
  490loPI   C4A 7834  17.364   8.281   8.292 -0.1422 -0.0627  0.0290
  490loPI   C5A 7835  17.609   7.923   7.882 -0.0523  0.0356 -0.4207
  490loPI   C6A 7836  17.760   8.163   7.444  0.0508  0.5267 -0.0116
  490loPI   C1B 7837  17.596   8.903   9.312 -0.3801 -0.2107  0.0735
  490loPI   C2B 7838  17.629   8.735   8.829  0.3811  0.2703 -0.3647
  490loPI   C3B 7839  17.791   8.610   8.336  0.1026 -0.0650  0.1058
  490loPI   C4B 7840  17.773   8.383   7.962 -0.0533  0.2388 -0.0456
  491loPI    C1 7841  19.293   6.676  10.562  0.1915 -0.1770 -0.0150
  491loPI    C2 7842  18.991   6.413  10.575  0.0413 -0.0000  0.1597
  491loPI    C3 7843  18.947   6.776  10.737  0.3494  0.0289  0.1851
  491loPI   PO4 7844  19.427   6.668  10.214 -0.0689 -0.0789 -0.3226
  491loPI   GL1 7845  19.464   6.749   9.718  0.4100 -0.2252 -0.1440
  491loPI   GL2 7846  19.146   6.926   9.772  0.0572 -0.0046 -0.1234
  491loPI   C1A 7847  19.394   6.920   9.313 -0.3242 -0.1448  0.0078
  491loPI   C2A 7848  19.419   7.240   9.115 -0.0785  0.2573  0.1882
  491loPI   C3A 7849  19.854   7.378   8.843 -0.0203  0.0380 -0.0940
  491loPI   C4A 7850  19.939   7.398   8.380  0.4111  0.1110 -0.2541
  491loPI   C5A 7851  20.149   7.173   8.013 -0.0272  0.0601 -0.2044
  491loPI   C6A 7852  20.188   6.917   7.603 -0.0216 -0.4028  0.2776
  491loPI   C1B 7853  19.010   7.167   9.483  0.1784 -0.0087  0.1919
  491loPI   C2B 7854  18.911   7.207   9.076  0.0965  0.1119  0.3058
  491loPI   C3B 7855  18.863   7.332   8.705  0.0270  0.2900  0.0733
  491loPI   C4B 7856  18.896   7.507   8.267  0.0779 -0.0666 -0.1634
  492loPI    C1 7857  12.876  12.368  10.006 -0.0421  0.1129  0.2310
  492loPI    C2 7858  13.198  12.160  10.122  0.0597  0.0599 -0.1328
  492loPI    C3 7859  13.221  12.558  10.081  0.0497  0.0678 -0.0634
  492loPI   PO4 7860  12.799  12.311   9.775  0.1787 -0.2031  0.0091
  492loPI   GL1 7861  13.000  12.217   9.458 -0.0808  0.0327  0.1429
  492loPI   GL2 7862  12.762  12.240   9.271 -0.0996  0.1105 -0.1944
  492loPI   C1A 7863  13.160  12.486   9.010 -0.2721  0.1852 -0.2583
  492loPI   C2A 7864  13.337  12.783   8.525 -0.2820 -0.0272  0.2009
  492loPI   C3A 7865  13.481  12.594   8.116 -0.1208 -0.0251 -0.0596
  492loPI   C4A 7866  13.642  12.485   7.707 -0.0086 -0.0404  0.2250
  492loPI   C5A 7867  14.062  12.454   7.493 -0.1892 -0.3542  0.0042
  492loPI   C6A 7868  14.272  12.086   7.396 -0.4057 -0.2646  0.3608
  492loPI   C1B 7869  12.639  12.202   8.849 -0.3556  0.0379  0.0912
  492loPI   C2B 7870  12.605  11.977   8.434  0.1112 -0.1658  0.0314
  492loPI   C3B 7871  12.943  11.591   8.127 -0.2208  0.1817  0.1858
  492loPI   C4B 7872  13.068  11.353   7.681  0.0486  0.0810  0.0783
  493loPI    C1 7873  14.513  10.754   9.895  0.1364 -0.1326 -0.2511
  493loPI    C2 7874  14.900  10.679   9.828  0.1329 -0.2429 -0.1514
  493loPI    C3 7875  14.793  10.927  10.123  0.1317 -0.1102 -0.2622
  493loPI   PO4 7876  14.472  10.828   9.689  0.0374  0.0386  0.0598
  493loPI   GL1 7877  14.761  11.069   9.457 -0.1280  0.2605  0.0703
  493loPI   GL2 7878  14.562  11.273   9.361  0.0372  0.0079 -0.0857
  493loPI   C1A 7879  15.214  11.163   9.232  0.3258 -0.2901  0.0876
  493loPI   C2A 7880  15.428  11.228   8.791  0.0486  0.1918 -0.1344
  493loPI   C3A 7881  15.619  11.090   8.434 -0.2410 -0.0297 -0.2440
  493loPI   C4A 7882  15.502  10.918   8.035 -0.2019  0.1719  0.1233
  493loPI   C5A 7883  15.494  10.744   7.636 -0.1540  0.0473 -0.0891
  493loPI   C6A 7884  15.798  10.483   7.424 -0.1948  0.3163 -0.3677
  493loPI   C1B 7885  14.574  11.226   8.923 -0.2526  0.0422 -0.0170
  493loPI   C2B 7886  14.657  11.148   8.532 -0.0286 -0.1954  0.0556
  493loPI   C3B 7887  14.530  10.882   8.070 -0.1703  0.1715  0.3662
  493loPI   C4B 7888  14.227  10.556   7.798 -0.1594 -0.0070 -0.0655
  494loPI    C1 7889   5.562  12.307   9.879  0.2377 -0.0567 -0.1073
  494loPI    C2 7890   5.750  12.395  10.220  0.1921  0.0826 -0.1175
  494loPI    C3 7891   5.713  12.014  10.105  0.0936  0.0252  0.0985
  494loPI   PO4 7892   5.592  12.416   9.626 -0.0368  0.0602 -0.0551
  494loPI   GL1 7893   5.919  12.553   9.278  0.0459 -0.0952 -0.0321
  494loPI   GL2 7894   5.587  12.654   9.219  0.2652 -0.0249  0.0346
  494loPI   C1A 7895   5.999  12.684   8.883 -0.0592  0.1993 -0.2270
  494loPI   C2A 7896   6.030  12.699   8.509  0.0644  0.2206  0.5909
  494loPI   C3A 7897   6.096  12.460   8.132  0.2372 -0.3962 -0.1112
  494loPI   C4A 7898   6.198  12.530   7.679  0.0925 -0.3361  0.1426
  494loPI   C5A 7899   6.352  12.322   7.349  0.3061 -0.0955 -0.0340
  494loPI   C6A 7900   6.300  12.489   6.941  0.2956  0.0091  0.1705
  494loPI   C1B 7901   5.515  12.420   8.807 -0.3073  0.1857  0.0307
  494loPI   C2B 7902   5.557  12.610   8.359 -0.0204 -0.0555 -0.0356
  494loPI   C3B 7903   5.254  12.619   7.911  0.0442 -0.0522 -0.2397
  494loPI   C4B 7904   4.943  12.642   7.692  0.1732  0.3211  0.0017
  495loPI    C1 7905  11.626   4.141   9.844  0.0762 -0.0849 -0.0014
  495loPI    C2 7906  11.658   4.187  10.240 -0.1709  0.0203  0.0081
  495loPI    C3 7907  11.959   4.026  10.033  0.0471  0.1638  0.2079
  495loPI   PO4 7908  11.533   4.288   9.705  0.1335  0.1898  0.1389
  495loPI   GL1 7909  11.594   4.348   9.275  0.3898  0.0856 -0.0640
  495loPI   GL2 7910  11.574   3.983   9.308  0.0591  0.2127  0.1546
  495loPI   C1A 7911  11.806   4.599   8.983  0.2550 -0.0680 -0.0381
  495loPI   C2A 7912  11.804   4.711   8.648  0.1145  0.2633  0.2592
  495loPI   C3A 7913  12.034   4.844   8.222  0.3218  0.0008 -0.0150
  495loPI   C4A 7914  11.935   4.742   7.771  0.0695 -0.1764  0.2977
  495loPI   C5A 7915  12.015   4.680   7.279  0.2261  0.4230 -0.1396
  495loPI   C6A 7916  12.095   4.926   7.020  0.2556 -0.2374  0.0859
  495loPI   C1B 7917  11.623   4.050   8.866 -0.0854 -0.1430 -0.2510
  495loPI   C2B 7918  11.442   4.145   8.574  0.0106 -0.0036  0.0216
  495loPI   C3B 7919  11.405   4.100   8.183 -0.1236 -0.1885 -0.0481
  495loPI   C4B 7920  11.598   4.161   7.791 -0.0395 -0.1027  0.1524
  496loPI    C1 7921   0.876   5.500  10.096  0.3215 -0.0972 -0.1417
  496loPI    C2 7922   1.057   5.286  10.382  0.1094  0.0948  0.1419
  496loPI    C3 7923   0.658   5.314  10.375  0.1203  0.2178 -0.0841
  496loPI   PO4 7924   0.976   5.332   9.842  0.0783  0.3051 -0.1422
  496loPI   GL1 7925   1.055   5.347   9.441  0.0116  0.0237 -0.0078
  496loPI   GL2 7926   1.204   5.094   9.243  0.1356 -0.2059  0.1371
  496loPI   C1A 7927   0.850   5.466   9.064 -0.3015 -0.0106  0.3711
  496loPI   C2A 7928   0.884   5.860   8.781  0.2387 -0.0055 -0.1715
  496loPI   C3A 7929   1.016   6.084   8.412 -0.2588  0.1416 -0.0761
  496loPI   C4A 7930   1.054   6.283   8.106 -0.0502 -0.0942 -0.2910
  496loPI   C5A 7931   1.304   6.496   7.743  0.0163 -0.2094  0.0916
  496loPI   C6A 7932   1.402   6.992   7.538  0.1749 -0.0342 -0.0064
  496loPI   C1B 7933   1.005   5.095   8.695 -0.1506 -0.3775  0.3205
  496loPI   C2B 7934   0.851   5.468   8.417 -0.2138  0.1387 -0.4315
  496loPI   C3B 7935   1.064   5.645   8.151  0.1280  0.2642 -0.1059
  496loPI   C4B 7936   1.026   5.922   7.749  0.3555 -0.1069  0.2895
  497loPI    C1 7937   1.215   2.308   9.566  0.0538  0.2987  0.3135
  497loPI    C2 7938   1.002   2.455   9.871  0.0241  0.2445  0.3191
  497loPI    C3 7939   1.047   2.059   9.831 -0.1966  0.2384  0.1032
  497loPI   PO4 7940   1.162   2.363   9.367  0.4703 -0.1677  0.1192
  497loPI   GL1 7941   1.218   2.501   9.024 -0.1163  0.0284  0.1832
  497loPI   GL2 7942   1.290   2.473   8.690  0.3250 -0.0161 -0.3329
  497loPI   C1A 7943   0.770   2.745   8.765  0.2162  0.0302  0.1898
  497loPI   C2A 7944   0.678   2.781   8.238  0.1666  0.1449 -0.0369
  497loPI   C3A 7945   0.356   2.775   7.918 -0.2813 -0.0884 -0.0433
  497loPI   C4A 7946   0.105   2.976   7.703 -0.1192  0.1010  0.2310
  497loPI   C5A 7947   0.010   2.864   7.299  0.0737 -0.2416 -0.2370
  497loPI   C6A 7948  -0.246   2.668   6.943  0.0273 -0.0223  0.0772
  497loPI   C1B 7949   1.151   2.598   8.232  0.1005  0.2068 -0.1124
  497loPI   C2B 7950   1.258   2.565   7.742 -0.2793 -0.0085 -0.1854
  497loPI   C3B 7951   1.225   2.722   7.227 -0.0465  0.1379 -0.2080
  497loPI   C4B 7952   1.503   2.574   6.800  0.0824 -0.3280 -0.0171
  498loPI    C1 7953  15.009   7.128  10.033 -0.1565 -0.0087 -0.1359
  498loPI    C2 7954  15.163   7.497  10.014  0.0251 -0.0931 -0.3597
  498loPI    C3 7955  15.055   7.343  10.367  0.0163  0.1453 -0.2564
  498loPI   PO4 7956  15.004   7.085   9.663  0.1787 -0.3739 -0.0305
  498loPI   GL1 7957  15.129   6.787   9.339 -0.5891  0.0433 -0.1135
  498loPI   GL2 7958  15.425   6.689   9.274 -0.0373  0.1363  0.0575
  498loPI   C1A 7959  14.868   6.977   9.051 -0.0236  0.1321 -0.1399
  498loPI   C2A 7960  14.939   7.170   8.574  0.2038 -0.0323  0.0831
  498loPI   C3A 7961  15.224   7.110   8.121 -0.2698  0.1345  0.0708
  498loPI   C4A 7962  15.514   7.175   7.872  0.0623 -0.1926 -0.2551
  498loPI   C5A 7963  15.449   7.163   7.445 -0.0342  0.1145  0.2029
  498loPI   C6A 7964  15.292   7.341   7.057  0.0304  0.1133  0.1285
  498loPI   C1B 7965  15.393   6.569   8.918 -0.1146  0.2452 -0.0711
  498loPI   C2B 7966  15.103   6.598   8.586 -0.2769  0.2567  0.1058
  498loPI   C3B 7967  14.915   6.705   8.226  0.2412  0.0324 -0.2166
  498loPI   C4B 7968  14.920   6.733   7.843  0.2343  0.2755 -0.1019
  499loPI    C1 7969  15.703  12.433  10.386 -0.0362  0.0506  0.1002
  499loPI    C2 7970  16.088  12.349  10.452  0.0967  0.4146 -0.1765
  499loPI    C3 7971  15.860  12.485  10.751  0.1207 -0.0089  0.0419
  499loPI   PO4 7972  15.659  12.661  10.107  0.2102 -0.0784  0.2598
  499loPI   GL1 7973  15.476  12.864   9.712  0.1843 -0.2609 -0.0398
  499loPI   GL2 7974  15.578  12.593   9.642  0.2073  0.1535  0.0489
  499loPI   C1A 7975  15.435  13.080   9.255  0.1060 -0.0632 -0.0475
  499loPI   C2A 7976  15.265  13.268   8.871  0.0572  0.3002 -0.0720
  499loPI   C3A 7977  15.335  13.286   8.428 -0.2339  0.1281 -0.1998
  499loPI   C4A 7978  15.175  13.447   8.054  0.1445 -0.1686  0.0939
  499loPI   C5A 7979  15.133  13.451   7.560 -0.0652 -0.0230 -0.0048
  499loPI   C6A 7980  15.331  13.396   7.192  0.0271 -0.0482  0.0256
  499loPI   C1B 7981  15.579  12.643   9.136  0.1357  0.0795  0.0307
  499loPI   C2B 7982  15.681  12.612   8.720  0.3188  0.1730 -0.0171
  499loPI   C3B 7983  15.869  12.588   8.379 -0.0683 -0.2423 -0.5145
  499loPI   C4B 7984  16.066  12.909   8.068 -0.0139 -0.0809  0.2334
  500loPI    C1 7985   0.636  18.470  10.338  0.1307 -0.0400 -0.1004
  500loPI    C2 7986   0.976  18.568  10.526  0.1275  0.0084 -0.1199
  500loPI    C3 7987   0.832  18.196  10.553 -0.0450  0.0974  0.2426
  500loPI   PO4 7988   0.666  18.540  10.118 -0.2204  0.0707  0.0041
  500loPI   GL1 7989   0.749  18.811   9.736 -0.0234  0.1570  0.1012
  500loPI   GL2 7990   0.889  18.614   9.376  0.2446  0.0151 -0.3742
  500loPI   C1A 7991   0.433  18.721   9.367  0.0731 -0.3000 -0.1061
  500loPI   C2A 7992   0.375  18.733   8.804 -0.0259  0.1108 -0.2402
  500loPI   C3A 7993   0.161  18.533   8.453  0.0571 -0.3638 -0.1083
  500loPI   C4A 7994   0.195  18.528   8.052 -0.1855  0.0339 -0.1513
  500loPI   C5A 7995   0.391  18.433   7.691  0.0730 -0.0053  0.0758
  500loPI   C6A 7996   0.707  18.415   7.382  0.1905  0.2504 -0.0677
  500loPI   C1B 7997   0.808  18.788   9.024  0.1954  0.2468 -0.1416
  500loPI   C2B 7998   0.840  18.711   8.608  0.1444  0.1949 -0.0239
  500loPI   C3B 7999   0.537  18.862   8.198 -0.0660  0.0629 -0.4432
  500loPI   C4B 8000   0.534  18.907   7.739  0.0806 -0.2527 -0.3368
  501loPI    C1 8001   2.899   1.796   9.249 -0.1536 -0.1082 -0.1886
  501loPI    C2 8002   2.996   1.962   9.600 -0.0791 -0.1851 -0.1723
  501loPI    C3 8003   2.632   1.806   9.546 -0.0668 -0.2374 -0.1049
  501loPI   PO4 8004   2.993   1.959   9.043  0.2308  0.1992 -0.2359
  501loPI   GL1 8005   3.125   2.213   8.803  0.0744  0.0899  0.1199
  501loPI   GL2 8006   3.379   2.381   8.894 -0.0114 -0.2609  0.0054
  501loPI   C1A 8007   3.134   2.451   8.383 -0.0072 -0.4825  0.0761
  501loPI   C2A 8008   3.185   2.670   8.027 -0.0146  0.0103 -0.0832
  501loPI   C3A 8009   3.232   2.791   7.628  0.1015 -0.0098 -0.3056
  501loPI   C4A 8010   3.101   2.508   7.343 -0.0543 -0.2794 -0.1432
  501loPI   C5A 8011   2.949   2.498   6.847  0.1080 -0.1860  0.2919
  501loPI   C6A 8012   2.785   2.631   6.424  0.1644 -0.1528  0.1350
  501loPI   C1B 8013   3.580   2.298   8.486  0.1130 -0.0033 -0.0819
  501loPI   C2B 8014   3.565   2.144   8.091 -0.2690 -0.2441  0.0709
  501loPI   C3B 8015   3.454   2.330   7.667  0.1545  0.0152  0.0712
  501loPI   C4B 8016   3.550   2.438   7.266  0.0011 -0.2702 -0.0251
  502loPI    C1 8017   9.942  17.486   9.346 -0.0415 -0.2433 -0.0184
  502loPI    C2 8018   9.799  17.197   9.583 -0.1953  0.0120  0.2054
  502loPI    C3 8019   9.996  17.507   9.742 -0.0017  0.0154 -0.0356
  502loPI   PO4 8020   9.739  17.564   9.162  0.0049 -0.0230 -0.2456
  502loPI   GL1 8021   9.506  17.760   8.780  0.0773 -0.2545  0.1507
  502loPI   GL2 8022   9.725  17.517   8.619  0.1263  0.0064  0.1763
  502loPI   C1A 8023   9.352  17.804   8.369  0.0250  0.2061 -0.1627
  502loPI   C2A 8024   9.252  17.865   7.857  0.1208  0.0112 -0.1389
  502loPI   C3A 8025   9.292  17.857   7.396  0.2543  0.2464 -0.0710
  502loPI   C4A 8026   9.706  17.910   7.087 -0.0144  0.1309 -0.0354
  502loPI   C5A 8027  10.091  17.862   6.834  0.1447  0.0076  0.1057
  502loPI   C6A 8028  10.329  17.744   6.453 -0.0927 -0.2411 -0.2106
  502loPI   C1B 8029   9.778  17.424   8.204  0.0421 -0.0694  0.2502
  502loPI   C2B 8030   9.593  17.464   7.802  0.2127 -0.4140 -0.0392
  502loPI   C3B 8031   9.482  17.052   7.509  0.0362 -0.2282  0.2716
  502loPI   C4B 8032   9.173  16.721   7.331  0.0559 -0.0660  0.0049
  503loPI    C1 8033  12.144   5.085   9.928 -0.0328  0.1884 -0.0466
  503loPI    C2 8034  11.763   5.144  10.035  0.0302  0.3604  0.0881
  503loPI    C3 8035  12.021   4.980  10.294  0.0345  0.1882 -0.0237
  503loPI   PO4 8036  12.171   5.034   9.596  0.0246  0.5008 -0.2893
  503loPI   GL1 8037  12.128   5.006   9.120 -0.0142 -0.2137 -0.0030
  503loPI   GL2 8038  11.902   5.207   9.182  0.5821 -0.0705  0.1609
  503loPI   C1A 8039  12.115   5.120   8.647 -0.0666  0.0487 -0.0876
  503loPI   C2A 8040  12.203   5.335   8.298  0.2003  0.1572  0.1503
  503loPI   C3A 8041  12.083   5.305   7.921 -0.0264  0.0674  0.1060
  503loPI   C4A 8042  12.028   5.290   7.407  0.2485  0.0987  0.2241
  503loPI   C5A 8043  12.432   5.375   7.141  0.4429  0.0454 -0.2511
  503loPI   C6A 8044  12.472   5.291   6.805  0.1435 -0.2203 -0.1873
  503loPI   C1B 8045  11.785   5.480   8.888  0.2761  0.0847 -0.1027
  503loPI   C2B 8046  11.839   5.676   8.569  0.0385  0.1896  0.0950
  503loPI   C3B 8047  11.757   5.655   8.073  0.1723  0.0761 -0.1749
  503loPI   C4B 8048  11.850   5.618   7.711  0.0875 -0.1097  0.1961
  504loPI    C1 8049   2.169   6.336  10.023 -0.1944 -0.1147 -0.1457
  504loPI    C2 8050   2.027   5.975  10.119 -0.0723 -0.1264 -0.0054
  504loPI    C3 8051   2.359   6.112  10.294 -0.1684  0.0917  0.0090
  504loPI   PO4 8052   1.891   6.518  10.081 -0.1869 -0.1239 -0.0084
  504loPI   GL1 8053   1.745   6.782   9.811 -0.2242  0.2380 -0.1108
  504loPI   GL2 8054   1.775   6.941   9.541 -0.2270 -0.1199  0.2669
  504loPI   C1A 8055   1.281   6.844   9.611  0.3088  0.3790 -0.0971
  504loPI   C2A 8056   1.082   6.946   9.250  0.2556 -0.3020 -0.1765
  504loPI   C3A 8057   0.812   7.010   8.869 -0.2280  0.0767  0.0835
  504loPI   C4A 8058   0.563   6.828   8.547  0.0669  0.2289 -0.0153
  504loPI   C5A 8059   0.648   6.687   8.135 -0.0232 -0.0530 -0.3071
  504loPI   C6A 8060   0.381   6.587   7.824 -0.1903  0.1068  0.0336
  504loPI   C1B 8061   1.753   7.004   9.145  0.1097  0.5668  0.1231
  504loPI   C2B 8062   1.795   7.153   8.794  0.0919 -0.0740 -0.2435
  504loPI   C3B 8063   1.745   6.993   8.375 -0.0924  0.1990  0.2068
  504loPI   C4B 8064   1.515   6.972   8.031  0.0343 -0.0703  0.2628
  505loPI    C1 8065  18.852  15.257  10.001  0.2233  0.3237 -0.2013
  505loPI    C2 8066  19.071  14.924  10.026 -0.1666  0.0754  0.0128
  505loPI    C3 8067  19.068  15.183  10.330 -0.1605  0.0849  0.0047
  505loPI   PO4 8068  18.945  15.425   9.788 -0.1107 -0.0909  0.2100
  505loPI   GL1 8069  18.914  15.522   9.341  0.5454 -0.1136 -0.3112
  505loPI   GL2 8070  19.160  15.512   9.154  0.1106  0.0124 -0.2814
  505loPI   C1A 8071  18.613  15.452   8.969  0.0044  0.1673  0.2974
  505loPI   C2A 8072  18.532  15.435   8.549 -0.1225 -0.1012  0.0504
  505loPI   C3A 8073  18.300  15.076   8.343 -0.3290 -0.0669  0.4066
  505loPI   C4A 8074  18.136  14.759   8.084 -0.0830  0.1859 -0.1750
  505loPI   C5A 8075  18.172  14.660   7.646  0.0054  0.4827 -0.2022
  505loPI   C6A 8076  18.005  14.511   7.315 -0.0538  0.4385 -0.0461
  505loPI   C1B 8077  19.431  15.521   8.794  0.1640  0.2735 -0.1184
  505loPI   C2B 8078  19.419  15.474   8.392 -0.0050  0.0072  0.0259
  505loPI   C3B 8079  19.343  15.585   8.038  0.2041  0.0338 -0.0883
  505loPI   C4B 8080  19.346  15.533   7.710 -0.0600 -0.0832 -0.0619
  506loPI    C1 8081   5.901   5.875   9.916  0.0714  0.1267 -0.0636
  506loPI    C2 8082   6.290   5.813   9.986  0.0133  0.1523  0.2971
  506loPI    C3 8083   6.015   5.659  10.233 -0.2117  0.0449 -0.0149
  506loPI   PO4 8084   5.882   5.802   9.613  0.0861 -0.2095  0.1519
  506loPI   GL1 8085   5.612   5.790   9.167 -0.3000 -0.2640 -0.0686
  506loPI   GL2 8086   5.501   5.443   9.098  0.0473 -0.1779  0.2448
  506loPI   C1A 8087   5.603   5.800   8.735  0.1475 -0.0273 -0.2107
  506loPI   C2A 8088   5.544   5.875   8.223  0.1790  0.1726 -0.0595
  506loPI   C3A 8089   5.349   5.879   7.737  0.1428 -0.0846 -0.0004
  506loPI   C4A 8090   5.068   6.029   7.685  0.2003  0.1278 -0.0847
  506loPI   C5A 8091   4.854   6.092   7.272 -0.1828  0.0173 -0.1287
  506loPI   C6A 8092   4.931   6.209   6.881  0.0913 -0.0806  0.0413
  506loPI   C1B 8093   5.728   5.310   8.718 -0.1570 -0.1182 -0.2694
  506loPI   C2B 8094   5.952   5.500   8.457 -0.0807  0.2186 -0.3391
  506loPI   C3B 8095   5.964   5.423   8.048 -0.2457 -0.0615 -0.0804
  506loPI   C4B 8096   6.138   5.657   7.708  0.1640  0.2669  0.2152
  507loPI    C1 8097   3.736  12.215   9.865 -0.0776 -0.1950 -0.0175
  507loPI    C2 8098   3.894  12.165  10.229  0.1419  0.0009 -0.0838
  507loPI    C3 8099   4.095  12.044   9.905  0.0740  0.0843 -0.1574
  507loPI   PO4 8100   3.468  12.169   9.954  0.3515 -0.2594 -0.0242
  507loPI   GL1 8101   3.285  11.747   9.770  0.1727  0.0092 -0.4329
  507loPI   GL2 8102   2.982  11.726   9.577  0.1531  0.2081  0.2082
  507loPI   C1A 8103   3.424  11.822   9.401 -0.0488  0.1706 -0.0755
  507loPI   C2A 8104   3.592  11.803   9.051 -0.2937  0.2288  0.0857
  507loPI   C3A 8105   3.890  11.856   8.696  0.0265  0.2209  0.0288
  507loPI   C4A 8106   4.112  11.742   8.275 -0.0904  0.0018 -0.3669
  507loPI   C5A 8107   4.047  12.019   7.834  0.1188  0.0486  0.1529
  507loPI   C6A 8108   3.928  12.059   7.346  0.0792  0.3378  0.0624
  507loPI   C1B 8109   2.941  11.706   9.100 -0.0586 -0.2916  0.1394
  507loPI   C2B 8110   2.979  11.576   8.676  0.1777  0.0958  0.4920
  507loPI   C3B 8111   2.977  11.633   8.211 -0.1691  0.4106  0.0232
  507loPI   C4B 8112   3.209  11.625   7.886  0.1969  0.1264  0.4920
  508loPI    C1 8113  15.597   8.295  10.447 -0.1713  0.0154  0.1661
  508loPI    C2 8114  15.902   8.467  10.641  0.1383 -0.1130 -0.1929
  508loPI    C3 8115  15.546   8.650  10.623  0.2720  0.1713 -0.0063
  508loPI   PO4 8116  15.628   8.242  10.187 -0.1187 -0.3384  0.1135
  508loPI   GL1 8117  15.581   8.347   9.756 -0.0398  0.0276 -0.2272
  508loPI   GL2 8118  15.251   8.293   9.552  0.0043  0.2618  0.0823
  508loPI   C1A 8119  15.614   8.761   9.457  0.0656 -0.1573  0.0665
  508loPI   C2A 8120  15.679   8.904   9.008 -0.2243 -0.0978  0.0615
  508loPI   C3A 8121  15.763   9.094   8.589 -0.0389  0.3050 -0.1570
  508loPI   C4A 8122  15.647   9.285   8.182  0.0672  0.2361  0.0115
  508loPI   C5A 8123  15.875   9.414   7.808 -0.1245  0.0109  0.2846
  508loPI   C6A 8124  15.854   9.675   7.357  0.1554  0.0231 -0.1357
  508loPI   C1B 8125  15.526   8.366   9.212 -0.0350 -0.0039  0.1730
  508loPI   C2B 8126  15.566   8.431   8.782  0.1340 -0.0725  0.0760
  508loPI   C3B 8127  15.616   8.516   8.386 -0.1852 -0.0285 -0.0603
  508loPI   C4B 8128  15.537   8.568   8.114 -0.1396 -0.1288 -0.4468
  509loPI    C1 8129  12.769  13.212   9.337 -0.1646  0.0167 -0.1125
  509loPI    C2 8130  12.420  13.171   9.528  0.0094  0.0479  0.2195
  509loPI    C3 8131  12.599  13.529   9.513  0.0722  0.0129  0.1301
  509loPI   PO4 8132  12.916  13.063   9.401  0.0061 -0.1813 -0.1307
  509loPI   GL1 8133  13.187  12.926   9.141  0.1534  0.0051  0.0975
  509loPI   GL2 8134  13.379  13.143   9.095  0.1017 -0.0501  0.2260
  509loPI   C1A 8135  12.964  13.019   8.820  0.3148  0.1155  0.1054
  509loPI   C2A 8136  12.901  13.267   8.448  0.0971  0.1689 -0.0084
  509loPI   C3A 8137  12.787  13.280   8.024 -0.0106 -0.2736  0.0115
  509loPI   C4A 8138  12.708  12.976   7.780  0.0457 -0.3681  0.0819
  509loPI   C5A 8139  12.752  12.718   7.373  0.0706 -0.3651 -0.0268
  509loPI   C6A 8140  13.082  12.527   7.192 -0.2924 -0.2684 -0.0707
  509loPI   C1B 8141  13.394  13.269   8.595  0.1945  0.2147 -0.3091
  509loPI   C2B 8142  13.293  13.115   8.192 -0.1610 -0.1146 -0.0144
  509loPI   C3B 8143  13.208  13.397   7.768 -0.3938  0.0135 -0.1402
  509loPI   C4B 8144  13.179  13.384   7.238 -0.0745  0.0365  0.3089
  510loPI    C1 8145  12.948   1.087   9.689 -0.0760  0.0618 -0.0507
  510loPI    C2 8146  13.261   0.935   9.492 -0.1233 -0.0386 -0.0488
  510loPI    C3 8147  13.317   1.222   9.765 -0.0394 -0.0168 -0.0885
  510loPI   PO4 8148  12.748   1.106   9.511  0.1477 -0.1625  0.3244
  510loPI   GL1 8149  12.714   1.009   9.067 -0.1472 -0.0771  0.1875
  510loPI   GL2 8150  12.526   1.315   9.010  0.1071  0.2090  0.1386
  510loPI   C1A 8151  12.732   1.007   8.637  0.2248 -0.0407 -0.0871
  510loPI   C2A 8152  12.809   1.118   8.200 -0.3679 -0.1906 -0.0094
  510loPI   C3A 8153  12.577   1.297   8.001 -0.3997  0.3360  0.0823
  510loPI   C4A 8154  12.589   1.444   7.623  0.0513 -0.0718  0.0773
  510loPI   C5A 8155  12.749   1.742   7.296  0.3464  0.1725 -0.1243
  510loPI   C6A 8156  12.991   2.215   7.333  0.1685  0.0547  0.1611
  510loPI   C1B 8157  12.982   1.349   8.797 -0.0903  0.0055  0.3796
  510loPI   C2B 8158  13.272   1.631   8.374 -0.2700 -0.0344 -0.1005
  510loPI   C3B 8159  13.488   1.881   7.936  0.0289 -0.0685 -0.0699
  510loPI   C4B 8160  13.841   1.857   7.621 -0.0778  0.0234 -0.0266
  511loPI    C1 8161   2.693  14.189   9.765 -0.0611  0.3414  0.1439
  511loPI    C2 8162   3.064  14.197   9.913 -0.0692 -0.0785  0.1993
  511loPI    C3 8163   2.755  14.312  10.140  0.0164  0.2047  0.1765
  511loPI   PO4 8164   2.718  14.328   9.577  0.0033  0.0625 -0.2109
  511loPI   GL1 8165   2.821  14.232   9.197  0.0010  0.2374 -0.0567
  511loPI   GL2 8166   2.526  14.222   9.115  0.3899 -0.0617  0.0592
  511loPI   C1A 8167   3.111  14.075   8.907  0.1845  0.1722  0.2223
  511loPI   C2A 8168   3.179  13.879   8.570  0.0948 -0.0171  0.0425
  511loPI   C3A 8169   3.095  13.803   8.174  0.2332 -0.3829  0.0874
  511loPI   C4A 8170   3.075  13.973   7.770 -0.0205 -0.0645 -0.1595
  511loPI   C5A 8171   3.105  13.937   7.321  0.1365 -0.2095 -0.2368
  511loPI   C6A 8172   3.189  14.347   6.996  0.0628  0.3847  0.0797
  511loPI   C1B 8173   2.576  14.401   8.640  0.1554  0.0599 -0.0728
  511loPI   C2B 8174   2.665  14.035   8.309 -0.0764  0.2495  0.0507
  511loPI   C3B 8175   2.569  14.026   7.844  0.1378  0.1802  0.1455
  511loPI   C4B 8176   2.481  14.009   7.385 -0.1925  0.2510  0.0400
  512loPI    C1 8177   9.697  10.126   9.789  0.0632  0.1396 -0.1501
  512loPI    C2 8178  10.015  10.289   9.969 -0.1340 -0.0045  0.3464
  512loPI    C3 8179   9.659  10.469   9.990 -0.1599 -0.0223  0.0911
  512loPI   PO4 8180   9.840  10.035   9.512  0.0949  0.0109 -0.5018
  512loPI   GL1 8181   9.980   9.915   9.148 -0.2476 -0.0320  0.0674
  512loPI   GL2 8182   9.865   9.639   9.015 -0.1669  0.4718 -0.1338
  512loPI   C1A 8183  10.044  10.145   8.777 -0.0677 -0.2168 -0.2664
  512loPI   C2A 8184  10.311  10.101   8.376  0.0697  0.1731  0.1596
  512loPI   C3A 8185  10.309   9.803   8.065 -0.1895 -0.0576  0.1229
  512loPI   C4A 8186  10.366   9.447   7.756 -0.0246  0.2584  0.0791
  512loPI   C5A 8187  10.464   9.259   7.247 -0.0592  0.0082 -0.1194
  512loPI   C6A 8188  10.415   9.305   6.779 -0.0729 -0.1953  0.0431
  512loPI   C1B 8189   9.874   9.293   8.697 -0.1449 -0.1097 -0.0178
  512loPI   C2B 8190   9.733   9.178   8.320  0.1462 -0.0144  0.0680
  512loPI   C3B 8191   9.650   9.172   8.016 -0.5602 -0.0552  0.1704
  512loPI   C4B 8192   9.462   9.199   7.584  0.0346 -0.3573  0.2590
  513loPI    C1 8193  16.032  10.010  10.184 -0.1638 -0.1172 -0.0211
  513loPI    C2 8194  15.885   9.735   9.933 -0.2659 -0.1383  0.0610
  513loPI    C3 8195  15.747  10.110   9.921 -0.1386 -0.0939 -0.0396
  513loPI   PO4 8196  16.321  10.031  10.123  0.2023 -0.0623  0.2349
  513loPI   GL1 8197  16.382  10.060   9.617 -0.1474  0.3694  0.0230
  513loPI   GL2 8198  16.147   9.956   9.461 -0.1665  0.0470 -0.0203
  513loPI   C1A 8199  16.701   9.676   9.306  0.1326  0.4360 -0.1451
  513loPI   C2A 8200  16.698   9.543   8.858 -0.3275  0.2984 -0.1541
  513loPI   C3A 8201  16.791   9.479   8.435 -0.2249  0.0797 -0.0228
  513loPI   C4A 8202  16.511   9.552   8.209  0.2593 -0.0900 -0.1577
  513loPI   C5A 8203  16.482   9.343   7.771 -0.0467  0.0555  0.0258
  513loPI   C6A 8204  16.244   9.396   7.333  0.1335  0.0962 -0.3415
  513loPI   C1B 8205  16.193   9.772   9.114 -0.0469 -0.3405  0.2618
  513loPI   C2B 8206  16.347   9.798   8.648 -0.0776  0.3178 -0.0492
  513loPI   C3B 8207  16.410  10.037   8.220 -0.2212  0.0296  0.0514
  513loPI   C4B 8208  16.602  10.178   7.871  0.2738 -0.0161 -0.2357
  514loPI    C1 8209   8.282   7.853   9.937  0.0087  0.1426 -0.0297
  514loPI    C2 8210   8.089   7.581  10.157  0.0232  0.0235 -0.1632
  514loPI    C3 8211   8.058   7.969  10.247  0.0533 -0.0260  0.0670
  514loPI   PO4 8212   8.198   7.742   9.689 -0.2861  0.1907 -0.1363
  514loPI   GL1 8213   8.320   7.728   9.191  0.2049  0.3654 -0.2731
  514loPI   GL2 8214   8.507   7.482   9.361 -0.0119 -0.2766  0.0749
  514loPI   C1A 8215   8.271   7.655   8.743 -0.1127 -0.2950 -0.2508
  514loPI   C2A 8216   8.274   7.618   8.319 -0.0187 -0.2990 -0.0222
  514loPI   C3A 8217   8.170   7.692   7.915 -0.3045 -0.2786  0.1147
  514loPI   C4A 8218   8.287   7.745   7.444 -0.0172 -0.0187  0.0644
  514loPI   C5A 8219   8.409   7.572   7.099  0.0941 -0.4647  0.0062
  514loPI   C6A 8220   8.424   7.336   6.742  0.0181  0.3465 -0.0442
  514loPI   C1B 8221   8.689   7.482   8.993 -0.3606  0.1108  0.2431
  514loPI   C2B 8222   8.715   7.485   8.547 -0.2027 -0.1624 -0.0634
  514loPI   C3B 8223   8.684   7.651   8.090 -0.0875  0.2115 -0.0346
  514loPI   C4B 8224   8.669   8.003   7.742  0.2598  0.2423  0.0964
  515loPI    C1 8225   0.360   4.559   9.849 -0.1167  0.0821  0.0233
  515loPI    C2 8226  -0.021   4.445   9.894 -0.1288  0.1196  0.0160
  515loPI    C3 8227   0.211   4.497  10.215 -0.0857 -0.0519  0.0136
  515loPI   PO4 8228   0.259   4.610   9.505  0.2328  0.1303 -0.5884
  515loPI   GL1 8229  -0.049   4.426   9.344 -0.4016 -0.0559  0.4804
  515loPI   GL2 8230   0.124   4.134   9.254  0.0254  0.0780  0.1023
  515loPI   C1A 8231  -0.192   4.387   8.901 -0.4204 -0.2678 -0.0452
  515loPI   C2A 8232  -0.400   4.341   8.428  0.0709 -0.1345  0.0373
  515loPI   C3A 8233  -0.463   4.309   8.034  0.1653 -0.1436  0.0789
  515loPI   C4A 8234  -0.673   4.163   7.626  0.0185  0.2470 -0.1858
  515loPI   C5A 8235  -1.126   4.017   7.534 -0.1222  0.1222  0.1057
  515loPI   C6A 8236  -1.239   3.632   7.459 -0.2137 -0.0481 -0.1387
  515loPI   C1B 8237   0.253   4.209   8.916 -0.0021 -0.0304 -0.0674
  515loPI   C2B 8238   0.354   3.937   8.553 -0.1015 -0.1123 -0.1449
  515loPI   C3B 8239   0.351   3.760   8.157  0.0200  0.0888  0.2339
  515loPI   C4B 8240   0.225   3.892   7.763  0.2819 -0.1222  0.2758
  516loPI    C1 8241  17.884  11.296  10.453 -0.0356 -0.1134 -0.0185
  516loPI    C2 8242  17.936  11.443  10.821  0.2477  0.0289 -0.1125
  516loPI    C3 8243  18.050  11.069  10.737  0.0247 -0.0630 -0.0130
  516loPI   PO4 8244  17.890  11.504  10.279 -0.0197  0.0657  0.4080
  516loPI   GL1 8245  17.966  11.376   9.891  0.0254  0.2050  0.1353
  516loPI   GL2 8246  18.069  11.652   9.824  0.0897  0.2387  0.1335
  516loPI   C1A 8247  17.736  11.378   9.520  0.1173 -0.4478  0.1862
  516loPI   C2A 8248  17.635  11.212   9.121  0.1275  0.4436 -0.2456
  516loPI   C3A 8249  17.552  11.181   8.769 -0.3736 -0.4296 -0.2061
  516loPI   C4A 8250  17.518  11.260   8.373  0.3845  0.0505  0.1001
  516loPI   C5A 8251  17.311  11.170   7.970  0.0955 -0.1319  0.2503
  516loPI   C6A 8252  17.226  11.468   7.704  0.3396  0.0032 -0.1556
  516loPI   C1B 8253  18.260  11.383   9.425 -0.0854 -0.0656  0.0928
  516loPI   C2B 8254  18.124  10.986   9.224  0.4209 -0.0249 -0.0951
  516loPI   C3B 8255  18.036  10.789   8.871 -0.0571  0.2473 -0.0624
  516loPI   C4B 8256  17.798  10.494   8.672  0.4979 -0.1331 -0.0790
  517loPI    C1 8257   7.451   1.759   9.314  0.0204 -0.3124 -0.1245
  517loPI    C2 8258   7.081   1.613   9.354  0.0068 -0.2282  0.0692
  517loPI    C3 8259   7.237   1.844   9.641  0.0131  0.1696 -0.2458
  517loPI   PO4 8260   7.550   1.594   9.118 -0.0503  0.2344 -0.0983
  517loPI   GL1 8261   7.516   1.595   8.663  0.1231 -0.0300  0.0292
  517loPI   GL2 8262   7.257   1.721   8.746 -0.0848  0.0818 -0.6612
  517loPI   C1A 8263   7.558   1.577   8.200  0.0621 -0.2147  0.1412
  517loPI   C2A 8264   7.332   1.884   7.841  0.0075  0.1745  0.0123
  517loPI   C3A 8265   7.108   2.001   7.483  0.1501 -0.0553 -0.0875
  517loPI   C4A 8266   6.787   2.080   7.124  0.0291 -0.2500 -0.2215
  517loPI   C5A 8267   6.621   1.948   6.705  0.1239 -0.2566  0.0470
  517loPI   C6A 8268   6.236   1.904   6.458 -0.1215  0.2193  0.3812
  517loPI   C1B 8269   7.118   1.842   8.371  0.0341  0.1407 -0.0277
  517loPI   C2B 8270   6.871   1.782   7.952  0.0016 -0.3177  0.0786
  517loPI   C3B 8271   6.952   1.493   7.562  0.0322 -0.2518 -0.1394
  517loPI   C4B 8272   7.184   1.542   7.190  0.0910  0.1100  0.1557
  518loPI    C1 8273   7.591   3.177   9.449  0.2101  0.0728  0.2308
  518loPI    C2 8274   7.497   2.833   9.267  0.0666  0.1264  0.2022
  518loPI    C3 8275   7.701   2.828   9.611 -0.1491  0.0019  0.3299
  518loPI   PO4 8276   7.413   3.301   9.283  0.5203 -0.0579 -0.1173
  518loPI   GL1 8277   7.212   3.248   8.936  0.1772  0.0165 -0.3067
  518loPI   GL2 8278   7.017   3.470   9.020  0.0032 -0.0474 -0.2405
  518loPI   C1A 8279   7.285   3.168   8.593 -0.0028  0.0265  0.0968
  518loPI   C2A 8280   7.539   3.054   8.202 -0.3526  0.0391  0.0383
  518loPI   C3A 8281   7.523   2.981   7.756 -0.2798 -0.2102 -0.2499
  518loPI   C4A 8282   7.519   2.911   7.299 -0.1803 -0.1165  0.2064
  518loPI   C5A 8283   7.589   2.720   6.901 -0.0402 -0.1216  0.2932
  518loPI   C6A 8284   7.549   2.460   6.420  0.2653  0.1019 -0.0998
  518loPI   C1B 8285   6.938   3.547   8.555 -0.0836  0.0043  0.0698
  518loPI   C2B 8286   6.627   3.706   8.258 -0.5050  0.4269 -0.1882
  518loPI   C3B 8287   6.733   3.709   7.801 -0.2372  0.0757 -0.0397
  518loPI   C4B 8288   7.144   3.626   7.502  0.0171 -0.1350 -0.1966
  519loPI    C1 8289   1.388   9.059  10.930 -0.1993  0.0195  0.0800
  519loPI    C2 8290   1.005   8.967  10.861 -0.2175  0.1531  0.0005
  519loPI    C3 8291   1.126   9.053  11.233 -0.1964 -0.2043  0.0800
  519loPI   PO4 8292   1.482   9.071  10.554 -0.1663  0.4739 -0.0282
  519loPI   GL1 8293   1.332   9.257  10.216  0.2622  0.0704  0.0233
  519loPI   GL2 8294   1.214   9.039  10.108 -0.0272  0.0429 -0.0783
  519loPI   C1A 8295   1.486   9.362   9.832 -0.0590 -0.0828 -0.1036
  519loPI   C2A 8296   1.422   9.418   9.402 -0.2241  0.0870 -0.2532
  519loPI   C3A 8297   1.414   9.288   8.972  0.1780 -0.1251 -0.1775
  519loPI   C4A 8298   1.273   9.473   8.561  0.2594  0.2775 -0.0506
  519loPI   C5A 8299   1.280   9.516   8.156  0.3979 -0.1034  0.1705
  519loPI   C6A 8300   1.180   9.496   7.731 -0.1720 -0.1714 -0.1635
  519loPI   C1B 8301   1.127   8.962   9.560  0.0815 -0.1017  0.1091
  519loPI   C2B 8302   1.122   8.918   9.125  0.0420 -0.1018  0.2974
  519loPI   C3B 8303   1.091   8.877   8.686 -0.3745  0.0852  0.2111
  519loPI   C4B 8304   1.048   9.048   8.294 -0.2018 -0.1037  0.3647
  520loPI    C1 8305   5.492  11.731   9.783  0.3558 -0.1658  0.1443
  520loPI    C2 8306   5.183  11.481   9.831  0.0007  0.2239 -0.0523
  520loPI    C3 8307   5.359  11.645  10.150  0.0107 -0.0044  0.0610
  520loPI   PO4 8308   5.331  11.923   9.621  0.1835 -0.0743  0.2000
  520loPI   GL1 8309   5.377  12.150   9.300 -0.0294  0.0512  0.0210
  520loPI   GL2 8310   5.551  11.985   9.081 -0.1789  0.1011 -0.3561
  520loPI   C1A 8311   5.022  12.196   9.181 -0.0669 -0.0696  0.5117
  520loPI   C2A 8312   4.783  12.381   8.809  0.2142  0.4236 -0.0290
  520loPI   C3A 8313   4.902  12.437   8.368  0.1130 -0.3745  0.3257
  520loPI   C4A 8314   4.886  12.198   7.931  0.4722 -0.1641 -0.0873
  520loPI   C5A 8315   4.667  12.014   7.606  0.1592  0.2179 -0.1778
  520loPI   C6A 8316   4.349  11.811   7.323  0.1338  0.3532  0.1222
  520loPI   C1B 8317   5.556  11.803   8.694 -0.2946  0.0486 -0.1271
  520loPI   C2B 8318   5.469  11.579   8.322 -0.1187  0.0693 -0.0791
  520loPI   C3B 8319   5.239  11.395   7.944 -0.1907 -0.1264  0.0617
  520loPI   C4B 8320   5.234  11.237   7.545  0.0528  0.4363 -0.1185
  521loPI    C1 8321   1.655   1.045   9.381  0.1063 -0.3091  0.1429
  521loPI    C2 8322   1.330   1.128   9.599  0.0948 -0.0070  0.0159
  521loPI    C3 8323   1.292   0.956   9.240  0.0896 -0.1551  0.0867
  521loPI   PO4 8324   1.766   1.176   9.332 -0.2815  0.1234  0.0740
  521loPI   GL1 8325   1.879   1.314   8.862  0.0042 -0.0895 -0.1856
  521loPI   GL2 8326   1.564   1.353   8.898 -0.0521 -0.2783 -0.0274
  521loPI   C1A 8327   1.685   1.273   8.418  0.2902 -0.1009 -0.0670
  521loPI   C2A 8328   1.542   1.130   8.016  0.1509  0.2706  0.2130
  521loPI   C3A 8329   1.380   1.201   7.558  0.0129  0.2411 -0.1726
  521loPI   C4A 8330   1.636   1.381   7.261 -0.0227 -0.1507 -0.0002
  521loPI   C5A 8331   1.567   1.626   6.835  0.1464  0.0780 -0.1703
  521loPI   C6A 8332   1.483   1.634   6.493 -0.2483 -0.0667 -0.1181
  521loPI   C1B 8333   1.489   1.701   8.620 -0.0440  0.1444  0.2580
  521loPI   C2B 8334   1.706   1.726   8.148 -0.1545  0.0237  0.0989
  521loPI   C3B 8335   1.738   1.595   7.770  0.0013  0.0652  0.1657
  521loPI   C4B 8336   2.081   1.691   7.521  0.0254 -0.1168  0.0357
  522loPI    C1 8337  16.608   0.331   9.827 -0.0164 -0.0015  0.1507
  522loPI    C2 8338  16.236   0.355   9.682  0.0652 -0.1055 -0.0808
  522loPI    C3 8339  16.301   0.188  10.040 -0.1455  0.2120  0.1113
  522loPI   PO4 8340  16.682   0.589   9.784  0.1085 -0.2949 -0.1791
  522loPI   GL1 8341  16.900   0.705   9.387  0.0035 -0.0755  0.0741
  522loPI   GL2 8342  16.612   0.472   9.344  0.1294 -0.2280  0.0319
  522loPI   C1A 8343  16.893   0.480   8.978 -0.2151 -0.0401 -0.0055
  522loPI   C2A 8344  16.927   0.396   8.581 -0.1811 -0.0829  0.3124
  522loPI   C3A 8345  16.625   0.350   8.272  0.1445 -0.0850  0.3039
  522loPI   C4A 8346  16.542   0.457   7.821 -0.0118 -0.3100 -0.0305
  522loPI   C5A 8347  16.810   0.735   7.530 -0.0445 -0.2012  0.1595
  522loPI   C6A 8348  16.663   0.989   7.191  0.3357 -0.3367 -0.1495
  522loPI   C1B 8349  16.467   0.279   8.958 -0.0751  0.4520  0.0064
  522loPI   C2B 8350  16.176   0.122   8.621  0.3542  0.1991 -0.0816
  522loPI   C3B 8351  16.148   0.176   8.142 -0.0829 -0.5513 -0.3899
  522loPI   C4B 8352  15.906  -0.201   7.999 -0.0724 -0.0071 -0.1580
  523loPI    C1 8353   9.368  17.288   9.328  0.1050 -0.1417 -0.1832
  523loPI    C2 8354   9.141  17.599   9.219  0.0789 -0.0991 -0.0108
  523loPI    C3 8355   9.384  17.630   9.535  0.0114 -0.2823  0.0610
  523loPI   PO4 8356   9.350  17.111   8.908  0.2888  0.2284 -0.2648
  523loPI   GL1 8357   9.199  17.348   8.603 -0.0008  0.0173  0.1648
  523loPI   GL2 8358   9.008  17.619   8.696  0.0733 -0.0163  0.1053
  523loPI   C1A 8359   9.226  17.364   8.237 -0.1989  0.0056 -0.0268
  523loPI   C2A 8360   9.130  17.266   7.764 -0.1255 -0.4055  0.0362
  523loPI   C3A 8361   9.072  17.348   7.326 -0.0239 -0.0614  0.1699
  523loPI   C4A 8362   8.861  17.071   7.012  0.2995 -0.3138 -0.0318
  523loPI   C5A 8363   8.475  17.107   6.893  0.0075  0.2276 -0.1564
  523loPI   C6A 8364   8.001  17.234   7.071  0.2899  0.1528  0.3587
  523loPI   C1B 8365   8.777  17.630   8.295 -0.2144  0.1577 -0.0141
  523loPI   C2B 8366   8.828  17.812   8.042  0.1353 -0.1565 -0.0499
  523loPI   C3B 8367   8.764  17.763   7.575 -0.1145 -0.1683 -0.2434
  523loPI   C4B 8368   8.886  17.803   7.099 -0.1154 -0.0230  0.1592
  524loPI    C1 8369  18.983  18.817  10.055 -0.0762  0.0683 -0.1127
  524loPI    C2 8370  18.886  18.599  10.376 -0.0304  0.1446 -0.0468
  524loPI    C3 8371  19.156  18.893  10.407  0.3617 -0.1807 -0.2664
  524loPI   PO4 8372  18.926  18.698   9.827 -0.4628  0.0598 -0.3350
  524loPI   GL1 8373  18.922  18.658   9.489 -0.1028  0.0774 -0.1159
  524loPI   GL2 8374  18.549  18.505   9.438 -0.0750  0.0167  0.3099
  524loPI   C1A 8375  19.031  18.379   9.155 -0.1173  0.0272 -0.2915
  524loPI   C2A 8376  18.920  18.251   8.752  0.1037  0.2206 -0.4064
  524loPI   C3A 8377  18.985  18.349   8.344 -0.0308 -0.2497 -0.1089
  524loPI   C4A 8378  18.991  18.283   7.918 -0.3356  0.0809  0.1359
  524loPI   C5A 8379  19.256  18.301   7.607  0.3277  0.2504 -0.0749
  524loPI   C6A 8380  19.477  18.234   7.272 -0.2639  0.1866  0.1302
  524loPI   C1B 8381  18.566  18.480   9.066  0.1360 -0.1096 -0.0315
  524loPI   C2B 8382  18.557  18.546   8.705  0.2315  0.0218 -0.0169
  524loPI   C3B 8383  18.593  18.756   8.239  0.0018  0.2770 -0.0155
  524loPI   C4B 8384  18.464  18.993   7.877 -0.1170  0.0948  0.2015
  525loPI    C1 8385  12.760   8.042   9.922 -0.1104 -0.2447 -0.0185
  525loPI    C2 8386  12.653   8.288  10.218  0.0686 -0.0155 -0.1404
  525loPI    C3 8387  12.942   8.018  10.277  0.0881  0.0142 -0.0988
  525loPI   PO4 8388  12.461   8.132   9.748 -0.3124  0.0688 -0.1064
  525loPI   GL1 8389  12.477   8.219   9.294  0.1690 -0.1002 -0.1290
  525loPI   GL2 8390  12.713   8.427   9.327 -0.1235  0.1007 -0.1223
  525loPI   C1A 8391  12.192   8.046   8.983 -0.2418 -0.0851  0.3367
  525loPI   C2A 8392  12.116   7.999   8.607  0.0054 -0.3278  0.6840
  525loPI   C3A 8393  12.224   7.913   8.240 -0.1676  0.1409 -0.2115
  525loPI   C4A 8394  12.369   7.854   7.854 -0.1236 -0.1012  0.0699
  525loPI   C5A 8395  12.557   7.838   7.498  0.1812 -0.3163  0.0432
  525loPI   C6A 8396  12.915   7.621   7.232 -0.2030 -0.0497  0.0269
  525loPI   C1B 8397  12.559   8.540   8.898  0.0835  0.0497 -0.0959
  525loPI   C2B 8398  12.593   8.690   8.495  0.2600 -0.1845  0.0951
  525loPI   C3B 8399  12.520   8.757   8.033 -0.0587 -0.0001 -0.1999
  525loPI   C4B 8400  12.529   9.056   7.686 -0.0418 -0.0181 -0.4005
  526loPI    C1 8401  11.497   2.276   9.505  0.1072 -0.0444  0.3037
  526loPI    C2 8402  11.236   1.991   9.607  0.0083 -0.0326  0.0896
  526loPI    C3 8403  11.508   2.118   9.871 -0.0864 -0.1720  0.2556
  526loPI   PO4 8404  11.333   2.493   9.365  0.2243 -0.2821 -0.3195
  526loPI   GL1 8405  11.464   2.730   9.011 -0.0516  0.1161  0.4265
  526loPI   GL2 8406  11.178   2.950   8.884 -0.1752 -0.2777 -0.0774
  526loPI   C1A 8407  11.691   2.526   8.565 -0.0006 -0.0388 -0.0193
  526loPI   C2A 8408  11.665   2.425   8.106 -0.2818 -0.5117  0.0775
  526loPI   C3A 8409  11.706   2.521   7.679 -0.2935 -0.0704 -0.0543
  526loPI   C4A 8410  11.837   2.404   7.236 -0.1484 -0.0236 -0.3582
  526loPI   C5A 8411  11.776   2.637   6.879 -0.0294 -0.1115  0.2818
  526loPI   C6A 8412  11.701   2.724   6.465 -0.1104 -0.0760  0.1995
  526loPI   C1B 8413  11.186   3.135   8.512  0.1139  0.3730  0.1586
  526loPI   C2B 8414  11.228   3.025   8.111 -0.1117 -0.1571  0.0767
  526loPI   C3B 8415  11.381   2.820   7.774 -0.0194 -0.0220 -0.0714
  526loPI   C4B 8416  11.523   2.874   7.313  0.1746 -0.3917  0.5199
  527loPI    C1 8417   2.179   1.463   9.559 -0.2161 -0.1143 -0.1575
  527loPI    C2 8418   2.511   1.336   9.743 -0.0895  0.0618 -0.2613
  527loPI    C3 8419   2.284   1.619   9.912 -0.1672 -0.0312 -0.2086
  527loPI   PO4 8420   2.283   1.537   9.310  0.2017  0.0638 -0.0997
  527loPI   GL1 8421   2.360   1.568   8.868  0.2382 -0.1318  0.0283
  527loPI   GL2 8422   2.139   1.773   8.783 -0.2847 -0.1886  0.0215
  527loPI   C1A 8423   2.652   1.416   8.458  0.1150  0.1423 -0.1341
  527loPI   C2A 8424   2.623   1.432   8.040  0.0159 -0.1911  0.0318
  527loPI   C3A 8425   2.539   1.360   7.568 -0.0329  0.0278 -0.1126
  527loPI   C4A 8426   2.601   1.402   7.168  0.3378 -0.1665 -0.0828
  527loPI   C5A 8427   2.759   1.719   6.861 -0.5315  0.0325  0.2985
  527loPI   C6A 8428   2.645   2.115   6.735 -0.1798 -0.0472 -0.3825
  527loPI   C1B 8429   2.219   1.754   8.417 -0.0673  0.3239  0.0421
  527loPI   C2B 8430   2.257   1.865   8.002  0.0643 -0.2550  0.1694
  527loPI   C3B 8431   2.532   1.874   7.649  0.2136  0.2002 -0.0370
  527loPI   C4B 8432   2.983   1.576   7.573  0.0572 -0.1251  0.0393
  528loPI    C1 8433   8.070  14.915   9.399 -0.0876  0.1106 -0.0271
  528loPI    C2 8434   7.883  14.725   9.101  0.1485  0.1080 -0.1764
  528loPI    C3 8435   8.115  14.520   9.354 -0.2387  0.0710  0.1586
  528loPI   PO4 8436   7.878  15.220   9.384 -0.2250  0.3200 -0.2915
  528loPI   GL1 8437   7.654  15.256   9.034 -0.0674  0.1845 -0.0545
  528loPI   GL2 8438   7.841  15.448   8.863 -0.0952  0.2126  0.0362
  528loPI   C1A 8439   7.902  14.985   8.722 -0.2888 -0.0558  0.5023
  528loPI   C2A 8440   7.923  15.073   8.211  0.2224  0.0071  0.0990
  528loPI   C3A 8441   7.927  14.792   7.962  0.2603 -0.0434 -0.0355
  528loPI   C4A 8442   7.851  14.902   7.459 -0.4967 -0.1986  0.0538
  528loPI   C5A 8443   7.774  14.883   7.085 -0.1582  0.0281 -0.0025
  528loPI   C6A 8444   7.828  14.938   6.647 -0.2363  0.4514 -0.0614
  528loPI   C1B 8445   8.246  15.505   8.592  0.3558  0.4408  0.1239
  528loPI   C2B 8446   8.500  15.473   8.319 -0.2179 -0.1352 -0.0985
  528loPI   C3B 8447   8.627  15.453   7.944  0.0155 -0.3049  0.1227
  528loPI   C4B 8448   8.545  15.491   7.472  0.1194 -0.1587  0.1410
  529loPI    C1 8449   0.127   3.563   9.999 -0.0262 -0.1541 -0.0658
  529loPI    C2 8450  -0.227   3.592   9.816  0.0347 -0.2224 -0.1954
  529loPI    C3 8451  -0.206   3.449  10.189 -0.1237  0.1929 -0.0216
  529loPI   PO4 8452   0.274   3.569   9.759  0.0691 -0.3208  0.2518
  529loPI   GL1 8453   0.127   3.598   9.388 -0.2881  0.0184  0.0671
  529loPI   GL2 8454  -0.147   3.635   9.347  0.1228 -0.2388 -0.0980
  529loPI   C1A 8455   0.135   3.617   8.944  0.0399 -0.0977 -0.0357
  529loPI   C2A 8456   0.060   3.466   8.501 -0.1672  0.1453 -0.0629
  529loPI   C3A 8457   0.063   3.440   7.985  0.0092 -0.2849  0.2693
  529loPI   C4A 8458   0.243   3.491   7.558  0.2808 -0.0554  0.1727
  529loPI   C5A 8459   0.208   3.760   7.280  0.1170 -0.1772 -0.0318
  529loPI   C6A 8460   0.040   4.198   7.182  0.1562  0.4585 -0.1878
  529loPI   C1B 8461  -0.244   3.926   9.008 -0.0159 -0.3307  0.1878
  529loPI   C2B 8462  -0.110   3.983   8.641 -0.1241 -0.1364 -0.0729
  529loPI   C3B 8463  -0.111   3.946   8.218  0.2509 -0.1512  0.0635
  529loPI   C4B 8464  -0.270   3.874   7.835  0.0399 -0.1537  0.0131
  530loPI    C1 8465  10.551  15.816   9.450  0.1384 -0.2447  0.1195
  530loPI    C2 8466  10.702  15.699   9.801  0.0503 -0.1414  0.1924
  530loPI    C3 8467  10.305  15.716   9.749  0.0621  0.0202  0.1483
  530loPI   PO4 8468  10.810  15.804   9.334  0.1434  0.1551  0.3035
  530loPI   GL1 8469  11.036  15.529   9.022 -0.0006  0.3053 -0.1498
  530loPI   GL2 8470  11.233  15.391   8.776  0.1217  0.1332  0.0693
  530loPI   C1A 8471  10.930  15.677   8.546 -0.0935  0.1142  0.3479
  530loPI   C2A 8472  11.143  15.811   8.137 -0.1031  0.0104 -0.4344
  530loPI   C3A 8473  11.378  15.942   7.904 -0.0439 -0.3529  0.1636
  530loPI   C4A 8474  11.379  16.076   7.522 -0.1063 -0.4703  0.0271
  530loPI   C5A 8475  11.296  16.190   7.075  0.0372  0.0716  0.0643
  530loPI   C6A 8476  11.041  15.944   6.868  0.0462  0.0416 -0.1951
  530loPI   C1B 8477  11.416  15.484   8.432  0.1662 -0.1626  0.0513
  530loPI   C2B 8478  11.598  15.542   8.110 -0.2117  0.2499  0.1253
  530loPI   C3B 8479  11.905  15.440   7.800  0.0449 -0.3011 -0.0013
  530loPI   C4B 8480  12.218  15.492   7.485 -0.2705  0.1902 -0.1554
  531loPI    C1 8481   8.882  12.165   9.409 -0.1755  0.1049  0.0925
  531loPI    C2 8482   9.079  11.846   9.550  0.1139  0.2348 -0.0097
  531loPI    C3 8483   9.127  12.204   9.723 -0.2229  0.2229  0.1154
  531loPI   PO4 8484   8.741  12.151   9.226  0.2939 -0.1864  0.0639
  531loPI   GL1 8485   8.736  12.207   8.850  0.1385  0.2815  0.0157
  531loPI   GL2 8486   8.863  12.228   8.472 -0.1083  0.0471 -0.3042
  531loPI   C1A 8487   8.362  12.076   8.414 -0.0286  0.1294  0.1303
  531loPI   C2A 8488   8.317  11.955   8.018  0.0876 -0.3202 -0.2005
  531loPI   C3A 8489   8.308  11.937   7.615  0.0496 -0.0081 -0.0238
  531loPI   C4A 8490   8.266  12.034   7.162  0.1721 -0.1979  0.1657
  531loPI   C5A 8491   8.253  12.405   6.914  0.3590  0.1060  0.0474
  531loPI   C6A 8492   8.535  12.662   6.806  0.1164 -0.0744 -0.0091
  531loPI   C1B 8493   8.865  12.242   8.083 -0.1309  0.2296  0.0734
  531loPI   C2B 8494   8.785  12.179   7.676  0.0867 -0.1955 -0.0124
  531loPI   C3B 8495   8.602  12.335   7.288 -0.0569  0.1361  0.0492
  531loPI   C4B 8496   8.276  12.725   7.293  0.0025 -0.0497  0.1539
  532loPI    C1 8497   6.704   3.545   9.722  0.1435  0.1466  0.2838
  532loPI    C2 8498   6.694   3.254   9.996  0.0476 -0.1159  0.0070
  532loPI    C3 8499   6.819   3.620  10.097  0.0902 -0.2296  0.3793
  532loPI   PO4 8500   6.710   3.376   9.499 -0.0046  0.0728 -0.1047
  532loPI   GL1 8501   6.533   3.339   9.078 -0.1281  0.1683 -0.0202
  532loPI   GL2 8502   6.583   3.142   8.919  0.0780  0.0567  0.0617
  532loPI   C1A 8503   6.261   3.552   8.601  0.0415 -0.0706 -0.3215
  532loPI   C2A 8504   6.119   3.696   8.277 -0.1114 -0.0383  0.1188
  532loPI   C3A 8505   6.258   3.678   7.868 -0.0128 -0.3078 -0.0613
  532loPI   C4A 8506   6.333   3.667   7.440 -0.1208 -0.1690  0.0280
  532loPI   C5A 8507   6.642   3.750   7.184  0.1130  0.0522  0.4320
  532loPI   C6A 8508   6.737   3.926   6.775  0.2875 -0.0605 -0.1849
  532loPI   C1B 8509   6.730   3.124   8.435  0.3409 -0.1285 -0.0466
  532loPI   C2B 8510   6.803   2.924   8.072 -0.1178  0.1841 -0.2511
  532loPI   C3B 8511   6.652   2.717   7.703  0.5007 -0.0540  0.2273
  532loPI   C4B 8512   6.547   2.862   7.374 -0.2091 -0.2038  0.1322
  533loPI    C1 8513  10.862  12.317   9.485 -0.1283  0.1305  0.0630
  533loPI    C2 8514  10.645  12.642   9.568 -0.3554 -0.0006 -0.0080
  533loPI    C3 8515  10.604  12.311   9.790 -0.1304  0.0148  0.0597
  533loPI   PO4 8516  11.150  12.488   9.343 -0.1813 -0.2498  0.0873
  533loPI   GL1 8517  11.105  12.526   8.758  0.3108  0.1808  0.0044
  533loPI   GL2 8518  11.353  12.685   8.795 -0.0981 -0.0926  0.3448
  533loPI   C1A 8519  11.063  12.417   8.300 -0.1422  0.0927 -0.0702
  533loPI   C2A 8520  11.178  12.455   7.826 -0.2368 -0.2467 -0.0961
  533loPI   C3A 8521  11.341  12.489   7.395 -0.1687 -0.0370 -0.1011
  533loPI   C4A 8522  11.560  12.634   7.060  0.0962  0.0955 -0.0460
  533loPI   C5A 8523  11.824  12.471   6.670 -0.0174 -0.1802 -0.3260
  533loPI   C6A 8524  12.195  12.557   6.491  0.1422 -0.0233  0.0804
  533loPI   C1B 8525  11.861  12.626   8.568  0.0847  0.2671 -0.0023
  533loPI   C2B 8526  12.133  12.632   8.114  0.0640  0.2816 -0.2529
  533loPI   C3B 8527  12.354  12.568   7.738  0.0784  0.1120 -0.2204
  533loPI   C4B 8528  12.314  12.303   7.471 -0.2700 -0.0503 -0.3419
  534loPI    C1 8529  15.379   9.315  10.194  0.2387  0.0134 -0.0427
  534loPI    C2 8530  15.142   9.496  10.461  0.2168  0.0107 -0.0602
  534loPI    C3 8531  15.425   9.243  10.585  0.1639 -0.0406 -0.0436
  534loPI   PO4 8532  15.163   9.166  10.038  0.1430  0.0134  0.0583
  534loPI   GL1 8533  15.259   9.040   9.602  0.1152 -0.0600  0.2217
  534loPI   GL2 8534  14.941   9.115   9.372  0.0303 -0.0199  0.0243
  534loPI   C1A 8535  15.402   9.240   9.245  0.0168  0.1941  0.1060
  534loPI   C2A 8536  15.321   9.313   8.770  0.0135 -0.1145 -0.0462
  534loPI   C3A 8537  15.259   9.077   8.391  0.1194 -0.0308  0.0176
  534loPI   C4A 8538  15.284   9.174   7.926  0.0564 -0.1723 -0.2733
  534loPI   C5A 8539  15.442   9.189   7.493 -0.0877  0.1781  0.3113
  534loPI   C6A 8540  15.199   9.163   7.062 -0.1633 -0.2301 -0.0643
  534loPI   C1B 8541  14.878   9.031   8.920  0.0469 -0.3550 -0.1758
  534loPI   C2B 8542  14.775   8.926   8.528  0.1399  0.0595 -0.0637
  534loPI   C3B 8543  14.696   8.938   8.136 -0.1628  0.3658 -0.1903
  534loPI   C4B 8544  14.639   8.673   7.718 -0.0121 -0.0305 -0.1054
  535loPI    C1 8545   4.747  14.015   9.563 -0.0217  0.2233 -0.0474
  535loPI    C2 8546   4.482  14.292   9.678 -0.2416 -0.0116  0.0217
  535loPI    C3 8547   4.381  14.021   9.402 -0.0677 -0.0948  0.0382
  535loPI   PO4 8548   4.991  14.136   9.712  0.2082 -0.1053  0.0676
  535loPI   GL1 8549   5.400  14.208   9.565  0.0652 -0.1084 -0.1382
  535loPI   GL2 8550   5.719  14.358   9.385 -0.0089  0.2513 -0.0253
  535loPI   C1A 8551   5.176  13.929   9.183 -0.0957  0.0380  0.0483
  535loPI   C2A 8552   5.335  14.066   8.916  0.0393 -0.2128 -0.2699
  535loPI   C3A 8553   5.408  14.058   8.543  0.0800 -0.0057 -0.1477
  535loPI   C4A 8554   5.377  13.908   8.062  0.0226  0.1287  0.0706
  535loPI   C5A 8555   5.412  13.590   7.681  0.1067  0.0750 -0.3795
  535loPI   C6A 8556   5.615  13.353   7.458 -0.0467 -0.1684 -0.1503
  535loPI   C1B 8557   5.861  14.098   8.933  0.1349 -0.1029  0.2395
  535loPI   C2B 8558   6.107  14.210   8.633 -0.3402  0.0120  0.0844
  535loPI   C3B 8559   6.106  14.294   8.287 -0.2465 -0.0336  0.0312
  535loPI   C4B 8560   6.047  14.375   7.825  0.0814 -0.0146  0.2444
  536loPI    C1 8561   9.303   4.605   9.866 -0.0127  0.1012  0.1070
  536loPI    C2 8562   9.542   4.908   9.971  0.0049  0.0998  0.0709
  536loPI    C3 8563   9.700   4.566   9.834 -0.0113  0.0447  0.1886
  536loPI   PO4 8564   9.064   4.795   9.699  0.0210  0.0865  0.2064
  536loPI   GL1 8565   9.126   5.038   9.404  0.1019 -0.0908  0.1326
  536loPI   GL2 8566   9.106   5.368   9.201  0.2449 -0.0812 -0.2647
  536loPI   C1A 8567   8.950   4.791   9.050 -0.0683  0.0222  0.1093
  536loPI   C2A 8568   8.988   4.852   8.670  0.4858  0.0897  0.0656
  536loPI   C3A 8569   8.759   4.809   8.309  0.1591  0.0323  0.4532
  536loPI   C4A 8570   8.766   4.807   7.946  0.2049  0.0203 -0.1276
  536loPI   C5A 8571   8.696   5.026   7.603  0.4571 -0.2147  0.0710
  536loPI   C6A 8572   8.364   5.311   7.545 -0.0306 -0.1976  0.2273
  536loPI   C1B 8573   8.952   5.493   8.893  0.0033 -0.2177 -0.0094
  536loPI   C2B 8574   8.946   5.488   8.421 -0.0731 -0.5133 -0.3347
  536loPI   C3B 8575   8.930   5.400   8.038  0.2195 -0.1369  0.2939
  536loPI   C4B 8576   8.932   5.473   7.539 -0.0559  0.1559  0.1983
  537loPI    C1 8577   6.159  12.151   9.896  0.2157  0.0340 -0.0752
  537loPI    C2 8578   6.536  12.171  10.027  0.1823  0.0056  0.0264
  537loPI    C3 8579   6.238  12.309  10.255  0.1393  0.1080 -0.0908
  537loPI   PO4 8580   6.273  12.282   9.579 -0.4433  0.2068 -0.1024
  537loPI   GL1 8581   6.242  12.152   9.165  0.1321 -0.2113 -0.0406
  537loPI   GL2 8582   6.492  12.048   9.131  0.1103  0.2091  0.1002
  537loPI   C1A 8583   6.076  12.161   8.747  0.1244 -0.2397 -0.2316
  537loPI   C2A 8584   5.831  12.104   8.422 -0.0886 -0.3037 -0.1023
  537loPI   C3A 8585   5.654  12.266   8.011 -0.3191  0.2058  0.1704
  537loPI   C4A 8586   5.335  12.218   7.663  0.1382  0.0228  0.1307
  537loPI   C5A 8587   5.561  11.948   7.301 -0.3861 -0.3594  0.0261
  537loPI   C6A 8588   5.688  11.605   7.065  0.1702  0.0685 -0.1144
  537loPI   C1B 8589   6.581  12.046   8.649  0.3502  0.2330 -0.2621
  537loPI   C2B 8590   6.466  11.958   8.236 -0.0037 -0.1016  0.3146
  537loPI   C3B 8591   6.172  12.072   7.806  0.1633  0.1176  0.1014
  537loPI   C4B 8592   5.990  11.794   7.490  0.2086 -0.0934  0.0182
  538loPI    C1 8593  16.226  17.708   9.934  0.2946  0.4140  0.0948
  538loPI    C2 8594  15.939  17.657  10.207  0.1406  0.0585 -0.1269
  538loPI    C3 8595  16.321  17.593  10.305  0.1310  0.3525  0.1182
  538loPI   PO4 8596  16.161  17.872   9.784  0.3714 -0.0371 -0.1410
  538loPI   GL1 8597  15.890  17.831   9.420 -0.2071 -0.0407 -0.2762
  538loPI   GL2 8598  15.807  17.678   9.257 -0.3163 -0.0357 -0.1373
  538loPI   C1A 8599  15.974  18.112   9.017 -0.1525 -0.0976 -0.2404
  538loPI   C2A 8600  15.981  18.133   8.673 -0.0667  0.3872  0.2428
  538loPI   C3A 8601  15.822  18.262   8.375  0.1204  0.0035 -0.1283
  538loPI   C4A 8602  15.755  18.194   7.994  0.0187 -0.0551  0.0229
  538loPI   C5A 8603  15.625  18.214   7.529 -0.1972  0.3716 -0.1376
  538loPI   C6A 8604  15.299  18.156   7.318 -0.1366  0.1475 -0.2270
  538loPI   C1B 8605  16.024  17.615   8.954 -0.1567 -0.2707  0.4530
  538loPI   C2B 8606  16.046  17.695   8.529 -0.0432 -0.0581 -0.0312
  538loPI   C3B 8607  15.952  17.713   8.121  0.1339 -0.0595  0.0383
  538loPI   C4B 8608  15.967  17.820   7.665 -0.0249 -0.0109  0.0735
  539loPI    C1 8609   2.839  10.107  10.176  0.0808 -0.4134 -0.1235
  539loPI    C2 8610   2.445  10.144  10.234  0.1112 -0.2285 -0.0313
  539loPI    C3 8611   2.660   9.905  10.472  0.0768 -0.2231  0.0054
  539loPI   PO4 8612   2.875  10.142   9.803  0.0468  0.0948  0.1267
  539loPI   GL1 8613   2.926  10.003   9.359 -0.2064 -0.0894  0.0057
  539loPI   GL2 8614   2.828   9.635   9.402 -0.2655 -0.1246 -0.0665
  539loPI   C1A 8615   2.999  10.003   8.932  0.3035 -0.4544  0.0555
  539loPI   C2A 8616   2.975  10.122   8.443  0.0892 -0.2887 -0.0898
  539loPI   C3A 8617   2.884  10.332   8.048 -0.0422 -0.2491  0.2066
  539loPI   C4A 8618   2.786  10.558   7.637  0.0041  0.0252 -0.0091
  539loPI   C5A 8619   2.606  10.938   7.359  0.3061  0.1082  0.3122
  539loPI   C6A 8620   2.588  11.068   6.931  0.0625  0.0562 -0.6003
  539loPI   C1B 8621   2.678   9.627   9.068 -0.4170 -0.5005  0.0483
  539loPI   C2B 8622   2.616   9.704   8.595 -0.1996  0.2878  0.0772
  539loPI   C3B 8623   2.588   9.686   8.189 -0.4400  0.2998  0.0308
  539loPI   C4B 8624   2.520   9.984   7.791 -0.0556  0.2864 -0.1780
  540loPI    C1 8625   2.984  14.692   9.817 -0.0713  0.1052  0.1189
  540loPI    C2 8626   2.623  14.854   9.756 -0.0804  0.0136 -0.0779
  540loPI    C3 8627   2.765  14.815  10.128 -0.2189  0.1662 -0.0081
  540loPI   PO4 8628   3.082  14.764   9.624 -0.1305  0.0476 -0.3251
  540loPI   GL1 8629   3.140  14.814   9.105  0.1411 -0.1011  0.1585
  540loPI   GL2 8630   3.012  14.598   8.944  0.2655  0.1754  0.1391
  540loPI   C1A 8631   3.408  14.895   8.727 -0.0149  0.0674 -0.1927
  540loPI   C2A 8632   3.419  14.787   8.332 -0.1425 -0.0889 -0.2933
  540loPI   C3A 8633   3.733  14.673   7.984 -0.1111  0.0523 -0.1520
  540loPI   C4A 8634   3.945  14.448   7.717  0.3294  0.1203  0.1150
  540loPI   C5A 8635   4.115  14.323   7.327  0.1570 -0.2803  0.1533
  540loPI   C6A 8636   4.519  14.231   7.070 -0.0058 -0.0305 -0.1679
  540loPI   C1B 8637   3.081  14.365   8.470  0.2531 -0.0289 -0.2996
  540loPI   C2B 8638   3.166  14.545   7.928  0.2638  0.2846 -0.1683
  540loPI   C3B 8639   3.190  14.468   7.515 -0.0583  0.1139 -0.1950
  540loPI   C4B 8640   3.410  14.689   7.265  0.0086 -0.0074 -0.0022
  541loPI    C1 8641   7.758  19.223   9.325  0.1058  0.3564  0.2655
  541loPI    C2 8642   7.423  19.113   9.513  0.0577 -0.0120 -0.0235
  541loPI    C3 8643   7.764  19.148   9.718 -0.0684 -0.0495  0.1966
  541loPI   PO4 8644   7.612  19.424   9.131 -0.0286  0.4678 -0.2247
  541loPI   GL1 8645   7.331  19.404   8.811 -0.0459  0.0382 -0.0397
  541loPI   GL2 8646   7.330  19.092   8.872 -0.0793  0.0853  0.0961
  541loPI   C1A 8647   7.489  19.601   8.335  0.1363  0.0005 -0.0255
  541loPI   C2A 8648   7.662  19.482   7.829 -0.0874  0.3390  0.2023
  541loPI   C3A 8649   7.806  19.207   7.564 -0.1211  0.0062  0.1051
  541loPI   C4A 8650   7.981  18.732   7.289 -0.3291  0.0339  0.0579
  541loPI   C5A 8651   7.781  18.381   7.040  0.0264 -0.0902 -0.1459
  541loPI   C6A 8652   7.868  17.948   6.715  0.0184  0.0354  0.2235
  541loPI   C1B 8653   7.103  18.922   8.528 -0.2224 -0.0307  0.0683
  541loPI   C2B 8654   6.782  18.825   8.272  0.0198  0.0561 -0.0869
  541loPI   C3B 8655   6.638  18.657   7.885 -0.0287  0.1947  0.3489
  541loPI   C4B 8656   6.647  18.805   7.482 -0.1725  0.0039 -0.0142
  542loPI    C1 8657   7.933  16.423   9.575  0.1426  0.0368  0.0442
  542loPI    C2 8658   7.856  16.253   9.929  0.1733  0.0471  0.0559
  542loPI    C3 8659   7.722  16.622   9.851 -0.0291 -0.0421 -0.0282
  542loPI   PO4 8660   7.826  16.234   9.392 -0.0129  0.2231  0.0209
  542loPI   GL1 8661   7.710  16.220   8.840 -0.1540 -0.0255  0.3482
  542loPI   GL2 8662   7.931  15.927   8.896  0.2190 -0.1244  0.0560
  542loPI   C1A 8663   7.615  16.381   8.419 -0.1462 -0.1956  0.0718
  542loPI   C2A 8664   7.515  16.550   7.978  0.0336  0.0340  0.1312
  542loPI   C3A 8665   7.354  16.515   7.549  0.1200  0.0203  0.0314
  542loPI   C4A 8666   7.420  16.513   7.115  0.0081 -0.0041 -0.1466
  542loPI   C5A 8667   7.065  16.542   6.783 -0.1449 -0.1117 -0.3046
  542loPI   C6A 8668   7.013  16.705   6.382  0.0923 -0.1325 -0.0629
  542loPI   C1B 8669   7.984  15.871   8.484 -0.3125 -0.1924 -0.2342
  542loPI   C2B 8670   8.028  15.589   8.112 -0.3252 -0.2625  0.3411
  542loPI   C3B 8671   8.081  15.326   7.699  0.0897 -0.3199 -0.0156
  542loPI   C4B 8672   7.941  15.386   7.314 -0.1700  0.1862  0.1820
  543loPI    C1 8673   5.839   8.737  10.013 -0.2838 -0.0040 -0.1106
  543loPI    C2 8674   5.688   8.442  10.237  0.1876 -0.0256  0.1923
  543loPI    C3 8675   6.028   8.623  10.347  0.1841  0.2779 -0.2692
  543loPI   PO4 8676   5.789   8.598   9.758 -0.0018 -0.2260  0.1182
  543loPI   GL1 8677   5.568   8.833   9.359  0.1389  0.1029  0.1384
  543loPI   GL2 8678   5.308   8.702   9.476  0.4037 -0.0963  0.1817
  543loPI   C1A 8679   5.246   8.852   8.956 -0.0931 -0.1324  0.2373
  543loPI   C2A 8680   5.077   8.860   8.576 -0.1892 -0.2134 -0.3477
  543loPI   C3A 8681   4.984   9.001   8.085  0.0726  0.2386  0.1407
  543loPI   C4A 8682   4.787   8.994   7.727  0.1295 -0.4052 -0.1692
  543loPI   C5A 8683   4.851   8.872   7.302  0.2810 -0.1323 -0.2511
  543loPI   C6A 8684   5.154   8.802   7.025  0.1344  0.1788  0.1122
  543loPI   C1B 8685   5.077   8.389   9.181  0.2206 -0.1879  0.1003
  543loPI   C2B 8686   4.985   8.379   8.747 -0.1233  0.0755  0.5857
  543loPI   C3B 8687   4.880   8.151   8.324 -0.0608 -0.1188  0.0810
  543loPI   C4B 8688   5.070   8.085   7.956  0.0953  0.3564 -0.0179
  544loPI    C1 8689  11.583   3.275   9.248 -0.0782  0.1940  0.0874
  544loPI    C2 8690  11.650   3.197   9.635  0.1202 -0.0795  0.0012
  544loPI    C3 8691  11.361   3.003   9.439  0.0429  0.0336  0.0021
  544loPI   PO4 8692  11.847   3.234   9.150 -0.1911 -0.1578  0.0907
  544loPI   GL1 8693  11.901   3.632   8.936  0.2613  0.1111  0.1007
  544loPI   GL2 8694  12.173   3.709   8.942  0.1288  0.1380 -0.2047
  544loPI   C1A 8695  11.819   3.571   8.540 -0.1686  0.2879  0.1053
  544loPI   C2A 8696  11.806   3.776   8.221 -0.1375  0.1408 -0.0188
  544loPI   C3A 8697  11.854   3.777   7.835 -0.0284  0.1406 -0.2545
  544loPI   C4A 8698  11.595   3.688   7.575  0.1288  0.0963  0.1010
  544loPI   C5A 8699  11.397   3.522   7.100 -0.1494 -0.2339  0.1434
  544loPI   C6A 8700  11.355   3.093   6.899 -0.0257 -0.1472  0.0995
  544loPI   C1B 8701  12.259   3.779   8.597 -0.1420  0.3583 -0.1381
  544loPI   C2B 8702  12.356   3.946   8.162 -0.0089 -0.0603  0.2404
  544loPI   C3B 8703  12.442   3.905   7.738  0.1053 -0.0257  0.2829
  544loPI   C4B 8704  12.601   3.791   7.353 -0.0416 -0.0410  0.0849
  545loPI    C1 8705  16.872   8.157  10.714 -0.1203 -0.1466 -0.0150
  545loPI    C2 8706  17.253   8.059  10.790 -0.0684  0.2107  0.2106
  545loPI    C3 8707  16.956   7.842  10.946  0.0324 -0.3309 -0.3141
  545loPI   PO4 8708  16.872   8.106  10.458  0.1489 -0.0464 -0.2151
  545loPI   GL1 8709  16.845   8.028   9.892 -0.1218  0.1512 -0.2852
  545loPI   GL2 8710  17.134   8.249   9.938  0.0250  0.1144  0.2601
  545loPI   C1A 8711  16.647   8.118   9.568 -0.0901  0.1233  0.1400
  545loPI   C2A 8712  16.779   8.291   9.274  0.1728 -0.2159 -0.0082
  545loPI   C3A 8713  16.713   8.460   8.998  0.1735  0.2233 -0.0933
  545loPI   C4A 8714  16.955   8.534   8.654 -0.3082 -0.1234  0.1309
  545loPI   C5A 8715  16.987   8.559   8.269 -0.0318  0.1658  0.0918
  545loPI   C6A 8716  16.753   8.233   8.019 -0.1320  0.2066  0.1178
  545loPI   C1B 8717  17.184   7.976   9.525  0.0609 -0.1220  0.2485
  545loPI   C2B 8718  16.942   7.877   9.132 -0.0673 -0.3078 -0.0339
  545loPI   C3B 8719  16.655   7.627   8.870  0.0423  0.0736  0.0502
  545loPI   C4B 8720  16.566   7.179   8.785 -0.1438 -0.0749  0.1892
  546loPI    C1 8721   0.486   2.192   9.933  0.1458 -0.3011 -0.1292
  546loPI    C2 8722   0.646   1.902  10.157  0.1656 -0.2188 -0.0359
  546loPI    C3 8723   0.677   2.283  10.273 -0.1265 -0.2039  0.0014
  546loPI   PO4 8724   0.564   2.184   9.656 -0.1312  0.1878  0.4851
  546loPI   GL1 8725   0.549   2.244   9.252  0.1618 -0.1396  0.0870
  546loPI   GL2 8726   0.320   2.201   9.103  0.1748 -0.0412 -0.0705
  546loPI   C1A 8727   0.709   2.235   8.804  0.0973  0.1266  0.0261
  546loPI   C2A 8728   0.811   2.335   8.437 -0.0045  0.0802 -0.1289
  546loPI   C3A 8729   0.751   2.367   7.978 -0.0405 -0.0389  0.2438
  546loPI   C4A 8730   0.817   2.288   7.513 -0.0490  0.4463 -0.0899
  546loPI   C5A 8731   0.777   2.365   7.100  0.0255  0.2066 -0.1780
  546loPI   C6A 8732   0.670   2.763   6.842  0.1286  0.4830 -0.1925
  546loPI   C1B 8733   0.129   2.442   8.838  0.2252 -0.2495 -0.4264
  546loPI   C2B 8734   0.269   2.509   8.453  0.1037 -0.0474  0.2158
  546loPI   C3B 8735   0.314   2.329   8.069 -0.0615 -0.0444 -0.0210
  546loPI   C4B 8736   0.286   2.440   7.597 -0.0981  0.1731 -0.2730
  547loPI    C1 8737   3.687   2.387   9.313 -0.0674 -0.2688 -0.1589
  547loPI    C2 8738   3.731   2.059   9.538  0.0099 -0.1222  0.0428
  547loPI    C3 8739   3.366   2.210   9.474 -0.0262 -0.2475 -0.0525
  547loPI   PO4 8740   3.892   2.362   9.152  0.2237 -0.3245  0.0639
  547loPI   GL1 8741   3.942   2.450   8.781 -0.1897 -0.0581  0.1661
  547loPI   GL2 8742   4.090   2.737   8.691  0.2743 -0.0368  0.2958
  547loPI   C1A 8743   4.087   2.392   8.275 -0.0632 -0.3023  0.0004
  547loPI   C2A 8744   3.966   2.514   7.877 -0.1940  0.1072 -0.2866
  547loPI   C3A 8745   4.029   2.499   7.470 -0.2274 -0.1073 -0.0020
  547loPI   C4A 8746   4.107   2.634   7.071  0.2889  0.1822 -0.1931
  547loPI   C5A 8747   3.802   2.981   6.791 -0.6052  0.0017 -0.1135
  547loPI   C6A 8748   3.645   3.205   6.456  0.0154 -0.1285  0.4674
  547loPI   C1B 8749   4.223   2.909   8.258 -0.1767 -0.1412  0.0414
  547loPI   C2B 8750   4.159   3.002   7.870  0.0262 -0.1685  0.1190
  547loPI   C3B 8751   4.381   3.013   7.528 -0.0824 -0.3512 -0.0678
  547loPI   C4B 8752   4.236   3.183   7.042 -0.2780  0.0667  0.0072
  548loPI    C1 8753  16.867  11.614  10.350 -0.0820 -0.2377  0.0843
  548loPI    C2 8754  16.980  11.846  10.655  0.0574 -0.1587 -0.0259
  548loPI    C3 8755  16.957  11.449  10.703 -0.0715 -0.1335  0.1305
  548loPI   PO4 8756  17.021  11.648  10.139 -0.3052  0.0820  0.2799
  548loPI   GL1 8757  17.025  11.679   9.712  0.1649 -0.1465  0.0622
  548loPI   GL2 8758  16.722  11.752   9.758  0.0599  0.0036  0.1499
  548loPI   C1A 8759  17.302  11.736   9.368  0.1280 -0.2601 -0.0459
  548loPI   C2A 8760  17.368  11.628   8.973  0.4997 -0.0577 -0.1572
  548loPI   C3A 8761  17.311  11.661   8.534  0.0032  0.1827 -0.0747
  548loPI   C4A 8762  17.442  11.685   8.113  0.1980  0.5590 -0.2464
  548loPI   C5A 8763  17.623  11.828   7.805  0.0325 -0.0273 -0.1031
  548loPI   C6A 8764  17.756  11.893   7.433  0.3658  0.2612  0.0152
  548loPI   C1B 8765  16.884  12.039   9.469 -0.2156 -0.1353 -0.4073
  548loPI   C2B 8766  17.023  12.071   9.118  0.0911 -0.2430 -0.2893
  548loPI   C3B 8767  17.116  12.299   8.777 -0.2951  0.0541  0.0686
  548loPI   C4B 8768  17.103  12.461   8.452 -0.1275 -0.2549 -0.3120
  549loPI    C1 8769  18.273   0.255  10.179  0.0417 -0.1638 -0.2266
  549loPI    C2 8770  18.030  -0.050  10.268 -0.0111 -0.0662 -0.0272
  549loPI    C3 8771  17.890   0.324  10.272  0.1044 -0.0218 -0.0680
  549loPI   PO4 8772  18.427   0.184   9.982  0.2043  0.4461 -0.0205
  549loPI   GL1 8773  18.486   0.189   9.538  0.1831 -0.0891 -0.4338
  549loPI   GL2 8774  18.329   0.079   9.281  0.2461  0.1773 -0.1810
  549loPI   C1A 8775  18.740  -0.184   9.295 -0.1903  0.1582  0.0675
  549loPI   C2A 8776  18.795  -0.431   9.045  0.1352  0.2130 -0.1851
  549loPI   C3A 8777  19.040  -0.623   8.682  0.4030  0.1236 -0.2844
  549loPI   C4A 8778  19.127  -0.521   8.179  0.0111 -0.0830  0.3290
  549loPI   C5A 8779  18.924  -0.379   7.785  0.1864 -0.4418  0.0265
  549loPI   C6A 8780  18.855  -0.145   7.419 -0.0657  0.2954  0.1609
  549loPI   C1B 8781  18.342   0.041   8.815 -0.2072 -0.0506 -0.0722
  549loPI   C2B 8782  18.672  -0.207   8.582  0.1041 -0.3832 -0.1319
  549loPI   C3B 8783  18.775  -0.023   8.139  0.4053 -0.1706  0.1405
  549loPI   C4B 8784  18.657   0.134   7.751 -0.2238  0.2828  0.2249
  550loPI    C1 8785   9.059  16.390   9.155  0.0948  0.0525 -0.0148
  550loPI    C2 8786   9.141  16.423   9.545 -0.0954 -0.0935  0.0391
  550loPI    C3 8787   8.837  16.194   9.424 -0.0882  0.0163 -0.1907
  550loPI   PO4 8788   9.315  16.398   9.084 -0.3145 -0.1263  0.0783
  550loPI   GL1 8789   9.294  16.314   8.681  0.3427  0.1057  0.1998
  550loPI   GL2 8790   9.419  16.528   8.353  0.0731  0.2755 -0.0345
  550loPI   C1A 8791   9.391  15.993   8.221 -0.1021 -0.0881  0.0573
  550loPI   C2A 8792   9.430  15.997   7.789 -0.0638 -0.0987 -0.3731
  550loPI   C3A 8793   9.294  16.089   7.384 -0.1095 -0.0085 -0.1311
  550loPI   C4A 8794   9.021  16.155   7.148 -0.0402  0.1900  0.2338
  550loPI   C5A 8795   8.983  16.137   6.700 -0.1000  0.0450 -0.1836
  550loPI   C6A 8796   8.650  16.121   6.483 -0.2001  0.0384 -0.1516
  550loPI   C1B 8797   9.581  16.436   7.985 -0.0879 -0.0532 -0.0306
  550loPI   C2B 8798   9.528  16.529   7.602  0.1736  0.0797 -0.0290
  550loPI   C3B 8799   9.577  16.579   7.085 -0.0375 -0.4387 -0.1595
  550loPI   C4B 8800   9.729  16.540   6.732  0.1089  0.0230 -0.0775
  551loPI    C1 8801  12.309   3.721   9.794 -0.1247  0.0588 -0.2953
  551loPI    C2 8802  12.486   3.433  10.008  0.1169  0.3105 -0.1497
  551loPI    C3 8803  12.115   3.379   9.868 -0.1106  0.1993  0.4673
  551loPI   PO4 8804  12.481   3.845   9.608 -0.1286  0.0754  0.0082
  551loPI   GL1 8805  12.564   3.874   9.324 -0.0395  0.0703  0.1553
  551loPI   GL2 8806  12.767   3.729   9.191 -0.0528  0.0774  0.3494
  551loPI   C1A 8807  12.578   4.100   8.900  0.3947 -0.1308 -0.0175
  551loPI   C2A 8808  12.657   4.321   8.529  0.2298 -0.1128 -0.3926
  551loPI   C3A 8809  12.449   4.538   8.150  0.0510  0.5791  0.1744
  551loPI   C4A 8810  12.511   4.503   7.682  0.1428 -0.0017  0.4959
  551loPI   C5A 8811  12.810   4.468   7.439  0.1251 -0.2258  0.4234
  551loPI   C6A 8812  13.100   4.581   7.063  0.3195  0.4525 -0.0413
  551loPI   C1B 8813  12.681   3.589   8.816 -0.5619 -0.2140  0.0155
  551loPI   C2B 8814  12.648   3.447   8.465 -0.0854 -0.0223  0.0521
  551loPI   C3B 8815  12.598   3.507   7.996 -0.2475 -0.1680 -0.2847
  551loPI   C4B 8816  12.918   3.573   7.676  0.1240 -0.0517  0.2773
  552loPI    C1 8817   1.300  15.932   9.692 -0.0730  0.1459 -0.0709
  552loPI    C2 8818   1.094  15.941  10.035 -0.0606  0.1034 -0.0623
  552loPI    C3 8819   1.405  15.693   9.995 -0.0424  0.1313 -0.0930
  552loPI   PO4 8820   1.327  16.298   9.686  0.0168  0.0677 -0.1659
  552loPI   GL1 8821   1.628  16.406   9.296  0.0673  0.0323 -0.0625
  552loPI   GL2 8822   1.965  16.486   9.311  0.0630  0.2565 -0.1123
  552loPI   C1A 8823   1.351  16.473   9.070  0.1777 -0.0648  0.3835
  552loPI   C2A 8824   1.049  16.160   8.955 -0.0668 -0.0604 -0.2776
  552loPI   C3A 8825   0.760  16.178   8.639  0.0573  0.1242 -0.2059
  552loPI   C4A 8826   0.708  16.129   8.254  0.0866  0.1038 -0.0485
  552loPI   C5A 8827   0.757  15.944   7.861 -0.2262  0.0840  0.0111
  552loPI   C6A 8828   0.916  15.986   7.464  0.1730 -0.1727  0.3266
  552loPI   C1B 8829   2.031  16.461   8.783  0.0358 -0.0915 -0.1209
  552loPI   C2B 8830   1.881  16.115   8.507 -0.0772 -0.3011 -0.1594
  552loPI   C3B 8831   1.611  15.884   8.202 -0.1514  0.1136 -0.0214
  552loPI   C4B 8832   1.676  15.864   7.716 -0.2989  0.2019  0.0527
  553loPI    C1 8833  15.452  16.551  10.226  0.2222  0.1532  0.1820
  553loPI    C2 8834  15.452  16.229  10.462  0.0410 -0.0574 -0.0978
  553loPI    C3 8835  15.180  16.517  10.517  0.1033 -0.0256  0.0519
  553loPI   PO4 8836  15.426  16.509   9.990 -0.1163 -0.3724 -0.0587
  553loPI   GL1 8837  15.675  16.534   9.599 -0.0125  0.2855  0.0356
  553loPI   GL2 8838  15.352  16.501   9.465  0.0336  0.1302 -0.3353
  553loPI   C1A 8839  15.846  16.458   9.195 -0.1055  0.0582  0.1466
  553loPI   C2A 8840  15.760  16.374   8.686 -0.0121  0.2366 -0.1183
  553loPI   C3A 8841  15.643  16.346   8.218  0.2348 -0.3041  0.1688
  553loPI   C4A 8842  15.642  16.069   7.870 -0.3989  0.0130  0.1399
  553loPI   C5A 8843  15.721  16.108   7.375  0.1849 -0.0696  0.2050
  553loPI   C6A 8844  15.996  15.903   7.109 -0.0459  0.1479 -0.1520
  553loPI   C1B 8845  15.430  16.667   8.983 -0.1821 -0.1833 -0.0317
  553loPI   C2B 8846  15.429  16.844   8.606 -0.2861  0.0808 -0.0751
  553loPI   C3B 8847  15.665  16.817   8.298 -0.2882 -0.1806  0.0520
  553loPI   C4B 8848  15.779  16.943   7.875  0.1706  0.1616 -0.0523
  554loPI    C1 8849   6.280   1.241   9.405  0.4195 -0.0468 -0.0038
  554loPI    C2 8850   6.096   1.045   9.701  0.2428 -0.1270 -0.1650
  554loPI    C3 8851   6.115   1.444   9.707 -0.1938 -0.0989 -0.2887
  554loPI   PO4 8852   6.223   1.183   9.180  0.1993 -0.2532  0.3334
  554loPI   GL1 8853   6.020   1.199   8.832 -0.1342  0.2724 -0.2865
  554loPI   GL2 8854   5.785   1.366   8.666 -0.1730 -0.1950 -0.0728
  554loPI   C1A 8855   6.117   1.140   8.369  0.1729  0.2048 -0.3444
  554loPI   C2A 8856   6.104   1.250   7.930  0.3686  0.0817  0.1830
  554loPI   C3A 8857   6.141   1.278   7.513  0.1908  0.1015 -0.1619
  554loPI   C4A 8858   6.192   1.390   7.163 -0.1236 -0.1922 -0.1737
  554loPI   C5A 8859   6.314   1.453   6.747 -0.1961 -0.1521  0.0613
  554loPI   C6A 8860   6.584   1.588   6.360 -0.0274  0.1592  0.1713
  554loPI   C1B 8861   5.768   1.521   8.205 -0.4376 -0.0993 -0.3505
  554loPI   C2B 8862   5.759   1.668   7.759 -0.1060  0.0002  0.1391
  554loPI   C3B 8863   5.967   1.790   7.436 -0.0075 -0.0553 -0.2821
  554loPI   C4B 8864   6.263   1.915   7.051  0.0572  0.1861 -0.0704
  555loPI    C1 8865  10.171   4.882   9.958  0.0775  0.0138 -0.0476
  555loPI    C2 8866  10.083   4.572  10.195  0.0770  0.0233 -0.0352
  555loPI    C3 8867   9.933   4.934  10.276  0.0804  0.0275 -0.0477
  555loPI   PO4 8868  10.121   4.748   9.707 -0.1712 -0.3408  0.1800
  555loPI   GL1 8869  10.175   4.815   9.261  0.1955  0.3041  0.1131
  555loPI   GL2 8870  10.283   4.640   9.002 -0.1717 -0.2310  0.1772
  555loPI   C1A 8871  10.088   5.123   9.004  0.3183 -0.1564 -0.2219
  555loPI   C2A 8872  10.050   5.280   8.574 -0.3392  0.0387  0.1450
  555loPI   C3A 8873  10.200   5.187   8.090 -0.0188 -0.0953  0.0293
  555loPI   C4A 8874  10.192   5.088   7.682 -0.3504 -0.2083 -0.0306
  555loPI   C5A 8875  10.142   5.127   7.279  0.0186 -0.1957  0.1645
  555loPI   C6A 8876  10.244   5.058   6.886 -0.0885 -0.1612 -0.2143
  555loPI   C1B 8877  10.363   4.737   8.669 -0.0703 -0.0666  0.2506
  555loPI   C2B 8878  10.176   4.662   8.222  0.3530  0.1897 -0.0603
  555loPI   C3B 8879  10.172   4.585   7.859 -0.0720  0.3039  0.2131
  555loPI   C4B 8880   9.962   4.663   7.449 -0.0434  0.3156 -0.2435
  556loPI    C1 8881  11.227  10.871   9.845 -0.0651  0.4234 -0.0180
  556loPI    C2 8882  10.870  10.788   9.684 -0.0977  0.7132 -0.1008
  556loPI    C3 8883  10.946  10.691  10.065 -0.0789  0.1761 -0.2337
  556loPI   PO4 8884  11.451  10.854   9.646 -0.1009  0.3625 -0.1171
  556loPI   GL1 8885  11.560  11.104   9.174  0.1023 -0.0645 -0.4390
  556loPI   GL2 8886  11.626  10.844   9.113  0.1368 -0.4187  0.2018
  556loPI   C1A 8887  11.795  11.144   8.747  0.2454  0.0397  0.2356
  556loPI   C2A 8888  11.623  11.075   8.412 -0.1812  0.4987  0.2814
  556loPI   C3A 8889  11.565  11.153   8.029 -0.1194 -0.1609 -0.1843
  556loPI   C4A 8890  11.451  11.104   7.568 -0.3288  0.0248  0.1661
  556loPI   C5A 8891  11.641  11.023   7.178  0.2131  0.1056 -0.2186
  556loPI   C6A 8892  11.777  10.671   6.909  0.4360 -0.2595 -0.2797
  556loPI   C1B 8893  11.473  10.719   8.788 -0.1507  0.3495 -0.0589
  556loPI   C2B 8894  11.184  10.730   8.391  0.2178 -0.1871  0.2116
  556loPI   C3B 8895  11.120  10.963   8.022 -0.2877  0.1168 -0.4240
  556loPI   C4B 8896  11.004  11.010   7.636 -0.2320  0.0984  0.0805
  557loPI    C1 8897  18.851   6.065  10.170 -0.1595  0.1104  0.0183
  557loPI    C2 8898  18.587   5.887  10.411  0.0331  0.1185  0.2391
  557loPI    C3 8899  18.958   5.960  10.541  0.1152  0.1971 -0.0338
  557loPI   PO4 8900  18.726   6.120   9.975  0.0114 -0.0219 -0.1939
  557loPI   GL1 8901  18.725   6.105   9.627 -0.0940  0.1798 -0.1119
  557loPI   GL2 8902  18.932   5.999   9.509  0.4850  0.2885 -0.0505
  557loPI   C1A 8903  18.443   5.976   9.207 -0.1824  0.1448 -0.1052
  557loPI   C2A 8904  18.419   5.802   8.704 -0.1982 -0.1197  0.3180
  557loPI   C3A 8905  18.247   5.686   8.287  0.1478 -0.2028 -0.2865
  557loPI   C4A 8906  17.990   5.522   8.010  0.2240  0.1421  0.3489
  557loPI   C5A 8907  18.018   5.687   7.651  0.1837 -0.0483 -0.0140
  557loPI   C6A 8908  17.877   5.820   7.366  0.2167  0.0021  0.1314
  557loPI   C1B 8909  18.908   5.935   9.045 -0.0683 -0.2584 -0.1463
  557loPI   C2B 8910  18.908   5.920   8.627 -0.0857  0.1408  0.0097
  557loPI   C3B 8911  18.870   5.778   8.177 -0.1360 -0.2249  0.0762
  557loPI   C4B 8912  18.504   5.653   7.793  0.7066  0.1241  0.1185
  558loPI    C1 8913   6.143   0.627   9.237  0.4533  0.1896  0.2685
  558loPI    C2 8914   5.844   0.477   9.457  0.2629  0.0116 -0.1019
  558loPI    C3 8915   6.214   0.494   9.607  0.1482 -0.1579  0.2086
  558loPI   PO4 8916   6.138   0.600   9.025 -0.0001  0.0373  0.0327
  558loPI   GL1 8917   6.178   0.724   8.618 -0.1560  0.0472 -0.0355
  558loPI   GL2 8918   6.474   0.854   8.479 -0.1906 -0.1392  0.0913
  558loPI   C1A 8919   6.070   0.643   8.298 -0.1189  0.1707  0.1069
  558loPI   C2A 8920   5.921   0.547   7.990  0.1748  0.0973 -0.0455
  558loPI   C3A 8921   5.854   0.379   7.609 -0.3779 -0.1263  0.1029
  558loPI   C4A 8922   5.850   0.415   7.292 -0.3134  0.2072  0.0263
  558loPI   C5A 8923   6.083   0.398   6.990  0.3741  0.2463  0.2390
  558loPI   C6A 8924   6.318   0.685   6.695 -0.4105  0.2309 -0.2673
  558loPI   C1B 8925   6.522   0.804   8.013  0.0008 -0.0942 -0.3336
  558loPI   C2B 8926   6.234   0.778   7.666  0.0150  0.2901 -0.0801
  558loPI   C3B 8927   6.083   0.862   7.260  0.2520  0.3232  0.1920
  558loPI   C4B 8928   5.793   0.759   6.881 -0.0284 -0.1305  0.2580
  559loPI    C1 8929   0.212  13.177  10.228 -0.2664 -0.1666 -0.0418
  559loPI    C2 8930   0.351  13.541  10.320 -0.2526 -0.1214 -0.2351
  559loPI    C3 8931   0.565  13.215  10.412 -0.2696 -0.0821 -0.0526
  559loPI   PO4 8932   0.217  13.170   9.966  0.2431 -0.0749 -0.1032
  559loPI   GL1 8933   0.199  13.031   9.584  0.2711 -0.1341  0.0465
  559loPI   GL2 8934   0.539  13.014   9.547 -0.3052  0.7129  0.1073
  559loPI   C1A 8935   0.160  13.104   9.145  0.1968  0.1205 -0.1725
  559loPI   C2A 8936  -0.150  13.184   8.901  0.1736  0.0664 -0.2422
  559loPI   C3A 8937  -0.174  13.135   8.536  0.0391 -0.0867  0.5052
  559loPI   C4A 8938  -0.155  13.188   8.090 -0.3268 -0.3327 -0.0977
  559loPI   C5A 8939   0.136  13.299   7.725 -0.0360  0.0150 -0.4031
  559loPI   C6A 8940   0.204  13.583   7.543  0.0934 -0.1146  0.1516
  559loPI   C1B 8941   0.617  12.906   9.076 -0.1128  0.0689  0.3776
  559loPI   C2B 8942   0.270  12.864   8.628  0.0248 -0.1559  0.0490
  559loPI   C3B 8943   0.415  12.739   8.233  0.2809 -0.1069  0.1465
  559loPI   C4B 8944   0.621  12.528   7.864 -0.0335 -0.1689  0.0917
  560loPI    C1 8945  14.274   7.134  10.122  0.1408  0.0999 -0.0234
  560loPI    C2 8946  14.506   7.424  10.271  0.0863 -0.0882  0.4455
  560loPI    C3 8947  14.108   7.463  10.278  0.0804  0.3116 -0.5152
  560loPI   PO4 8948  14.367   7.093   9.890  0.1848  0.3680  0.1351
  560loPI   GL1 8949  14.573   7.079   9.454  0.0460 -0.1477  0.0703
  560loPI   GL2 8950  14.857   7.411   9.291  0.0442 -0.2642 -0.0508
  560loPI   C1A 8951  14.329   6.925   9.117 -0.3364 -0.0325 -0.0583
  560loPI   C2A 8952  14.130   6.985   8.791 -0.1418  0.4155 -0.0230
  560loPI   C3A 8953  14.101   6.998   8.314 -0.0552 -0.4412  0.0264
  560loPI   C4A 8954  14.234   7.050   7.892 -0.2990  0.2138  0.2792
  560loPI   C5A 8955  14.483   7.040   7.537  0.0413 -0.0656 -0.0042
  560loPI   C6A 8956  14.430   6.917   7.095 -0.4806  0.1605  0.0062
  560loPI   C1B 8957  14.780   7.699   8.895  0.1932 -0.0121 -0.2498
  560loPI   C2B 8958  14.811   7.876   8.486  0.4049  0.1357 -0.4897
  560loPI   C3B 8959  14.659   7.774   8.202 -0.1565  0.2147  0.0017
  560loPI   C4B 8960  14.785   7.835   7.826  0.1814  0.0592  0.3107
  561loPI    C1 8961  17.159  14.308  10.053  0.1665  0.1877 -0.0097
  561loPI    C2 8962  17.339  14.114  10.354 -0.2521  0.0017  0.1280
  561loPI    C3 8963  17.279  14.509  10.378  0.2059  0.0826  0.0413
  561loPI   PO4 8964  17.259  14.153   9.852 -0.0197 -0.0290  0.2274
  561loPI   GL1 8965  17.515  13.844   9.592  0.3494  0.1122 -0.0596
  561loPI   GL2 8966  17.201  13.724   9.626 -0.0768 -0.2968  0.2108
  561loPI   C1A 8967  17.682  13.652   9.252 -0.1699 -0.1161 -0.4228
  561loPI   C2A 8968  17.492  13.515   8.955 -0.3053  0.0095  0.1897
  561loPI   C3A 8969  17.425  13.374   8.551 -0.1317  0.1684  0.3730
  561loPI   C4A 8970  17.394  13.252   8.140 -0.0259 -0.5084 -0.2034
  561loPI   C5A 8971  17.137  13.057   7.888  0.1777 -0.0309 -0.2926
  561loPI   C6A 8972  16.848  13.112   7.560 -0.0195  0.1346  0.0470
  561loPI   C1B 8973  17.057  13.873   9.232  0.1751  0.0288  0.3480
  561loPI   C2B 8974  17.234  13.868   8.772  0.2678  0.0236  0.0639
  561loPI   C3B 8975  17.499  13.905   8.384 -0.2524 -0.2709 -0.1278
  561loPI   C4B 8976  17.499  13.809   7.992  0.5008 -0.0303 -0.3268
  562loPI    C1 8977  16.145  17.207  10.017  0.1734 -0.0026 -0.1628
  562loPI    C2 8978  15.962  17.107  10.358 -0.0008  0.3226 -0.1564
  562loPI    C3 8979  16.361  17.097  10.335 -0.0018 -0.0901 -0.0726
  562loPI   PO4 8980  16.109  17.024   9.640 -0.0073 -0.0261 -0.2582
  562loPI   GL1 8981  16.291  16.577   9.357 -0.1907 -0.2594 -0.3904
  562loPI   GL2 8982  16.281  16.269   9.327  0.4381 -0.0805  0.0717
  562loPI   C1A 8983  16.311  16.887   9.004 -0.0425 -0.0469 -0.0106
  562loPI   C2A 8984  16.177  17.204   8.699  0.2328 -0.2596 -0.1763
  562loPI   C3A 8985  16.012  17.248   8.222  0.1868  0.2470 -0.1255
  562loPI   C4A 8986  16.024  17.331   7.763  0.0947 -0.0291  0.0892
  562loPI   C5A 8987  16.068  17.183   7.365 -0.0598  0.2839  0.0068
  562loPI   C6A 8988  15.770  17.049   7.087  0.3047 -0.0146  0.0239
  562loPI   C1B 8989  16.201  16.376   8.919  0.2182  0.0342  0.2660
  562loPI   C2B 8990  16.336  16.236   8.522  0.1863 -0.1446  0.3769
  562loPI   C3B 8991  16.154  16.298   8.093 -0.0146 -0.0483  0.2755
  562loPI   C4B 8992  15.803  16.484   7.733 -0.1625  0.4136  0.0241
  563loPI    C1 8993   8.909  18.358   9.714 -0.0983  0.0188  0.1178
  563loPI    C2 8994   9.191  18.472   9.973  0.0497 -0.0547 -0.0095
  563loPI    C3 8995   8.953  18.163  10.060 -0.0511  0.0625  0.1365
  563loPI   PO4 8996   9.050  18.358   9.422 -0.0784  0.0789 -0.3119
  563loPI   GL1 8997   9.314  18.407   9.016 -0.6343 -0.1686 -0.0799
  563loPI   GL2 8998   9.526  18.291   8.804  0.0321 -0.0965  0.4721
  563loPI   C1A 8999   9.102  18.389   8.675  0.1152  0.3082 -0.0283
  563loPI   C2A 9000   8.978  18.315   8.258 -0.0029  0.0936  0.0995
  563loPI   C3A 9001   8.963  18.239   7.875  0.0337  0.0945  0.0858
  563loPI   C4A 9002   8.880  18.234   7.376 -0.0440  0.1804 -0.2358
  563loPI   C5A 9003   8.806  18.317   7.026 -0.0475  0.2290 -0.0943
  563loPI   C6A 9004   8.706  18.505   6.569 -0.0217  0.1108 -0.1526
  563loPI   C1B 9005   9.589  18.321   8.393 -0.2019  0.1262  0.1138
  563loPI   C2B 9006   9.494  18.278   7.922 -0.2439  0.1689  0.0559
  563loPI   C3B 9007   9.475  18.275   7.490  0.0826  0.2008 -0.0993
  563loPI   C4B 9008   9.302  18.322   7.071  0.0154  0.0569  0.1473
  564loPI    C1 9009  13.960  10.729  10.085  0.1038 -0.2815 -0.2843
  564loPI    C2 9010  13.999  10.332  10.119 -0.0363 -0.2646  0.1293
  564loPI    C3 9011  13.924  10.554  10.443 -0.1337  0.0823 -0.1250
  564loPI   PO4 9012  13.989  10.743   9.811  0.5080 -0.3448  0.0515
  564loPI   GL1 9013  13.978  10.716   9.380 -0.0380  0.2192  0.1588
  564loPI   GL2 9014  14.234  10.894   9.230 -0.0558  0.0501  0.2464
  564loPI   C1A 9015  13.739  10.802   8.925  0.2451  0.2270  0.1460
  564loPI   C2A 9016  13.499  10.775   8.578  0.1918 -0.0927  0.2052
  564loPI   C3A 9017  13.330  10.684   8.173 -0.0638 -0.1813  0.0975
  564loPI   C4A 9018  13.364  10.792   7.666 -0.0015  0.1117  0.0002
  564loPI   C5A 9019  13.347  11.080   7.267  0.2189 -0.1883 -0.3559
  564loPI   C6A 9020  13.429  11.515   7.097  0.0350 -0.0926  0.1986
  564loPI   C1B 9021  14.554  10.693   8.952  0.3528  0.1250 -0.0808
  564loPI   C2B 9022  14.686  10.633   8.544  0.1109  0.0918 -0.2424
  564loPI   C3B 9023  14.451  10.399   8.231  0.1051 -0.2049  0.1293
  564loPI   C4B 9024  14.518  10.210   7.755  0.0367 -0.0686 -0.2221
  565loPI    C1 9025   1.107   7.686  10.636  0.0801  0.0680  0.1709
  565loPI    C2 9026   0.962   7.807  10.989  0.0792 -0.0981  0.2287
  565loPI    C3 9027   1.070   7.426  10.938  0.1581 -0.0561  0.0743
  565loPI   PO4 9028   1.244   7.883  10.431 -0.1293  0.0276 -0.1470
  565loPI   GL1 9029   1.205   7.893  10.063  0.3909  0.1866  0.0292
  565loPI   GL2 9030   1.315   7.656   9.908 -0.2856  0.4083  0.1620
  565loPI   C1A 9031   1.086   8.142   9.713  0.0737  0.1034 -0.0818
  565loPI   C2A 9032   0.819   8.160   9.405 -0.4510  0.1819  0.2055
  565loPI   C3A 9033   0.815   8.127   8.983  0.0763 -0.5268  0.2289
  565loPI   C4A 9034   0.417   7.898   8.893  0.0735  0.2766 -0.2577
  565loPI   C5A 9035   0.197   7.863   8.478  0.3587 -0.3127 -0.0395
  565loPI   C6A 9036   0.034   7.684   8.028  0.0129 -0.1705 -0.1630
  565loPI   C1B 9037   1.252   7.691   9.413  0.1857  0.1539  0.1537
  565loPI   C2B 9038   1.275   7.937   9.112  0.1830  0.0452  0.3021
  565loPI   C3B 9039   1.597   8.150   8.787 -0.1728 -0.1549 -0.2095
  565loPI   C4B 9040   1.858   8.105   8.435 -0.2553  0.1476 -0.0187
  566loPI    C1 9041   4.297  10.136   9.959  0.4098  0.1903 -0.0987
  566loPI    C2 9042   4.457   9.981  10.291 -0.0076 -0.0147  0.0140
  566loPI    C3 9043   4.337   9.739   9.996 -0.2809  0.1186  0.0133
  566loPI   PO4 9044   4.363  10.341   9.873 -0.1199 -0.1084  0.4247
  566loPI   GL1 9045   4.309  10.558   9.610  0.0865  0.0098  0.0120
  566loPI   GL2 9046   4.441  10.326   9.403 -0.0448 -0.2253 -0.0702
  566loPI   C1A 9047   3.911  10.369   9.414  0.2426 -0.0567 -0.0704
  566loPI   C2A 9048   3.693  10.416   8.899  0.0471  0.2424  0.1891
  566loPI   C3A 9049   3.594  10.483   8.476  0.4197 -0.4323 -0.0800
  566loPI   C4A 9050   3.525  10.614   8.088 -0.0488 -0.3124 -0.0243
  566loPI   C5A 9051   3.556  10.491   7.615  0.2101 -0.1284  0.0887
  566loPI   C6A 9052   3.479  10.352   7.162 -0.1537 -0.0979  0.2258
  566loPI   C1B 9053   4.651  10.312   8.941 -0.1421 -0.1513  0.2982
  566loPI   C2B 9054   4.610   9.993   8.624  0.2279  0.1459  0.3208
  566loPI   C3B 9055   4.491  10.159   8.253 -0.1255  0.0448 -0.1468
  566loPI   C4B 9056   4.308   9.929   8.020 -0.1537 -0.2097 -0.0128
  567loPI    C1 9057   5.880   4.123   9.640  0.0110 -0.1861 -0.2729
  567loPI    C2 9058   5.483   4.102   9.680  0.0324 -0.2717 -0.0952
  567loPI    C3 9059   5.720   3.927   9.950  0.1914 -0.2020 -0.1886
  567loPI   PO4 9060   5.993   4.037   9.446 -0.1034  0.0236 -0.0817
  567loPI   GL1 9061   6.295   4.098   9.180 -0.1514 -0.0983  0.0281
  567loPI   GL2 9062   6.176   4.428   8.986  0.1095  0.0480  0.1889
  567loPI   C1A 9063   6.315   4.036   8.707 -0.1382 -0.1381 -0.0166
  567loPI   C2A 9064   6.340   4.209   8.341  0.0312  0.3379 -0.2139
  567loPI   C3A 9065   6.202   4.162   7.977  0.0353 -0.3016  0.1424
  567loPI   C4A 9066   6.272   4.113   7.516  0.1957 -0.0404  0.0212
  567loPI   C5A 9067   6.310   4.109   7.141  0.1854  0.1067 -0.1654
  567loPI   C6A 9068   6.580   4.401   6.828 -0.1635 -0.1131 -0.3093
  567loPI   C1B 9069   6.301   4.733   8.672  0.1965  0.0500 -0.6136
  567loPI   C2B 9070   6.129   5.020   8.611 -0.3980  0.0148  0.0718
  567loPI   C3B 9071   5.786   4.990   8.256 -0.4120 -0.0014 -0.0186
  567loPI   C4B 9072   5.846   4.972   7.792 -0.0075 -0.0200  0.1348
  568loPI    C1 9073   5.782   7.617   9.935 -0.2123  0.0476  0.2501
  568loPI    C2 9074   5.971   7.281   9.827 -0.1115  0.1657  0.0539
  568loPI    C3 9075   6.083   7.476  10.157 -0.0024  0.1428  0.0307
  568loPI   PO4 9076   5.532   7.585   9.943  0.2145 -0.0163  0.0934
  568loPI   GL1 9077   5.357   7.430   9.560 -0.0820 -0.0158  0.2435
  568loPI   GL2 9078   5.512   7.311   9.453 -0.0569  0.1161 -0.0655
  568loPI   C1A 9079   5.254   7.480   9.041 -0.5398  0.3857 -0.0975
  568loPI   C2A 9080   5.131   7.486   8.719 -0.0202  0.1817 -0.2429
  568loPI   C3A 9081   5.059   7.386   8.280 -0.0791  0.0129  0.1316
  568loPI   C4A 9082   5.048   7.500   7.860  0.0313  0.0927  0.3155
  568loPI   C5A 9083   4.679   7.311   7.535  0.0683 -0.0463  0.1554
  568loPI   C6A 9084   4.596   6.895   7.441  0.1892  0.2220 -0.0724
  568loPI   C1B 9085   5.602   6.957   9.158 -0.0137 -0.0641  0.1929
  568loPI   C2B 9086   5.424   6.698   8.783  0.2435  0.1027 -0.4451
  568loPI   C3B 9087   5.406   6.784   8.398  0.1590 -0.1786  0.0183
  568loPI   C4B 9088   5.459   6.865   7.934  0.3256 -0.0879 -0.0154
  569loPI    C1 9089   4.949  13.153  10.113  0.1146 -0.0269  0.2831
  569loPI    C2 9090   5.260  13.256   9.883 -0.0641 -0.0202  0.0404
  569loPI    C3 9091   5.299  13.248  10.281  0.1005  0.4853  0.0405
  569loPI   PO4 9092   4.740  13.286   9.959  0.3675 -0.4837 -0.4083
  569loPI   GL1 9093   4.744  13.522   9.571  0.1194 -0.3418 -0.1733
  569loPI   GL2 9094   5.015  13.565   9.600 -0.2248 -0.1235 -0.4336
  569loPI   C1A 9095   4.734  13.693   9.218 -0.2095  0.0263  0.0859
  569loPI   C2A 9096   4.881  13.799   8.749  0.1208  0.4487  0.1692
  569loPI   C3A 9097   4.933  13.941   8.255 -0.2749 -0.0996 -0.0912
  569loPI   C4A 9098   4.950  13.932   7.765  0.0210  0.2939 -0.1154
  569loPI   C5A 9099   5.040  13.887   7.295 -0.0699  0.1503  0.0937
  569loPI   C6A 9100   4.794  13.495   6.988 -0.2014 -0.0269  0.0063
  569loPI   C1B 9101   5.301  13.501   9.410 -0.2996  0.0878 -0.1576
  569loPI   C2B 9102   5.280  13.451   8.942 -0.1060 -0.0344 -0.1012
  569loPI   C3B 9103   5.218  13.520   8.538 -0.0645 -0.1734  0.0040
  569loPI   C4B 9104   5.437  13.416   8.140  0.0468  0.0630 -0.0935
  570loPI    C1 9105   6.996  18.390   9.530  0.0986 -0.0702  0.2121
  570loPI    C2 9106   7.260  18.633   9.705  0.2947 -0.0663 -0.0823
  570loPI    C3 9107   6.916  18.546   9.889  0.1677  0.5269 -0.0211
  570loPI   PO4 9108   7.091  18.173   9.300 -0.0857 -0.1036  0.0738
  570loPI   GL1 9109   6.850  17.991   8.901  0.0323 -0.0531 -0.0557
  570loPI   GL2 9110   7.196  18.123   8.790 -0.0926  0.5310  0.0898
  570loPI   C1A 9111   6.699  17.885   8.496  0.0234 -0.0113 -0.3814
  570loPI   C2A 9112   6.546  17.855   8.146 -0.0594  0.0605  0.0959
  570loPI   C3A 9113   6.356  17.755   7.742  0.0622 -0.0399 -0.0510
  570loPI   C4A 9114   6.511  17.775   7.331 -0.1553 -0.1986  0.1361
  570loPI   C5A 9115   6.699  17.954   6.981 -0.0522 -0.0582  0.1141
  570loPI   C6A 9116   6.447  18.004   6.542 -0.1994 -0.2381  0.1865
  570loPI   C1B 9117   7.406  18.186   8.372 -0.1171 -0.2982  0.0467
  570loPI   C2B 9118   7.409  18.054   7.936 -0.1774  0.0475  0.3500
  570loPI   C3B 9119   7.390  18.002   7.442  0.0308 -0.2390 -0.0227
  570loPI   C4B 9120   7.205  17.798   7.195  0.2525  0.0183  0.4970
  571loPI    C1 9121  15.820  11.104  10.037  0.0289  0.0876  0.2139
  571loPI    C2 9122  15.783  11.063  10.433 -0.0342 -0.1718  0.1833
  571loPI    C3 9123  15.753  10.743  10.195  0.2192 -0.0516 -0.0156
  571loPI   PO4 9124  15.608  11.262  10.002  0.1600  0.3547 -0.0025
  571loPI   GL1 9125  15.429  11.539   9.652 -0.1084 -0.1451  0.0636
  571loPI   GL2 9126  15.626  11.198   9.522  0.4114 -0.3271 -0.2799
  571loPI   C1A 9127  15.802  11.646   9.387 -0.0084 -0.0355 -0.0523
  571loPI   C2A 9128  16.138  11.673   9.041  0.1321  0.0673  0.0067
  571loPI   C3A 9129  16.121  11.685   8.640  0.2037 -0.2678  0.2324
  571loPI   C4A 9130  16.102  11.661   8.256 -0.1465  0.2497 -0.0711
  571loPI   C5A 9131  15.757  11.547   7.992 -0.0630  0.3010 -0.3076
  571loPI   C6A 9132  15.629  11.266   7.708  0.0769  0.0789  0.2082
  571loPI   C1B 9133  15.832  11.117   9.152 -0.1467 -0.3054  0.3316
  571loPI   C2B 9134  15.961  11.269   8.821  0.0796  0.1897  0.0500
  571loPI   C3B 9135  16.152  11.191   8.370 -0.0414 -0.4810 -0.1019
  571loPI   C4B 9136  16.124  11.169   7.986  0.1162  0.0992  0.0160
  572loPI    C1 9137  12.458  16.263   9.595 -0.3476 -0.0856  0.0904
  572loPI    C2 9138  12.664  16.468   9.869 -0.3770  0.1489 -0.0605
  572loPI    C3 9139  12.290  16.348   9.948 -0.3508  0.1311  0.0376
  572loPI   PO4 9140  12.664  16.016   9.487 -0.1981  0.0514 -0.0139
  572loPI   GL1 9141  12.874  16.112   9.170 -0.0998  0.0261  0.0450
  572loPI   GL2 9142  12.661  16.062   8.944 -0.0231 -0.0534 -0.0463
  572loPI   C1A 9143  13.234  16.163   8.900 -0.3046  0.0087  0.2881
  572loPI   C2A 9144  13.320  16.122   8.441 -0.3863 -0.1996 -0.0309
  572loPI   C3A 9145  13.443  15.971   8.072  0.2047  0.3884 -0.0003
  572loPI   C4A 9146  13.417  15.970   7.645  0.0427  0.0809 -0.3308
  572loPI   C5A 9147  13.574  16.403   7.344 -0.0704 -0.4162 -0.1782
  572loPI   C6A 9148  13.896  16.599   7.239  0.0334 -0.1847 -0.1611
  572loPI   C1B 9149  12.878  15.952   8.579  0.2138 -0.2210  0.0572
  572loPI   C2B 9150  12.937  15.822   8.202 -0.0633  0.1835  0.2701
  572loPI   C3B 9151  13.005  15.756   7.820 -0.3116 -0.2652 -0.1394
  572loPI   C4B 9152  13.087  15.681   7.373 -0.1847 -0.2849  0.0668
  573loPI    C1 9153   4.304  12.911   9.951  0.3806 -0.1093 -0.1582
  573loPI    C2 9154   4.474  12.954  10.310 -0.0134 -0.1367  0.0360
  573loPI    C3 9155   4.364  12.591  10.183 -0.0240 -0.1063 -0.0419
  573loPI   PO4 9156   4.353  12.994   9.743  0.0450  0.0570 -0.0684
  573loPI   GL1 9157   4.388  12.995   9.338 -0.2215  0.0151 -0.2033
  573loPI   GL2 9158   4.668  12.760   9.353  0.1879 -0.2216  0.1436
  573loPI   C1A 9159   4.353  13.276   8.962  0.0401  0.2450 -0.2423
  573loPI   C2A 9160   4.358  13.152   8.545  0.0505 -0.0698  0.0457
  573loPI   C3A 9161   4.536  12.980   8.146  0.2169  0.0910 -0.1584
  573loPI   C4A 9162   4.520  13.232   7.792 -0.1998 -0.1577 -0.2869
  573loPI   C5A 9163   4.225  13.416   7.564  0.0153 -0.1400 -0.1112
  573loPI   C6A 9164   3.844  13.310   7.782  0.0590  0.1521 -0.0128
  573loPI   C1B 9165   4.535  12.825   8.907  0.1809  0.1457  0.1834
  573loPI   C2B 9166   4.383  12.590   8.400 -0.2162  0.0556 -0.1295
  573loPI   C3B 9167   4.395  12.516   7.931 -0.0046 -0.2751  0.1104
  573loPI   C4B 9168   4.256  12.427   7.521 -0.0867 -0.1613 -0.4121
  574loPI    C1 9169   7.511  13.696   9.484  0.0379  0.0250 -0.0679
  574loPI    C2 9170   7.534  13.979   9.766 -0.0120 -0.2386  0.2060
  574loPI    C3 9171   7.865  13.860   9.575 -0.0055  0.0731  0.0158
  574loPI   PO4 9172   7.352  13.841   9.252 -0.1128 -0.0862 -0.0547
  574loPI   GL1 9173   7.175  14.118   8.934  0.5605 -0.0826  0.1121
  574loPI   GL2 9174   6.902  14.170   9.142  0.3231  0.0330 -0.4847
  574loPI   C1A 9175   7.117  14.353   8.628  0.2403 -0.2139  0.2201
  574loPI   C2A 9176   7.035  14.639   8.303  0.0269 -0.0397 -0.3047
  574loPI   C3A 9177   6.938  14.760   7.910 -0.1874  0.2498 -0.0272
  574loPI   C4A 9178   6.823  14.677   7.479 -0.1841  0.2830  0.0278
  574loPI   C5A 9179   7.089  14.497   7.154  0.0284  0.3036  0.1349
  574loPI   C6A 9180   7.441  14.211   6.982  0.1086 -0.4607 -0.0586
  574loPI   C1B 9181   6.701  14.027   8.870 -0.0693  0.1631 -0.0741
  574loPI   C2B 9182   6.583  13.948   8.508 -0.0169  0.0215 -0.4100
  574loPI   C3B 9183   6.549  13.869   8.055 -0.4070 -0.1931 -0.2890
  574loPI   C4B 9184   6.562  13.980   7.640  0.1239 -0.1925  0.1282
  575loPI    C1 9185  10.864  11.785   9.241  0.1877 -0.0130  0.0522
  575loPI    C2 9186  10.667  11.558   9.505  0.0445  0.1532  0.0898
  575loPI    C3 9187  10.568  11.943   9.458  0.1562  0.1589 -0.1127
  575loPI   PO4 9188  10.844  11.778   9.006 -0.0511 -0.0493 -0.1390
  575loPI   GL1 9189  10.758  11.671   8.671  0.0300  0.0806 -0.1018
  575loPI   GL2 9190  10.546  11.506   8.594  0.0398  0.1063 -0.3821
  575loPI   C1A 9191  11.111  11.947   8.391 -0.0669 -0.2376 -0.0528
  575loPI   C2A 9192  11.179  11.742   8.023  0.1367 -0.1152 -0.2529
  575loPI   C3A 9193  11.218  11.544   7.633 -0.0766 -0.0205 -0.1531
  575loPI   C4A 9194  11.270  11.438   7.260 -0.0261  0.1351 -0.0171
  575loPI   C5A 9195  11.192  11.042   6.929  0.1218 -0.0723  0.1195
  575loPI   C6A 9196  11.140  10.646   6.759  0.1753 -0.0069 -0.1029
  575loPI   C1B 9197  10.391  11.500   8.139  0.0826 -0.4033  0.3544
  575loPI   C2B 9198  10.305  11.409   7.727 -0.2400  0.1506  0.1465
  575loPI   C3B 9199  10.216  11.543   7.352 -0.3297 -0.2580 -0.0905
  575loPI   C4B 9200  10.265  11.377   7.021  0.1840  0.1769 -0.5874
  576loPI    C1 9201  10.097  19.008   9.214  0.1211  0.2877 -0.0414
  576loPI    C2 9202  10.272  18.748   9.463 -0.1481 -0.0616 -0.2063
  576loPI    C3 9203   9.903  18.881   9.541 -0.1433  0.0072 -0.3000
  576loPI   PO4 9204  10.192  18.902   8.979 -0.1057  0.0253  0.0714
  576loPI   GL1 9205  10.419  18.971   8.570 -0.2909  0.3194 -0.1817
  576loPI   GL2 9206  10.756  18.914   8.627 -0.3623 -0.1873 -0.5519
  576loPI   C1A 9207  10.010  19.021   8.340  0.4964  0.1715  0.1786
  576loPI   C2A 9208   9.891  19.268   7.963  0.4929  0.2706  0.2780
  576loPI   C3A 9209   9.945  19.197   7.600  0.3379 -0.1877 -0.1934
  576loPI   C4A 9210  10.002  19.519   7.330  0.2767 -0.4293 -0.0780
  576loPI   C5A 9211   9.893  19.703   7.009  0.1134 -0.2722 -0.0338
  576loPI   C6A 9212   9.456  19.713   6.827 -0.3683  0.1154  0.0091
  576loPI   C1B 9213  10.856  18.919   8.166  0.0304  0.0523 -0.2599
  576loPI   C2B 9214  10.761  18.964   7.757  0.1032  0.0303 -0.4024
  576loPI   C3B 9215  11.102  19.078   7.430 -0.0661  0.0894 -0.1551
  576loPI   C4B 9216  11.130  19.248   7.067 -0.2804  0.1928 -0.1240
  577loPI    C1 9217  11.258  15.103   9.235  0.0878 -0.0669 -0.0857
  577loPI    C2 9218  11.180  14.951   9.597 -0.0133 -0.0942 -0.1189
  577loPI    C3 9219  11.506  14.834   9.397  0.1027  0.0042  0.0108
  577loPI   PO4 9220  10.978  15.032   9.131 -0.0201 -0.0667  0.3480
  577loPI   GL1 9221  10.815  14.728   8.747 -0.2901 -0.0008  0.1178
  577loPI   GL2 9222  11.197  14.860   8.716  0.0204 -0.1028 -0.0127
  577loPI   C1A 9223  10.935  14.441   8.371 -0.1332 -0.0982  0.0649
  577loPI   C2A 9224  10.997  14.285   7.955  0.1054  0.1011 -0.0600
  577loPI   C3A 9225  11.246  14.034   7.647  0.1996 -0.1537  0.0407
  577loPI   C4A 9226  11.055  13.704   7.280 -0.2701 -0.4654 -0.2975
  577loPI   C5A 9227  11.033  13.289   7.065 -0.2943  0.1579 -0.3067
  577loPI   C6A 9228  10.870  12.889   7.076  0.0548  0.1404 -0.0192
  577loPI   C1B 9229  11.174  14.833   8.274 -0.2950 -0.0082  0.0572
  577loPI   C2B 9230  11.072  14.753   7.912  0.3108  0.0291  0.3535
  577loPI   C3B 9231  11.135  14.583   7.611 -0.1310  0.0909  0.2812
  577loPI   C4B 9232  11.244  14.359   7.197  0.0766  0.3362  0.1724
  578loPI    C1 9233   0.509  12.325  10.418 -0.0171 -0.1615 -0.1199
  578loPI    C2 9234   0.792  12.390  10.694 -0.1411 -0.0093 -0.0266
  578loPI    C3 9235   0.510  12.113  10.757  0.1746 -0.3956 -0.2641
  578loPI   PO4 9236   0.668  12.381  10.220 -0.1612 -0.0014 -0.4005
  578loPI   GL1 9237   0.728  12.413   9.836 -0.1211 -0.0451 -0.1435
  578loPI   GL2 9238   0.384  12.533   9.801  0.3120  0.0305 -0.1396
  578loPI   C1A 9239   0.885  12.338   9.325 -0.0615  0.1312  0.0205
  578loPI   C2A 9240   0.846  12.484   8.894 -0.0866  0.0640  0.1091
  578loPI   C3A 9241   0.846  12.759   8.543 -0.1246  0.3201  0.0458
  578loPI   C4A 9242   0.968  12.887   8.270  0.1537 -0.1035 -0.0132
  578loPI   C5A 9243   1.058  12.914   7.819 -0.1126 -0.1971  0.1179
  578loPI   C6A 9244   0.869  12.829   7.369  0.1631 -0.2598  0.0989
  578loPI   C1B 9245   0.343  12.501   9.319 -0.1220  0.2941 -0.0780
  578loPI   C2B 9246   0.305  12.496   8.930  0.2970  0.0716  0.2634
  578loPI   C3B 9247   0.224  12.354   8.519 -0.0207 -0.0097 -0.0995
  578loPI   C4B 9248   0.392  12.094   8.228  0.3948 -0.0875  0.0842
  579loPI    C1 9249   1.497   5.524  10.100 -0.0589  0.0911 -0.0008
  579loPI    C2 9250   1.785   5.636  10.354 -0.1238  0.0125  0.1086
  579loPI    C3 9251   1.411   5.583  10.487 -0.1941  0.1369 -0.0372
  579loPI   PO4 9252   1.717   5.599   9.822 -0.0660 -0.1467 -0.0487
  579loPI   GL1 9253   1.832   5.494   9.267  0.1369 -0.0972 -0.2422
  579loPI   GL2 9254   1.565   5.490   9.384 -0.0269  0.0129 -0.3209
  579loPI   C1A 9255   1.862   5.574   8.923  0.0155 -0.1709 -0.2031
  579loPI   C2A 9256   1.785   5.727   8.437  0.2000  0.4300  0.1159
  579loPI   C3A 9257   1.590   5.989   8.128 -0.2196  0.0509 -0.0838
  579loPI   C4A 9258   1.674   6.111   7.764  0.1158 -0.0783 -0.4586
  579loPI   C5A 9259   1.704   6.216   7.388  0.1902 -0.0189 -0.0794
  579loPI   C6A 9260   1.909   6.546   7.210  0.1659 -0.0625 -0.1701
  579loPI   C1B 9261   1.424   5.370   8.960 -0.0641 -0.1881  0.4492
  579loPI   C2B 9262   1.376   5.473   8.563  0.1492  0.0248  0.0533
  579loPI   C3B 9263   1.524   5.520   8.066  0.2860 -0.0817 -0.0508
  579loPI   C4B 9264   1.466   5.658   7.725 -0.0163 -0.2351 -0.0386
  580loPI    C1 9265  12.937   7.015  10.151 -0.0691 -0.1650 -0.2860
  580loPI    C2 9266  13.097   6.774  10.427 -0.3374 -0.0339 -0.0099
  580loPI    C3 9267  13.150   7.169  10.452  0.0343 -0.0497 -0.4165
  580loPI   PO4 9268  13.038   7.032   9.934 -0.1733  0.1304 -0.4113
  580loPI   GL1 9269  12.900   6.840   9.423 -0.0462  0.0247 -0.5904
  580loPI   GL2 9270  13.206   6.748   9.460  0.0848  0.0065  0.0047
  580loPI   C1A 9271  12.877   6.671   9.052  0.2646 -0.0482 -0.1740
  580loPI   C2A 9272  13.096   6.577   8.764  0.1077  0.3175  0.0207
  580loPI   C3A 9273  13.100   6.500   8.441 -0.0517 -0.2228  0.1009
  580loPI   C4A 9274  13.288   6.587   8.036 -0.1804  0.0125  0.0281
  580loPI   C5A 9275  13.355   6.786   7.613  0.0422  0.0507 -0.1217
  580loPI   C6A 9276  13.074   6.932   7.417 -0.0185  0.0639  0.0136
  580loPI   C1B 9277  13.454   6.613   9.098 -0.2553 -0.1195  0.2304
  580loPI   C2B 9278  13.638   6.670   8.737 -0.0646  0.2783  0.1124
  580loPI   C3B 9279  13.677   6.763   8.349 -0.0638 -0.4871  0.1058
  580loPI   C4B 9280  13.767   6.824   7.920  0.0440 -0.0475  0.0654
  581loPI    C1 9281   2.058   9.574  10.424  0.0230 -0.0593  0.2869
  581loPI    C2 9282   2.230   9.215  10.459  0.0693 -0.0752 -0.0673
  581loPI    C3 9283   1.865   9.246  10.300  0.0264  0.0264  0.0496
  581loPI   PO4 9284   2.206   9.712  10.290 -0.1919 -0.0868  0.2352
  581loPI   GL1 9285   2.269   9.887   9.780 -0.2430  0.2098  0.0689
  581loPI   GL2 9286   2.447  10.003   9.715  0.1735 -0.0053  0.0270
  581loPI   C1A 9287   2.194   9.733   9.402  0.2690  0.2426  0.2049
  581loPI   C2A 9288   2.217   9.712   8.978  0.0761  0.2482  0.2176
  581loPI   C3A 9289   2.095   9.793   8.614  0.0030 -0.2796  0.1417
  581loPI   C4A 9290   1.880   9.628   8.261 -0.1728 -0.2595  0.0187
  581loPI   C5A 9291   1.817   9.235   7.963  0.1231 -0.1781 -0.2375
  581loPI   C6A 9292   1.368   9.014   7.820  0.2191 -0.0479 -0.0565
  581loPI   C1B 9293   2.478  10.073   9.258 -0.2467 -0.1246  0.3881
  581loPI   C2B 9294   2.453  10.106   8.873  0.0708  0.0646 -0.3878
  581loPI   C3B 9295   2.304  10.237   8.498 -0.0508 -0.1117  0.0035
  581loPI   C4B 9296   2.207  10.028   8.146  0.1085 -0.0145  0.0023
  582loPI    C1 9297   8.758  13.514   9.077  0.1416  0.0341 -0.0518
  582loPI    C2 9298   8.497  13.546   9.377  0.2423 -0.0748  0.0486
  582loPI    C3 9299   8.441  13.271   9.093 -0.1143  0.3422 -0.3005
  582loPI   PO4 9300   8.779  13.785   8.935 -0.1969  0.2958 -0.1944
  582loPI   GL1 9301   8.633  14.032   8.660 -0.2464  0.0202 -0.2491
  582loPI   GL2 9302   8.729  13.689   8.470  0.1061 -0.1250 -0.0401
  582loPI   C1A 9303   8.433  14.155   8.405  0.0077  0.2616 -0.1697
  582loPI   C2A 9304   8.414  14.102   7.957 -0.0462 -0.1580 -0.1110
  582loPI   C3A 9305   8.248  14.016   7.476 -0.2137  0.1707 -0.0588
  582loPI   C4A 9306   8.038  14.021   7.129 -0.0729  0.2744  0.2415
  582loPI   C5A 9307   7.734  13.743   7.130  0.0212  0.1128  0.2176
  582loPI   C6A 9308   7.330  13.780   7.175 -0.0960  0.3179 -0.3141
  582loPI   C1B 9309   8.920  13.724   8.078 -0.0995 -0.1257 -0.1168
  582loPI   C2B 9310   9.088  13.865   7.677  0.0713 -0.1537  0.1003
  582loPI   C3B 9311   8.726  13.968   7.403  0.0902 -0.0614  0.1277
  582loPI   C4B 9312   8.585  13.685   7.143 -0.0094 -0.1416 -0.1578
  583loPI    C1 9313  18.553   2.048   9.740  0.3845  0.1264  0.1437
  583loPI    C2 9314  18.395   2.344   9.957 -0.3727  0.0011 -0.2038
  583loPI    C3 9315  18.370   1.967  10.086 -0.2843 -0.0117 -0.2239
  583loPI   PO4 9316  18.870   2.109   9.678  0.1633 -0.5563  0.0082
  583loPI   GL1 9317  19.184   1.962   9.267 -0.3107  0.1937 -0.3185
  583loPI   GL2 9318  19.142   2.288   9.270  0.3026  0.3065  0.1808
  583loPI   C1A 9319  19.272   1.966   8.883  0.4273  0.1146 -0.1244
  583loPI   C2A 9320  18.942   1.794   8.628 -0.3427 -0.1145  0.1084
  583loPI   C3A 9321  18.632   1.755   8.222  0.3524  0.2414 -0.2336
  583loPI   C4A 9322  18.464   1.457   7.821  0.0451  0.6001  0.1929
  583loPI   C5A 9323  18.296   1.408   7.383 -0.1828 -0.0663 -0.1609
  583loPI   C6A 9324  17.950   1.099   7.216  0.0673  0.2475 -0.0477
  583loPI   C1B 9325  19.035   2.671   9.155  0.0512 -0.1114  0.0012
  583loPI   C2B 9326  18.723   2.920   8.994  0.1866  0.0055  0.3511
  583loPI   C3B 9327  18.527   3.197   8.677 -0.0177  0.0344  0.1957
  583loPI   C4B 9328  18.576   3.404   8.315  0.0254  0.1636 -0.2845
  584loPI    C1 9329   9.231  15.619   9.393 -0.1097  0.0750 -0.1114
  584loPI    C2 9330   9.442  15.925   9.244  0.1200 -0.0070  0.0387
  584loPI    C3 9331   9.247  15.967   9.591 -0.0756  0.0541 -0.0771
  584loPI   PO4 9332   9.165  15.448   9.098 -0.1374  0.0115  0.3466
  584loPI   GL1 9333   8.775  15.541   8.698  0.0421 -0.2017 -0.0072
  584loPI   GL2 9334   8.741  15.335   8.754  0.2127 -0.0423 -0.0796
  584loPI   C1A 9335   8.937  15.725   8.299 -0.0174 -0.0730  0.1935
  584loPI   C2A 9336   8.935  15.825   7.870  0.3579  0.2044  0.0482
  584loPI   C3A 9337   9.038  15.598   7.540 -0.0297 -0.0684  0.3339
  584loPI   C4A 9338   9.178  15.319   7.157  0.0521 -0.0304  0.4012
  584loPI   C5A 9339   9.323  14.844   7.018 -0.1128 -0.0676 -0.2542
  584loPI   C6A 9340   9.474  14.375   7.004 -0.1074 -0.0111  0.1077
  584loPI   C1B 9341   8.861  15.101   8.385 -0.1164 -0.0246  0.0945
  584loPI   C2B 9342   8.857  14.997   7.998  0.0206  0.0011  0.2621
  584loPI   C3B 9343   8.907  15.056   7.585  0.2879  0.1498  0.2129
  584loPI   C4B 9344   8.721  15.141   7.160  0.1399  0.1374 -0.3965
  585loPI    C1 9345   1.648  18.217   9.903 -0.0578  0.0779  0.0830
  585loPI    C2 9346   1.975  18.044  10.053 -0.0059  0.2354  0.1543
  585loPI    C3 9347   1.613  17.933  10.183  0.0057 -0.0900 -0.0780
  585loPI   PO4 9348   1.675  18.216   9.640  0.4159  0.2751  0.0030
  585loPI   GL1 9349   1.936  18.296   9.254  0.2403 -0.0458 -0.1693
  585loPI   GL2 9350   1.801  17.875   9.254  0.1327  0.0828 -0.0205
  585loPI   C1A 9351   2.121  18.366   8.924  0.1457 -0.1246  0.1989
  585loPI   C2A 9352   2.072  18.304   8.555  0.1651 -0.3610  0.0515
  585loPI   C3A 9353   2.067  18.205   8.150  0.2158  0.0896 -0.1123
  585loPI   C4A 9354   2.144  18.166   7.767  0.1391 -0.0864  0.1139
  585loPI   C5A 9355   1.853  18.258   7.599  0.2920 -0.0960  0.0366
  585loPI   C6A 9356   1.650  18.107   7.245  0.0159 -0.1251 -0.0113
  585loPI   C1B 9357   1.705  17.995   8.767  0.1829  0.0095  0.0128
  585loPI   C2B 9358   1.581  17.964   8.327 -0.1547 -0.0398 -0.1144
  585loPI   C3B 9359   1.538  17.992   7.952 -0.1160 -0.2391  0.1687
  585loPI   C4B 9360   1.508  17.738   7.594 -0.2229  0.1973 -0.0667
  586loPI    C1 9361   4.184  14.812   9.800  0.1128 -0.1293  0.1360
  586loPI    C2 9362   4.366  14.677  10.130  0.1215 -0.1563  0.1201
  586loPI    C3 9363   4.014  14.523  10.019  0.0373 -0.0298  0.2095
  586loPI   PO4 9364   4.361  14.795   9.607 -0.3659  0.2434  0.2385
  586loPI   GL1 9365   4.312  14.539   9.226 -0.0978 -0.2907  0.0663
  586loPI   GL2 9366   4.013  14.312   9.043 -0.1345 -0.0022  0.1066
  586loPI   C1A 9367   4.380  14.528   8.787 -0.1802 -0.0326  0.1304
  586loPI   C2A 9368   4.567  14.226   8.502  0.3451 -0.1927  0.0117
  586loPI   C3A 9369   4.414  13.965   8.290 -0.1281  0.0199  0.0415
  586loPI   C4A 9370   4.510  13.716   7.894  0.1615 -0.1601  0.3970
  586loPI   C5A 9371   4.741  13.566   7.521 -0.2578 -0.1664 -0.1122
  586loPI   C6A 9372   5.061  13.213   7.402  0.0469 -0.0725  0.2082
  586loPI   C1B 9373   3.979  14.252   8.681 -0.2241 -0.3960 -0.1359
  586loPI   C2B 9374   4.051  14.374   8.252 -0.0855  0.2051  0.0845
  586loPI   C3B 9375   4.348  14.216   7.871 -0.1075 -0.3222  0.0624
  586loPI   C4B 9376   4.516  14.107   7.578  0.1265  0.4104  0.0979
  587loPI    C1 9377   9.798   4.030   9.764 -0.0177  0.1340 -0.1487
  587loPI    C2 9378  10.172   4.137   9.856 -0.0082 -0.0386  0.0212
  587loPI    C3 9379   9.901   4.088  10.146 -0.0958 -0.1594 -0.0799
  587loPI   PO4 9380   9.684   4.271   9.451  0.4246  0.2100 -0.0702
  587loPI   GL1 9381   9.797   4.470   9.117 -0.0439  0.2139 -0.0834
  587loPI   GL2 9382   9.573   4.142   8.968  0.0882  0.1683 -0.0362
  587loPI   C1A 9383   9.704   4.846   8.641 -0.3678 -0.0072  0.0760
  587loPI   C2A 9384   9.731   5.124   8.273 -0.0838 -0.1613  0.1923
  587loPI   C3A 9385   9.811   5.500   7.957 -0.2014 -0.0291  0.2208
  587loPI   C4A 9386   9.780   5.474   7.446  0.0079  0.1911  0.1864
  587loPI   C5A 9387   9.906   5.530   7.033 -0.0206 -0.0706 -0.0127
  587loPI   C6A 9388   9.793   5.250   6.650  0.2928 -0.1375  0.1631
  587loPI   C1B 9389   9.570   4.148   8.589  0.3741 -0.2384  0.1024
  587loPI   C2B 9390   9.512   4.235   8.162 -0.1014  0.1226 -0.1948
  587loPI   C3B 9391   9.681   4.643   7.997  0.3185 -0.2208 -0.0766
  587loPI   C4B 9392   9.683   5.015   7.702  0.1209 -0.0154  0.3669
  588loPI    C1 9393   4.621   7.612  10.244  0.1555 -0.2102  0.1204
  588loPI    C2 9394   4.345   7.767  10.488  0.0692  0.1279 -0.1824
  588loPI    C3 9395   4.687   7.624  10.638 -0.0519  0.1767  0.1489
  588loPI   PO4 9396   4.588   7.737  10.041  0.0168  0.0649 -0.0648
  588loPI   GL1 9397   4.664   7.750   9.538  0.2079 -0.1346 -0.3508
  588loPI   GL2 9398   4.675   7.995   9.353  0.2418 -0.0465  0.0805
  588loPI   C1A 9399   4.344   7.772   9.103  0.1541 -0.3267  0.0076
  588loPI   C2A 9400   4.200   7.601   8.763  0.0095  0.1402  0.0801
  588loPI   C3A 9401   4.116   7.475   8.373 -0.0191 -0.1374  0.4728
  588loPI   C4A 9402   4.090   7.404   7.929 -0.0749 -0.0799 -0.0509
  588loPI   C5A 9403   4.197   7.238   7.596 -0.1018  0.2604  0.0687
  588loPI   C6A 9404   4.073   6.990   7.293  0.0988  0.1063  0.1480
  588loPI   C1B 9405   4.840   7.821   8.924 -0.1745 -0.0038 -0.0887
  588loPI   C2B 9406   4.667   7.763   8.560 -0.0185 -0.5590  0.0081
  588loPI   C3B 9407   4.661   7.741   8.107 -0.0068  0.0479 -0.0427
  588loPI   C4B 9408   4.700   7.770   7.649 -0.2259  0.2447  0.4303
  589loPI    C1 9409  18.717   0.602  10.063  0.1884  0.2754 -0.0966
  589loPI    C2 9410  18.898   0.357  10.322  0.0053  0.1918 -0.0459
  589loPI    C3 9411  18.830   0.738  10.422  0.0176  0.1837 -0.0064
  589loPI   PO4 9412  18.822   0.484   9.793 -0.1543 -0.1640 -0.1154
  589loPI   GL1 9413  18.722   0.630   9.388 -0.0030  0.2162  0.0627
  589loPI   GL2 9414  18.904   0.852   9.253  0.1937 -0.0717 -0.2898
  589loPI   C1A 9415  18.752   0.291   9.035 -0.2357 -0.0482  0.0114
  589loPI   C2A 9416  18.752   0.341   8.468  0.2147 -0.1276  0.1946
  589loPI   C3A 9417  18.747   0.505   8.085  0.2713  0.1628  0.2525
  589loPI   C4A 9418  18.674   0.722   7.753  0.1014  0.1922 -0.1306
  589loPI   C5A 9419  18.414   0.751   7.390 -0.2483  0.0223  0.0061
  589loPI   C6A 9420  18.505   0.591   6.950  0.0489  0.0793  0.0450
  589loPI   C1B 9421  18.821   0.841   8.853 -0.2492 -0.2422 -0.2626
  589loPI   C2B 9422  18.617   0.855   8.395  0.2185 -0.0591 -0.1346
  589loPI   C3B 9423  18.330   1.023   8.097 -0.0723 -0.0877  0.1132
  589loPI   C4B 9424  18.142   1.008   7.707 -0.5021  0.0024 -0.0400
  590loPI    C1 9425  15.286   0.937  10.143  0.2035 -0.1045 -0.3339
  590loPI    C2 9426  15.464   0.683  10.395 -0.1748  0.0134  0.0636
  590loPI    C3 9427  15.445   1.072  10.484  0.0224  0.1189 -0.3356
  590loPI   PO4 9428  15.380   0.866   9.802 -0.2397  0.0603 -0.1819
  590loPI   GL1 9429  15.324   0.573   9.494  0.3927  0.1414  0.1543
  590loPI   GL2 9430  15.115   0.794   9.342 -0.0887  0.1043  0.1436
  590loPI   C1A 9431  15.562   0.724   9.130  0.1795 -0.0515  0.0372
  590loPI   C2A 9432  15.638   0.970   8.792 -0.2483  0.0794 -0.1723
  590loPI   C3A 9433  15.692   0.992   8.312 -0.0667 -0.3827 -0.4521
  590loPI   C4A 9434  15.955   1.036   7.973  0.2604  0.3160 -0.0540
  590loPI   C5A 9435  16.121   0.738   7.706  0.1648 -0.1179  0.0753
  590loPI   C6A 9436  16.240   0.464   7.294  0.1268 -0.3265 -0.0739
  590loPI   C1B 9437  15.135   0.833   8.924  0.2498  0.3018  0.0231
  590loPI   C2B 9438  15.200   0.848   8.520 -0.0731 -0.3861  0.1505
  590loPI   C3B 9439  15.245   0.989   8.125  0.0517  0.2263 -0.0159
  590loPI   C4B 9440  15.081   1.340   7.797 -0.0609  0.1452  0.0499
  591loPI    C1 9441  15.020  15.259  10.315 -0.0122  0.1873  0.1276
  591loPI    C2 9442  14.645  15.175  10.203  0.0497 -0.1557  0.1662
  591loPI    C3 9443  14.746  15.549  10.301 -0.2327 -0.0244 -0.0327
  591loPI   PO4 9444  15.213  15.036  10.181  0.4287 -0.2987  0.1671
  591loPI   GL1 9445  15.274  14.947   9.712  0.2765  0.1264  0.1759
  591loPI   GL2 9446  15.186  14.808   9.429  0.2471  0.1187  0.2750
  591loPI   C1A 9447  15.377  15.332   9.327  0.0980  0.0756 -0.0665
  591loPI   C2A 9448  15.394  15.534   9.081 -0.2232 -0.0543  0.0483
  591loPI   C3A 9449  15.187  15.506   8.652 -0.1759  0.0537  0.0243
  591loPI   C4A 9450  15.145  15.221   8.313  0.1564  0.2885 -0.0723
  591loPI   C5A 9451  15.050  14.975   7.879  0.2162 -0.2477 -0.1131
  591loPI   C6A 9452  15.154  14.978   7.424 -0.1691 -0.2527  0.0326
  591loPI   C1B 9453  15.031  14.585   9.088  0.1390 -0.2063 -0.2335
  591loPI   C2B 9454  15.053  14.496   8.749 -0.1029 -0.0107 -0.1186
  591loPI   C3B 9455  15.463  14.434   8.549 -0.0430 -0.0525  0.1052
  591loPI   C4B 9456  15.660  14.233   8.174 -0.0702  0.3105 -0.2242
  592loPI    C1 9457  18.135  18.994   9.875  0.0811 -0.1742 -0.0021
  592loPI    C2 9458  18.478  18.964   9.670  0.2372  0.4204  0.1520
  592loPI    C3 9459  18.483  18.971  10.070  0.0005  0.0100  0.1673
  592loPI   PO4 9460  18.062  19.182   9.784  0.3771 -0.1851 -0.2350
  592loPI   GL1 9461  17.786  19.394   9.452  0.1582  0.0886 -0.0569
  592loPI   GL2 9462  17.629  19.270   9.455  0.0718  0.3300  0.0068
  592loPI   C1A 9463  17.922  19.240   9.036 -0.0225 -0.1997 -0.3230
  592loPI   C2A 9464  17.937  19.655   8.969  0.3146  0.1664 -0.0115
  592loPI   C3A 9465  18.342  19.903   8.852 -0.3007 -0.1345  0.0306
  592loPI   C4A 9466  18.325  20.284   8.845 -0.1475 -0.2391 -0.0133
  592loPI   C5A 9467  18.306  20.561   8.629 -0.1170 -0.3341 -0.1179
  592loPI   C6A 9468  18.410  20.926   8.796 -0.2337  0.4601 -0.2543
  592loPI   C1B 9469  17.397  19.264   9.070  0.0118 -0.1429  0.0334
  592loPI   C2B 9470  17.265  19.253   8.649  0.0240  0.0961  0.1333
  592loPI   C3B 9471  17.041  18.996   8.242 -0.0633  0.3317 -0.2749
  592loPI   C4B 9472  16.991  19.084   7.858 -0.0584  0.1202  0.1160
  593loPI    C1 9473  17.298  18.483  10.265 -0.2706 -0.0175 -0.0771
  593loPI    C2 9474  17.092  18.142  10.229 -0.1411 -0.1067  0.0141
  593loPI    C3 9475  17.014  18.392  10.532 -0.1796 -0.0943 -0.0057
  593loPI   PO4 9476  17.300  18.626   9.986 -0.2056  0.2882 -0.1650
  593loPI   GL1 9477  17.217  18.696   9.549  0.1295  0.0342 -0.2355
  593loPI   GL2 9478  16.971  18.736   9.667  0.1975  0.0033  0.0617
  593loPI   C1A 9479  17.203  18.830   9.107  0.0807  0.0183 -0.0363
  593loPI   C2A 9480  16.919  18.763   8.761 -0.0051 -0.1365  0.0054
  593loPI   C3A 9481  16.689  18.666   8.414 -0.0059 -0.0326 -0.1543
  593loPI   C4A 9482  16.697  18.634   7.979  0.2825 -0.0852 -0.1851
  593loPI   C5A 9483  16.689  18.251   7.651 -0.0459 -0.3237 -0.0372
  593loPI   C6A 9484  16.881  17.880   7.455  0.1869 -0.1138 -0.1141
  593loPI   C1B 9485  16.674  18.710   9.300  0.2315  0.1194  0.1531
  593loPI   C2B 9486  16.391  18.569   8.894  0.3613  0.0073 -0.2804
  593loPI   C3B 9487  16.303  18.491   8.595  0.3304  0.2961  0.1685
  593loPI   C4B 9488  16.475  18.267   8.337 -0.0011  0.0351 -0.0069
  594loPI    C1 9489  12.255  16.758   9.546 -0.0786 -0.1996  0.0738
  594loPI    C2 9490  12.169  16.850   9.926  0.0483  0.0343  0.0477
  594loPI    C3 9491  11.919  16.957   9.632  0.0050 -0.0483  0.0541
  594loPI   PO4 9492  12.492  16.789   9.476 -0.2596 -0.0040 -0.0436
  594loPI   GL1 9493  12.635  16.820   9.062 -0.0836  0.1681 -0.0470
  594loPI   GL2 9494  12.341  16.826   8.879 -0.1475  0.3646  0.2271
  594loPI   C1A 9495  13.023  16.661   8.797 -0.2092  0.1377 -0.2093
  594loPI   C2A 9496  13.171  16.763   8.431  0.3351 -0.0764  0.0430
  594loPI   C3A 9497  13.327  16.761   7.962  0.4017 -0.3894 -0.2411
  594loPI   C4A 9498  13.141  16.808   7.601  0.3434  0.0404 -0.0236
  594loPI   C5A 9499  13.017  16.676   7.242  0.0687 -0.1814  0.0030
  594loPI   C6A 9500  13.295  16.480   6.895 -0.1624 -0.0431 -0.1038
  594loPI   C1B 9501  12.345  16.845   8.396 -0.0581  0.1828 -0.0434
  594loPI   C2B 9502  12.201  17.075   8.018 -0.1042  0.0056  0.2854
  594loPI   C3B 9503  12.060  17.284   7.640 -0.0545 -0.2056  0.1048
  594loPI   C4B 9504  11.918  17.399   7.228  0.0147  0.0263  0.0398
  595loPI    C1 9505   2.942  13.349   9.649 -0.3081  0.0165 -0.0110
  595loPI    C2 9506   2.800  13.097   9.926  0.0077 -0.1071  0.0432
  595loPI    C3 9507   3.097  13.348  10.018 -0.0213 -0.0081 -0.1285
  595loPI   PO4 9508   2.934  13.145   9.455  0.0288 -0.1282  0.0413
  595loPI   GL1 9509   3.005  12.847   9.145 -0.1117  0.0318 -0.2587
  595loPI   GL2 9510   2.766  13.138   8.896  0.1306 -0.3725  0.1700
  595loPI   C1A 9511   2.909  12.662   8.858  0.3044 -0.1973  0.2814
  595loPI   C2A 9512   3.031  12.631   8.461 -0.1731 -0.2049 -0.2846
  595loPI   C3A 9513   2.895  12.552   8.105 -0.0283 -0.2808 -0.1980
  595loPI   C4A 9514   2.984  12.677   7.713 -0.0005 -0.2093 -0.1418
  595loPI   C5A 9515   2.685  12.703   7.380  0.3416  0.1513 -0.1690
  595loPI   C6A 9516   2.726  12.805   6.938 -0.0545  0.0517 -0.3443
  595loPI   C1B 9517   2.607  12.994   8.460  0.3623  0.2318 -0.2577
  595loPI   C2B 9518   2.774  13.028   8.054  0.2885 -0.1630 -0.0213
  595loPI   C3B 9519   2.748  13.163   7.631 -0.3590 -0.3879 -0.0969
  595loPI   C4B 9520   2.420  13.225   7.549 -0.2243 -0.0227 -0.0860
  596loPI    C1 9521   0.291  11.401  10.397 -0.2347  0.1337  0.1898
  596loPI    C2 9522   0.441  11.764  10.319 -0.1590  0.1077  0.2132
  596loPI    C3 9523   0.488  11.602  10.682  0.0744 -0.0540  0.1127
  596loPI   PO4 9524   0.347  11.189  10.141 -0.1314 -0.0931 -0.1877
  596loPI   GL1 9525   0.258  11.068   9.716 -0.0524  0.1227  0.2929
  596loPI   GL2 9526   0.559  10.857   9.662 -0.1332  0.1518  0.1174
  596loPI   C1A 9527   0.184  11.060   9.281  0.0139  0.3758 -0.1860
  596loPI   C2A 9528   0.200  10.892   8.790 -0.0727 -0.3536 -0.2377
  596loPI   C3A 9529   0.309  10.667   8.425 -0.1711 -0.0993 -0.0601
  596loPI   C4A 9530   0.543  10.557   7.987 -0.2548 -0.0663  0.1099
  596loPI   C5A 9531   0.876  10.259   7.873  0.1936  0.4498  0.0742
  596loPI   C6A 9532   1.184  10.083   8.041 -0.0086  0.0231  0.0739
  596loPI   C1B 9533   0.621  10.853   9.116 -0.3526 -0.0028 -0.1682
  596loPI   C2B 9534   0.635  11.100   8.742 -0.0305 -0.0163  0.1828
  596loPI   C3B 9535   0.749  11.169   8.228 -0.5177 -0.1831  0.1015
  596loPI   C4B 9536   0.966  11.348   7.885 -0.0130  0.2263 -0.0499
  597loPI    C1 9537  15.777  15.983  10.196 -0.2789  0.0751 -0.0680
  597loPI    C2 9538  15.934  16.024  10.562 -0.2132  0.0910 -0.0976
  597loPI    C3 9539  15.697  15.712  10.480 -0.2593  0.1080 -0.0309
  597loPI   PO4 9540  15.827  16.221  10.122 -0.0547 -0.3664  0.0758
  597loPI   GL1 9541  15.805  16.050   9.693 -0.1320 -0.2044 -0.1825
  597loPI   GL2 9542  15.640  15.809   9.700 -0.0571 -0.0703  0.1221
  597loPI   C1A 9543  15.890  15.908   9.293  0.2836 -0.0263 -0.1136
  597loPI   C2A 9544  15.822  15.923   8.849 -0.2824  0.3048  0.0275
  597loPI   C3A 9545  15.865  15.874   8.348 -0.1028  0.1677  0.2835
  597loPI   C4A 9546  16.047  15.830   8.016  0.1158 -0.2630  0.0592
  597loPI   C5A 9547  16.135  15.881   7.568 -0.0649 -0.2538  0.3155
  597loPI   C6A 9548  16.439  15.747   7.215  0.0459 -0.0412 -0.1868
  597loPI   C1B 9549  15.416  16.047   9.366  0.0007 -0.1463 -0.1030
  597loPI   C2B 9550  15.350  16.180   8.964 -0.0793 -0.0186 -0.2685
  597loPI   C3B 9551  15.408  16.010   8.539  0.1644  0.2036  0.2307
  597loPI   C4B 9552  15.396  15.724   8.185 -0.0395  0.1439 -0.4262
  598loPI    C1 9553   4.327   4.372   9.637  0.0332  0.1864 -0.0913
  598loPI    C2 9554   4.437   4.226   9.993  0.0773 -0.1187 -0.2270
  598loPI    C3 9555   4.679   4.477   9.796  0.0611  0.0362 -0.0522
  598loPI   PO4 9556   4.161   4.171   9.541 -0.0819  0.1870  0.2316
  598loPI   GL1 9557   4.273   4.215   9.139 -0.0890 -0.1070 -0.1635
  598loPI   GL2 9558   4.622   4.306   9.128 -0.1810  0.1598 -0.2377
  598loPI   C1A 9559   4.476   3.864   8.896  0.0921  0.2993  0.3583
  598loPI   C2A 9560   4.771   3.661   8.593 -0.0134  0.0114 -0.1219
  598loPI   C3A 9561   4.722   3.677   8.122  0.0161 -0.0531 -0.0283
  598loPI   C4A 9562   4.913   3.815   7.708  0.3337 -0.0077  0.3608
  598loPI   C5A 9563   4.857   3.818   7.323 -0.0907 -0.3394 -0.0323
  598loPI   C6A 9564   5.030   3.433   7.009 -0.3074  0.0852 -0.1449
  598loPI   C1B 9565   4.461   4.283   8.703 -0.1969 -0.3050 -0.1744
  598loPI   C2B 9566   4.380   3.931   8.366 -0.1097 -0.4908 -0.2458
  598loPI   C3B 9567   4.293   3.989   8.000 -0.0892  0.1950  0.1057
  598loPI   C4B 9568   4.392   3.872   7.568 -0.1248  0.1101 -0.1676
  599loPI    C1 9569   3.360   4.190   9.685 -0.0002 -0.1070  0.2609
  599loPI    C2 9570   3.210   4.049   9.342  0.0662  0.1064  0.1426
  599loPI    C3 9571   3.265   3.803   9.652 -0.0643 -0.0727  0.0254
  599loPI   PO4 9572   3.559   4.296   9.524 -0.0924 -0.0751 -0.0660
  599loPI   GL1 9573   3.418   4.401   9.032  0.1618 -0.0546 -0.0003
  599loPI   GL2 9574   3.460   4.724   9.083  0.0338  0.0973 -0.3428
  599loPI   C1A 9575   3.561   4.315   8.700  0.1892  0.0712  0.0807
  599loPI   C2A 9576   3.578   4.469   8.259  0.1124  0.2720  0.0664
  599loPI   C3A 9577   3.470   4.602   7.852 -0.0427  0.1803 -0.4219
  599loPI   C4A 9578   3.431   4.550   7.483  0.4847  0.2628 -0.3245
  599loPI   C5A 9579   3.367   4.266   7.285  0.0756  0.0588  0.1975
  599loPI   C6A 9580   3.006   4.333   6.955 -0.0283 -0.1841  0.2755
  599loPI   C1B 9581   3.585   4.843   8.662  0.2377  0.1681  0.1253
  599loPI   C2B 9582   3.727   4.971   8.221 -0.0105  0.0471 -0.1542
  599loPI   C3B 9583   3.857   4.905   7.766  0.0321 -0.0204 -0.0087
  599loPI   C4B 9584   3.508   5.125   7.570 -0.1270  0.2195 -0.0859
  600loPI    C1 9585   0.416  15.784  10.081  0.1309  0.0256 -0.0607
  600loPI    C2 9586   0.188  16.078   9.936  0.1011 -0.0230 -0.1125
  600loPI    C3 9587   0.216  16.024  10.331 -0.2273 -0.2118 -0.1110
  600loPI   PO4 9588   0.601  15.779   9.850 -0.1922 -0.0079  0.2081
  600loPI   GL1 9589   0.500  15.957   9.446 -0.0416  0.1816 -0.0282
  600loPI   GL2 9590   0.822  15.968   9.369 -0.1514 -0.3022  0.0430
  600loPI   C1A 9591   0.654  15.735   8.955  0.0057 -0.2633  0.3634
  600loPI   C2A 9592   0.737  15.657   8.504 -0.0656 -0.0370 -0.0588
  600loPI   C3A 9593   0.532  15.621   8.232  0.2047  0.3563 -0.0917
  600loPI   C4A 9594   0.437  15.310   7.938 -0.1864 -0.0756 -0.1909
  600loPI   C5A 9595   0.285  15.126   7.611  0.2536  0.2390  0.0025
  600loPI   C6A 9596   0.469  14.810   7.282 -0.1780  0.2723 -0.0440
  600loPI   C1B 9597   0.823  16.458   9.348 -0.2795  0.4133 -0.0178
  600loPI   C2B 9598   0.630  16.838   9.269 -0.4764  0.0715  0.3103
  600loPI   C3B 9599   0.552  17.070   8.949 -0.0596  0.1059  0.3114
  600loPI   C4B 9600   0.305  17.252   9.029  0.1874  0.1939 -0.1906
  601loPI    C1 9601   7.963   5.391   9.747  0.0028 -0.2590  0.1384
  601loPI    C2 9602   8.269   5.136   9.707  0.1358 -0.0981  0.1191
  601loPI    C3 9603   8.154   5.256  10.071 -0.1357 -0.4334  0.1490
  601loPI   PO4 9604   7.736   5.345   9.600 -0.2147  0.0373  0.0385
  601loPI   GL1 9605   7.609   5.386   9.251  0.0179 -0.1856  0.1958
  601loPI   GL2 9606   7.444   5.170   9.289  0.0948 -0.3174 -0.0351
  601loPI   C1A 9607   7.526   5.371   8.730  0.0638  0.1788  0.2046
  601loPI   C2A 9608   7.495   5.346   8.390 -0.1893  0.2059 -0.3275
  601loPI   C3A 9609   7.450   5.314   7.962  0.0079  0.1554  0.4514
  601loPI   C4A 9610   7.370   5.277   7.524  0.2936 -0.0248  0.0654
  601loPI   C5A 9611   7.173   5.200   7.166 -0.1853 -0.1901 -0.3756
  601loPI   C6A 9612   6.859   5.150   6.809 -0.0765  0.1969 -0.0185
  601loPI   C1B 9613   7.556   4.848   8.927  0.2079  0.0276  0.0195
  601loPI   C2B 9614   7.626   4.598   8.621 -0.1330  0.0309  0.0161
  601loPI   C3B 9615   7.856   4.516   8.220  0.1565  0.2971 -0.0255
  601loPI   C4B 9616   7.900   4.523   7.723  0.2908 -0.1710  0.0885
  602loPI    C1 9617   2.927   8.406  10.450 -0.0904  0.0984 -0.0763
  602loPI    C2 9618   3.215   8.509  10.192  0.0793 -0.0642  0.0456
  602loPI    C3 9619   3.188   8.693  10.546 -0.0252  0.0152 -0.0030
  602loPI   PO4 9620   2.898   8.172  10.304 -0.0008 -0.3974 -0.0275
  602loPI   GL1 9621   3.274   7.998   9.953 -0.2513 -0.1167 -0.1711
  602loPI   GL2 9622   3.522   7.882   9.929 -0.0873 -0.0647  0.0249
  602loPI   C1A 9623   3.043   8.326   9.683  0.2373  0.0019 -0.2021
  602loPI   C2A 9624   2.988   8.465   9.314  0.2607 -0.2630  0.2484
  602loPI   C3A 9625   3.125   8.661   8.979 -0.0173 -0.0649 -0.0368
  602loPI   C4A 9626   3.218   8.885   8.646  0.0876 -0.5037  0.1257
  602loPI   C5A 9627   3.138   8.888   8.247 -0.0428 -0.3638  0.0435
  602loPI   C6A 9628   3.206   8.973   7.899  0.0797 -0.3036  0.0633
  602loPI   C1B 9629   3.394   7.961   9.500  0.2464 -0.1066  0.1857
  602loPI   C2B 9630   3.304   8.114   9.108  0.2381 -0.0805  0.2562
  602loPI   C3B 9631   3.325   8.250   8.642 -0.0694  0.1575 -0.5316
  602loPI   C4B 9632   3.306   8.132   8.236 -0.2324 -0.0117  0.1859
  603loPI    C1 9633  14.810  17.359  10.146 -0.1447 -0.0333 -0.2009
  603loPI    C2 9634  14.880  17.714  10.317 -0.3188 -0.0526 -0.0876
  603loPI    C3 9635  15.125  17.405  10.388 -0.1253  0.0626 -0.2441
  603loPI   PO4 9636  14.725  17.426   9.884 -0.0386  0.0312  0.0020
  603loPI   GL1 9637  14.893  17.373   9.468 -0.1200  0.2460  0.0296
  603loPI   GL2 9638  14.897  17.149   9.459  0.1448  0.0378 -0.3058
  603loPI   C1A 9639  15.057  17.509   8.994  0.2978 -0.1467  0.0518
  603loPI   C2A 9640  15.159  17.312   8.628  0.2815 -0.1148  0.1426
  603loPI   C3A 9641  15.168  17.027   8.180 -0.3246 -0.1297 -0.0208
  603loPI   C4A 9642  15.270  16.664   7.924 -0.1984  0.1908  0.0226
  603loPI   C5A 9643  15.323  16.354   7.598  0.1215 -0.1129  0.1681
  603loPI   C6A 9644  15.137  16.164   7.189  0.3222 -0.2007 -0.0936
  603loPI   C1B 9645  14.992  16.992   9.069  0.1956 -0.1115  0.2071
  603loPI   C2B 9646  14.966  16.877   8.619  0.0200  0.3685 -0.1261
  603loPI   C3B 9647  15.058  16.555   8.355  0.0647 -0.1382 -0.0642
  603loPI   C4B 9648  15.198  16.239   8.139 -0.2586 -0.1721  0.1363
  604loPI    C1 9649  10.432   8.963   9.884 -0.1119  0.1085  0.1042
  604loPI    C2 9650  10.146   8.714  10.011 -0.1183  0.0890  0.0517
  604loPI    C3 9651  10.465   8.784  10.241 -0.1069  0.0168  0.0581
  604loPI   PO4 9652  10.321   9.130   9.624 -0.0153  0.2620 -0.0416
  604loPI   GL1 9653  10.476   9.234   9.231 -0.1152 -0.3070  0.0194
  604loPI   GL2 9654  10.250   9.286   9.000 -0.1864 -0.2149 -0.1442
  604loPI   C1A 9655  10.605   8.899   9.028  0.0864  0.1180 -0.2876
  604loPI   C2A 9656  10.989   9.014   8.715 -0.0517 -0.0726  0.0156
  604loPI   C3A 9657  11.016   9.076   8.341 -0.0809 -0.0279  0.0507
  604loPI   C4A 9658  11.218   8.986   7.870 -0.0455  0.1548 -0.2291
  604loPI   C5A 9659  11.385   8.899   7.566 -0.2397 -0.0651 -0.1634
  604loPI   C6A 9660  11.716   8.905   7.236 -0.0712 -0.1199 -0.1249
  604loPI   C1B 9661  10.444   9.151   8.671  0.2147 -0.0430 -0.0889
  604loPI   C2B 9662  10.546   9.028   8.224  0.0258 -0.2029  0.0958
  604loPI   C3B 9663  10.625   8.920   7.773 -0.1179  0.0471 -0.2634
  604loPI   C4B 9664  10.708   8.752   7.317  0.0288 -0.1252  0.2059
  605loPI    C1 9665  18.151  10.314  10.575 -0.1113  0.1506  0.0478
  605loPI    C2 9666  17.971  10.001  10.748  0.0297  0.0507  0.0151
  605loPI    C3 9667  18.309  10.149  10.904  0.0183  0.1222 -0.0278
  605loPI   PO4 9668  18.122  10.261  10.327  0.1383  0.0411  0.0776
  605loPI   GL1 9669  18.290  10.234   9.937 -0.1076 -0.1383 -0.1076
  605loPI   GL2 9670  18.367   9.926   9.943 -0.1240 -0.0055  0.0523
  605loPI   C1A 9671  18.146  10.154   9.556  0.2210  0.0227 -0.0983
  605loPI   C2A 9672  17.903   9.842   9.383 -0.1198  0.0671  0.2209
  605loPI   C3A 9673  17.822   9.560   9.086  0.5545 -0.0525 -0.2366
  605loPI   C4A 9674  17.635   9.232   8.778 -0.2511  0.0317 -0.0939
  605loPI   C5A 9675  17.779   9.122   8.426  0.1523 -0.0912 -0.2044
  605loPI   C6A 9676  17.933   8.932   8.006  0.0263  0.1715 -0.0330
  605loPI   C1B 9677  18.681   9.899   9.784 -0.0770 -0.2650  0.2894
  605loPI   C2B 9678  18.785  10.025   9.408  0.0885  0.0706 -0.3164
  605loPI   C3B 9679  19.057  10.306   9.318  0.1047  0.0533  0.1996
  605loPI   C4B 9680  18.989  10.140   8.923 -0.0594 -0.1411  0.2176
  606loPI    C1 9681  13.495  18.107   9.740  0.1268  0.0804 -0.1841
  606loPI    C2 9682  13.295  17.763   9.699 -0.0012  0.1296  0.0086
  606loPI    C3 9683  13.582  17.795   9.976  0.2072  0.0910 -0.1991
  606loPI   PO4 9684  13.408  18.210   9.561  0.1705 -0.0129  0.0270
  606loPI   GL1 9685  13.518  18.424   9.083  0.1285 -0.1671 -0.1638
  606loPI   GL2 9686  13.571  18.732   8.859 -0.1954  0.1807  0.2584
  606loPI   C1A 9687  13.531  18.249   8.633 -0.1004  0.0565  0.0865
  606loPI   C2A 9688  13.466  18.036   8.193 -0.0489  0.0562  0.2497
  606loPI   C3A 9689  13.303  17.801   7.892  0.5840 -0.3639  0.0013
  606loPI   C4A 9690  13.326  17.418   7.463 -0.1224  0.1138  0.1233
  606loPI   C5A 9691  13.310  17.512   7.149 -0.1036  0.3597 -0.0155
  606loPI   C6A 9692  13.288  17.414   6.739  0.2427  0.2323 -0.1466
  606loPI   C1B 9693  13.515  18.709   8.469  0.0080 -0.1212  0.0270
  606loPI   C2B 9694  13.366  18.802   8.054 -0.0654 -0.2756 -0.2623
  606loPI   C3B 9695  13.113  18.943   7.754 -0.0867 -0.3772  0.2513
  606loPI   C4B 9696  13.019  18.945   7.310 -0.0335 -0.0816  0.0327
  607loPI    C1 9697  16.331  11.040  10.180  0.2280 -0.1753 -0.0754
  607loPI    C2 9698  16.574  11.349  10.104  0.1361 -0.0750  0.0345
  607loPI    C3 9699  16.604  11.151  10.451 -0.0953  0.0888  0.1507
  607loPI   PO4 9700  16.334  10.891  10.039  0.2472  0.0745 -0.3200
  607loPI   GL1 9701  16.556  10.682   9.751  0.1501  0.0098 -0.0026
  607loPI   GL2 9702  16.636  10.900   9.633 -0.2025 -0.1101 -0.2058
  607loPI   C1A 9703  16.362  10.639   9.346  0.1574 -0.0440 -0.0360
  607loPI   C2A 9704  16.070  10.734   8.981 -0.3199 -0.3214  0.2542
  607loPI   C3A 9705  16.101  10.681   8.598  0.1266 -0.1089 -0.1581
  607loPI   C4A 9706  15.931  10.649   8.229 -0.0383  0.1939 -0.1959
  607loPI   C5A 9707  15.964  10.744   7.895 -0.2048  0.0748  0.1424
  607loPI   C6A 9708  15.952  10.929   7.488 -0.1732  0.1653 -0.0884
  607loPI   C1B 9709  16.783  11.275   9.637  0.0709 -0.0449 -0.3024
  607loPI   C2B 9710  16.813  11.526   9.266  0.2594  0.0708  0.0390
  607loPI   C3B 9711  16.712  11.488   8.893  0.4391 -0.2172  0.1249
  607loPI   C4B 9712  16.573  11.536   8.463 -0.0066  0.1414 -0.0765
  608loPI    C1 9713  15.288  15.608  10.095  0.0038 -0.0716  0.2343
  608loPI    C2 9714  15.303  16.007  10.073  0.0546 -0.0728  0.2448
  608loPI    C3 9715  15.170  15.829  10.406 -0.2035 -0.0619  0.1500
  608loPI   PO4 9716  15.116  15.519   9.897  0.0385  0.0869  0.1383
  608loPI   GL1 9717  15.167  15.754   9.600 -0.0948  0.0691  0.1513
  608loPI   GL2 9718  14.972  15.511   9.386  0.2811  0.0326  0.1990
  608loPI   C1A 9719  14.899  15.941   9.241  0.0245 -0.1124  0.1076
  608loPI   C2A 9720  14.905  15.844   8.830  0.1005 -0.1555 -0.2056
  608loPI   C3A 9721  14.920  15.857   8.428 -0.1682 -0.3044 -0.0621
  608loPI   C4A 9722  14.894  15.862   8.060 -0.0765 -0.4262  0.0644
  608loPI   C5A 9723  14.806  15.684   7.823  0.2611 -0.2130 -0.0356
  608loPI   C6A 9724  14.802  15.432   7.615 -0.2252 -0.4192 -0.1909
  608loPI   C1B 9725  14.886  15.110   9.146 -0.1871  0.1800  0.0213
  608loPI   C2B 9726  14.923  15.005   8.690  0.1599 -0.3617  0.0390
  608loPI   C3B 9727  14.706  14.848   8.315  0.0242  0.1774  0.0691
  608loPI   C4B 9728  14.450  14.529   8.221  0.2936  0.0640 -0.3942
  609POPI    C1 9729   6.721   5.778   9.843 -0.1180  0.1582  0.1622
  609POPI    C2 9730   6.958   5.506  10.015  0.0920  0.0232 -0.3218
  609POPI    C3 9731   6.952   5.882  10.152  0.3182 -0.0576 -0.0825
  609POPI   PO4 9732   6.783   5.802   9.566 -0.3002 -0.3133  0.1836
  609POPI   GL1 9733   6.591   5.684   9.195  0.1088 -0.1204 -0.3298
  609POPI   GL2 9734   6.534   6.045   9.031 -0.0860 -0.1400 -0.2023
  609POPI   C1A 9735   6.637   5.652   8.800 -0.0426 -0.1160  0.2108
  609POPI   D2A 9736   6.427   5.535   8.521  0.1124 -0.1354  0.0333
  609POPI   C3A 9737   6.530   5.772   8.165 -0.0368  0.2889  0.0053
  609POPI   C4A 9738   6.613   5.984   7.805  0.1271  0.0859 -0.1124
  609POPI   C1B 9739   6.602   6.097   8.599  0.1204 -0.0102  0.4365
  609POPI   C2B 9740   6.830   6.279   8.183  0.0194  0.2807 -0.2932
  609POPI   C3B 9741   6.946   6.377   7.851 -0.2543 -0.1142  0.1272
  609POPI   C4B 9742   6.933   6.080   7.423 -0.0007  0.1052  0.0035
  610POPI    C1 9743  14.110  18.034   9.855  0.0188 -0.2677  0.0517
  610POPI    C2 9744  14.460  17.897   9.991  0.2366  0.1101 -0.1124
  610POPI    C3 9745  14.160  17.967  10.246  0.2825 -0.2012  0.0313
  610POPI   PO4 9746  14.018  17.895   9.642 -0.0864 -0.0982 -0.0832
  610POPI   GL1 9747  14.161  17.761   9.170  0.0689 -0.1781  0.0464
  610POPI   GL2 9748  14.011  17.553   9.214 -0.2140  0.0403 -0.1061
  610POPI   C1A 9749  14.289  17.697   8.813 -0.1376 -0.1227 -0.0155
  610POPI   D2A 9750  14.450  17.742   8.313 -0.0373 -0.1199 -0.0772
  610POPI   C3A 9751  14.748  17.958   7.975  0.1482 -0.2807 -0.0983
  610POPI   C4A 9752  14.836  18.158   7.629 -0.0548 -0.0587 -0.0236
  610POPI   C1B 9753  13.871  17.456   8.829  0.0907 -0.3025  0.3026
  610POPI   C2B 9754  14.011  17.426   8.474 -0.3661  0.1767  0.1084
  610POPI   C3B 9755  14.065  17.534   8.040 -0.0000  0.0373  0.3578
  610POPI   C4B 9756  14.302  17.611   7.747 -0.1144  0.1645 -0.0575
  611POPI    C1 9757  12.284   2.985   9.660  0.2635  0.0037 -0.0480
  611POPI    C2 9758  11.998   2.862   9.911  0.0037  0.1131 -0.2853
  611POPI    C3 9759  12.376   2.892  10.038 -0.0508 -0.2364 -0.0265
  611POPI   PO4 9760  12.196   3.061   9.475  0.1488  0.0929 -0.1002
  611POPI   GL1 9761  12.351   3.232   9.055  0.1337  0.1498 -0.1758
  611POPI   GL2 9762  12.175   3.230   8.716  0.0796  0.4100  0.0373
  611POPI   C1A 9763  12.710   3.134   8.922 -0.3328  0.2414  0.0648
  611POPI   D2A 9764  12.686   2.982   8.442 -0.5236  0.1154  0.0400
  611POPI   C3A 9765  12.395   3.109   8.223 -0.1429 -0.0083 -0.2261
  611POPI   C4A 9766  12.179   3.455   8.177 -0.0269 -0.1012  0.1085
  611POPI   C1B 9767  12.251   2.799   8.568 -0.1741 -0.0548 -0.0787
  611POPI   C2B 9768  12.122   2.474   8.309  0.0710  0.1146  0.0495
  611POPI   C3B 9769  12.208   2.358   7.874  0.0341 -0.1602  0.0176
  611POPI   C4B 9770  12.498   2.438   7.525 -0.1631 -0.0331 -0.0509
  612POPI    C1 9771   2.069  12.960  10.161  0.0412 -0.0003  0.0796
  612POPI    C2 9772   1.944  12.644   9.950  0.1229  0.1004 -0.1228
  612POPI    C3 9773   1.992  12.614  10.346 -0.2172 -0.0353 -0.0882
  612POPI   PO4 9774   2.223  13.083  10.039  0.0465  0.0913  0.2444
  612POPI   GL1 9775   2.357  12.903   9.685 -0.1346  0.4756  0.0394
  612POPI   GL2 9776   2.573  12.628   9.524  0.2406 -0.0342 -0.1302
  612POPI   C1A 9777   1.997  12.742   9.440  0.2364 -0.1362  0.0768
  612POPI   D2A 9778   1.826  12.661   8.955  0.0116  0.0836 -0.1541
  612POPI   C3A 9779   1.825  12.371   8.572 -0.1483 -0.2996 -0.0755
  612POPI   C4A 9780   1.541  12.151   8.348 -0.3614 -0.1944 -0.1764
  612POPI   C1B 9781   2.468  12.667   9.175  0.3132 -0.1255  0.0516
  612POPI   C2B 9782   2.291  12.745   8.727  0.1330 -0.0996  0.0840
  612POPI   C3B 9783   2.332  12.734   8.211 -0.0005 -0.0376 -0.4092
  612POPI   C4B 9784   2.468  12.760   7.786  0.0407 -0.0064 -0.1798
  613POPI    C1 9785  11.526  15.513   9.246 -0.0238 -0.1308 -0.2075
  613POPI    C2 9786  11.565  15.779   9.543  0.1631 -0.2109 -0.1592
  613POPI    C3 9787  11.230  15.563   9.511  0.0260  0.0017 -0.1761
  613POPI   PO4 9788  11.559  15.602   9.059  0.0245 -0.0037 -0.1310
  613POPI   GL1 9789  11.924  15.663   8.877  0.1774  0.0907 -0.3336
  613POPI   GL2 9790  12.250  15.921   8.697  0.1309 -0.0571  0.5277
  613POPI   C1A 9791  11.948  15.441   8.483 -0.0723  0.0717  0.0942
  613POPI   D2A 9792  12.175  15.440   8.194 -0.0030 -0.0987  0.0612
  613POPI   C3A 9793  12.527  15.551   7.871  0.1927  0.0867 -0.1565
  613POPI   C4A 9794  12.791  15.378   7.569  0.2274  0.0931  0.1548
  613POPI   C1B 9795  12.414  15.892   8.322  0.0542 -0.3264 -0.1837
  613POPI   C2B 9796  12.529  16.005   7.916 -0.1442 -0.5135  0.1706
  613POPI   C3B 9797  12.596  15.865   7.459 -0.1114  0.2877 -0.4302
  613POPI   C4B 9798  12.554  15.607   7.095  0.3362 -0.2375  0.1759
  614POPI    C1 9799   4.794   9.974   9.817  0.1260 -0.0888 -0.2675
  614POPI    C2 9800   4.918  10.344   9.729  0.0149  0.0396  0.0988
  614POPI    C3 9801   4.820  10.250  10.105  0.4056 -0.4690  0.0837
  614POPI   PO4 9802   4.614   9.947   9.604  0.0633 -0.1260  0.2949
  614POPI   GL1 9803   4.330   9.681   9.392 -0.0515 -0.2402  0.1392
  614POPI   GL2 9804   4.112   9.927   9.440 -0.2888 -0.0058 -0.1591
  614POPI   C1A 9805   4.359   9.685   8.960  0.4183  0.1087  0.2808
  614POPI   D2A 9806   4.286   9.686   8.497 -0.0681 -0.2425 -0.1072
  614POPI   C3A 9807   4.501   9.493   8.191  0.2403  0.0717 -0.3112
  614POPI   C4A 9808   4.560   9.520   7.748 -0.1814  0.3291 -0.1401
  614POPI   C1B 9809   4.175  10.099   9.079 -0.4344  0.1651  0.2574
  614POPI   C2B 9810   4.177  10.199   8.620  0.1670 -0.1394  0.0110
  614POPI   C3B 9811   3.904  10.118   8.281  0.1816 -0.2719 -0.1750
  614POPI   C4B 9812   3.852  10.067   7.796 -0.0480  0.0429  0.1258
  615POPI    C1 9813   5.063   5.335  10.051  0.4163  0.4781 -0.0315
  615POPI    C2 9814   4.845   5.562  10.298 -0.0173  0.0528 -0.0075
  615POPI    C3 9815   5.193   5.409  10.422 -0.1067  0.0539  0.2505
  615POPI   PO4 9816   4.934   5.481   9.774  0.2088 -0.1052  0.2251
  615POPI   GL1 9817   4.993   5.802   9.507  0.2679  0.2377  0.2335
  615POPI   GL2 9818   5.060   5.517   9.272 -0.0865  0.0855  0.1186
  615POPI   C1A 9819   5.090   5.893   8.922  0.0661 -0.3193 -0.3996
  615POPI   D2A 9820   5.113   5.823   8.482  0.0429  0.0788  0.3046
  615POPI   C3A 9821   4.933   6.072   8.185  0.2394 -0.0492  0.0208
  615POPI   C4A 9822   4.865   6.447   7.942  0.2849  0.5059  0.1571
  615POPI   C1B 9823   4.740   5.571   8.967  0.3493 -0.0995  0.1512
  615POPI   C2B 9824   4.726   5.417   8.463  0.0761 -0.0177 -0.2542
  615POPI   C3B 9825   4.917   5.447   8.116 -0.0466 -0.3806 -0.2438
  615POPI   C4B 9826   4.826   5.061   7.839 -0.1496  0.2603 -0.0227
  616POPI    C1 9827   6.481  15.828   9.546 -0.0207 -0.2721  0.1749
  616POPI    C2 9828   6.220  16.079   9.377  0.1558 -0.4168 -0.3286
  616POPI    C3 9829   6.513  16.222   9.609 -0.1705 -0.2269 -0.0225
  616POPI   PO4 9830   6.556  15.729   9.296 -0.2691 -0.0239 -0.0696
  616POPI   GL1 9831   6.378  15.583   8.939  0.1262 -0.0292  0.0883
  616POPI   GL2 9832   6.081  15.714   9.104  0.1694 -0.0411  0.4860
  616POPI   C1A 9833   6.443  15.856   8.483  0.0231  0.3866 -0.2487
  616POPI   D2A 9834   6.400  16.148   8.280 -0.0377 -0.1018 -0.0220
  616POPI   C3A 9835   6.741  16.408   8.013  0.2100 -0.0127 -0.1446
  616POPI   C4A 9836   6.707  16.667   7.619 -0.1578 -0.4842  0.2615
  616POPI   C1B 9837   5.889  15.700   8.745 -0.0069  0.2755 -0.0706
  616POPI   C2B 9838   6.009  15.730   8.288  0.1570 -0.1338 -0.0375
  616POPI   C3B 9839   6.200  15.814   7.892 -0.0361 -0.2691 -0.1953
  616POPI   C4B 9840   6.534  15.950   7.862  0.2110  0.0736  0.0618
  617POPI    C1 9841  10.089  17.934   9.152  0.0661  0.2683 -0.1739
  617POPI    C2 9842   9.890  17.927   9.499 -0.0231 -0.3642 -0.2259
  617POPI    C3 9843  10.169  18.206   9.434 -0.0736 -0.1775  0.3120
  617POPI   PO4 9844   9.936  18.000   8.954  0.0808  0.1466 -0.0557
  617POPI   GL1 9845   9.990  17.944   8.485 -0.1769  0.4847  0.1120
  617POPI   GL2 9846  10.274  17.701   8.363  0.3248 -0.0037 -0.2083
  617POPI   C1A 9847   9.887  18.020   8.097  0.1741  0.0162 -0.2382
  617POPI   D2A 9848   9.808  17.908   7.715 -0.1794 -0.0554  0.1673
  617POPI   C3A 9849  10.008  17.540   7.526  0.1053  0.1196  0.2008
  617POPI   C4A 9850  10.207  17.478   7.130  0.1041  0.2382  0.0270
  617POPI   C1B 9851  10.241  17.596   7.958 -0.0706 -0.1014  0.2172
  617POPI   C2B 9852  10.487  17.597   7.556 -0.0685  0.0326  0.2878
  617POPI   C3B 9853  10.891  17.601   7.302  0.0909 -0.0678 -0.0821
  617POPI   C4B 9854  11.112  17.933   7.162 -0.1855  0.0517  0.0886
  618POPI    C1 9855  13.226   8.580  10.184 -0.0758  0.0817 -0.1711
  618POPI    C2 9856  13.041   8.525  10.535  0.2208 -0.0911 -0.0375
  618POPI    C3 9857  12.930   8.826  10.295 -0.0885 -0.0652  0.1322
  618POPI   PO4 9858  13.164   8.373  10.057  0.2187 -0.5229  0.2230
  618POPI   GL1 9859  13.128   8.404   9.628  0.0938 -0.1686  0.0139
  618POPI   GL2 9860  13.111   8.694   9.515  0.3186  0.1838  0.1305
  618POPI   C1A 9861  13.155   8.210   9.309  0.4351  0.0580 -0.0639
  618POPI   D2A 9862  13.367   8.022   9.017  0.1058 -0.0942  0.1386
  618POPI   C3A 9863  13.263   8.014   8.637 -0.1283  0.3901 -0.0799
  618POPI   C4A 9864  13.107   8.051   8.300 -0.0817 -0.3029 -0.1200
  618POPI   C1B 9865  13.055   8.687   9.186 -0.0299 -0.0091  0.0975
  618POPI   C2B 9866  13.019   8.602   8.728  0.2742 -0.1658 -0.1125
  618POPI   C3B 9867  13.083   8.607   8.354  0.0744  0.0790 -0.2985
  618POPI   C4B 9868  13.219   8.454   8.066  0.0856  0.1780  0.0830
  619POPI    C1 9869  14.568   5.467  10.207 -0.2133 -0.1338 -0.0214
  619POPI    C2 9870  14.660   5.856  10.189 -0.0115 -0.1681  0.2086
  619POPI    C3 9871  14.400   5.724  10.463 -0.0276 -0.2051  0.1757
  619POPI   PO4 9872  14.490   5.405   9.980  0.0215  0.2071 -0.1292
  619POPI   GL1 9873  14.556   5.542   9.577 -0.0802  0.4116  0.1562
  619POPI   GL2 9874  14.445   5.712   9.475  0.1009  0.0976 -0.1576
  619POPI   C1A 9875  14.764   5.224   9.231  0.1161 -0.0074  0.0580
  619POPI   D2A 9876  14.814   5.074   8.873 -0.2523 -0.1665 -0.2295
  619POPI   C3A 9877  14.595   5.026   8.598 -0.3393  0.4253  0.3425
  619POPI   C4A 9878  14.570   5.131   8.213  0.1826 -0.2273  0.1661
  619POPI   C1B 9879  14.589   5.677   9.077  0.0779 -0.1014  0.1640
  619POPI   C2B 9880  14.466   5.448   8.826  0.0923 -0.0576 -0.1152
  619POPI   C3B 9881  14.223   5.462   8.403  0.2169  0.0359 -0.0182
  619POPI   C4B 9882  14.290   5.436   7.960  0.2478  0.1486 -0.1078
  620POPI    C1 9883  16.278  14.010   9.894  0.0100  0.1696  0.0856
  620POPI    C2 9884  16.003  13.930  10.173 -0.1483  0.1349 -0.0780
  620POPI    C3 9885  16.353  13.735  10.175 -0.0717  0.2691  0.2054
  620POPI   PO4 9886  16.200  13.968   9.719  0.0104  0.1031 -0.0801
  620POPI   GL1 9887  16.355  13.575   9.579  0.1637 -0.0088 -0.0401
  620POPI   GL2 9888  16.200  13.324   9.474 -0.2867 -0.0143 -0.1298
  620POPI   C1A 9889  16.735  13.527   9.404 -0.0132  0.1428 -0.1291
  620POPI   D2A 9890  16.740  13.466   8.988 -0.0324  0.5165 -0.4415
  620POPI   C3A 9891  16.725  13.770   8.825  0.0675 -0.0251 -0.0162
  620POPI   C4A 9892  16.547  13.691   8.466  0.0019 -0.1616  0.0654
  620POPI   C1B 9893  16.336  13.189   9.166 -0.2782  0.2716 -0.1120
  620POPI   C2B 9894  16.484  13.019   8.807 -0.1090  0.2639 -0.1345
  620POPI   C3B 9895  16.483  13.204   8.347 -0.0053 -0.2740  0.1477
  620POPI   C4B 9896  16.398  13.307   7.934  0.1567  0.1744 -0.1003
  621POPI    C1 9897  11.947  15.403   9.559 -0.1251 -0.1415  0.0887
  621POPI    C2 9898  11.610  15.299   9.749 -0.2825  0.1376 -0.0326
  621POPI    C3 9899  11.893  15.505   9.942 -0.2206 -0.0163  0.0423
  621POPI   PO4 9900  11.999  15.283   9.343 -0.0442  0.0616 -0.2284
  621POPI   GL1 9901  12.322  15.277   9.179  0.2556  0.2502  0.1772
  621POPI   GL2 9902  12.209  15.175   8.862 -0.2961  0.3483  0.2240
  621POPI   C1A 9903  12.507  15.532   8.762 -0.2191 -0.0225  0.1243
  621POPI   D2A 9904  12.783  15.425   8.431  0.2601  0.1552  0.0433
  621POPI   C3A 9905  12.620  15.048   8.123 -0.2363 -0.1663 -0.0702
  621POPI   C4A 9906  12.498  14.988   7.692  0.3446  0.3647  0.1148
  621POPI   C1B 9907  12.180  15.001   8.522 -0.0171 -0.0113 -0.0301
  621POPI   C2B 9908  12.078  15.018   8.049 -0.0085  0.0962  0.2340
  621POPI   C3B 9909  12.007  15.020   7.507 -0.0775 -0.1169 -0.1761
  621POPI   C4B 9910  11.977  15.208   7.128 -0.2173  0.1613  0.1987
  622POPI    C1 9911   3.139   0.752   9.439 -0.0433  0.1712  0.0465
  622POPI    C2 9912   3.357   0.430   9.536  0.1429  0.2198 -0.2005
  622POPI    C3 9913   3.372   0.759   9.764 -0.0031  0.0758  0.0202
  622POPI   PO4 9914   3.152   0.774   9.081 -0.2604 -0.2822 -0.1680
  622POPI   GL1 9915   2.987   0.971   8.683  0.0087 -0.4509 -0.1594
  622POPI   GL2 9916   3.270   0.830   8.608 -0.4429  0.0861  0.1186
  622POPI   C1A 9917   2.728   0.843   8.339  0.0670  0.0338 -0.2158
  622POPI   D2A 9918   2.375   0.929   7.972  0.2048 -0.3684 -0.2166
  622POPI   C3A 9919   2.566   0.827   7.587 -0.0036  0.3945 -0.0100
  622POPI   C4A 9920   2.580   0.804   7.154 -0.1560  0.3472  0.3080
  622POPI   C1B 9921   3.246   0.793   8.188 -0.0212 -0.0009  0.2412
  622POPI   C2B 9922   3.273   0.696   7.706  0.2661  0.0970  0.0204
  622POPI   C3B 9923   3.067   0.864   7.382 -0.3294 -0.3078 -0.0537
  622POPI   C4B 9924   3.028   0.835   6.921  0.0063 -0.2269 -0.3460
  623POPI    C1 9925   4.925   7.979   9.866  0.0330 -0.1339  0.0642
  623POPI    C2 9926   4.933   8.287   9.610  0.1933  0.0192  0.2496
  623POPI    C3 9927   4.619   8.236   9.853 -0.0191 -0.2016 -0.0632
  623POPI   PO4 9928   5.106   7.863   9.802  0.4169  0.0795  0.0882
  623POPI   GL1 9929   5.513   7.934   9.561 -0.2447  0.4083  0.0174
  623POPI   GL2 9930   5.161   7.919   9.296 -0.2859 -0.3247  0.1530
  623POPI   C1A 9931   5.848   7.667   9.304  0.1000 -0.1746  0.2927
  623POPI   D2A 9932   5.740   7.411   8.950 -0.1541 -0.3283  0.0873
  623POPI   C3A 9933   5.661   7.507   8.630  0.1017  0.1508 -0.3061
  623POPI   C4A 9934   5.492   7.306   8.395  0.0162 -0.2913  0.0256
  623POPI   C1B 9935   5.465   7.897   8.891  0.1613 -0.1360 -0.0914
  623POPI   C2B 9936   5.362   7.917   8.463 -0.2597  0.1164 -0.1812
  623POPI   C3B 9937   5.413   7.703   8.055  0.0678  0.2461  0.0909
  623POPI   C4B 9938   5.446   7.950   7.603 -0.2505 -0.0439 -0.1231
  624POPI    C1 9939  10.223   2.186   9.489 -0.2481 -0.2122 -0.2805
  624POPI    C2 9940  10.113   2.512   9.286  0.0532 -0.0088 -0.1257
  624POPI    C3 9941  10.013   2.473   9.671  0.1763 -0.0112 -0.0938
  624POPI   PO4 9942  10.214   2.006   9.248 -0.1498 -0.1333  0.3776
  624POPI   GL1 9943  10.261   2.032   8.894  0.1941  0.0139  0.0978
  624POPI   GL2 9944  10.415   1.849   8.771 -0.1825 -0.0323  0.4170
  624POPI   C1A 9945  10.103   2.186   8.514 -0.0698 -0.1215 -0.1171
  624POPI   D2A 9946   9.901   2.324   8.265 -0.2823 -0.2043  0.2998
  624POPI   C3A 9947   9.854   2.303   7.856  0.0878  0.1914  0.0453
  624POPI   C4A 9948   9.708   2.342   7.486 -0.2124 -0.1804  0.1118
  624POPI   C1B 9949  10.401   1.785   8.396 -0.1500  0.2433  0.1364
  624POPI   C2B 9950  10.206   1.965   7.998  0.0097 -0.0441  0.0081
  624POPI   C3B 9951  10.310   2.072   7.617 -0.3705  0.4039  0.0292
  624POPI   C4B 9952  10.233   2.464   7.489 -0.2707 -0.0892 -0.0482
  625DPPI    C1 9953   1.502   4.594   9.980 -0.0361  0.1436  0.0143
  625DPPI    C2 9954   1.852   4.403  10.014 -0.1017  0.0852  0.4075
  625DPPI    C3 9955   1.843   4.803  10.000  0.0176  0.0758 -0.1756
  625DPPI   PO4 9956   1.282   4.540   9.842  0.1796  0.3221  0.0332
  625DPPI   GL1 9957   1.175   4.520   9.424 -0.0890 -0.1956 -0.1832
  625DPPI   GL2 9958   1.130   4.095   9.407  0.0130  0.1636  0.3245
  625DPPI   C1A 9959   1.104   4.611   9.004 -0.1964 -0.1320 -0.2486
  625DPPI   C2A 9960   1.197   4.536   8.622 -0.0175  0.5058 -0.3072
  625DPPI   C3A 9961   1.030   4.749   8.299 -0.1494  0.5729  0.3216
  625DPPI   C4A 9962   0.732   5.029   8.147  0.0644  0.0178 -0.2187
  625DPPI   C1B 9963   1.260   4.115   8.934 -0.1940 -0.1131  0.5714
  625DPPI   C2B 9964   1.259   4.010   8.458  0.3797 -0.0678 -0.0467
  625DPPI   C3B 9965   1.317   3.948   8.047 -0.5163  0.4079 -0.2196
  625DPPI   C4B 9966   1.598   4.188   7.671 -0.0115 -0.1272  0.2595
  626DPPI    C1 9967   6.750   1.153   9.391  0.0599  0.0131 -0.2307
  626DPPI    C2 9968   6.958   0.981   9.686 -0.1511  0.0990 -0.0287
  626DPPI    C3 9969   6.576   0.879   9.624 -0.1811  0.2602 -0.1143
  626DPPI   PO4 9970   6.895   1.125   9.200  0.0586 -0.2548 -0.2606
  626DPPI   GL1 9971   6.893   1.396   8.771  0.2452  0.3394  0.0077
  626DPPI   GL2 9972   6.542   1.327   8.739  0.0532  0.0084  0.1290
  626DPPI   C1A 9973   7.004   1.383   8.422 -0.0831 -0.0452 -0.0726
  626DPPI   C2A 9974   7.121   1.356   8.025  0.2988  0.0569 -0.0069
  626DPPI   C3A 9975   7.441   1.311   7.757 -0.0188  0.2210  0.1518
  626DPPI   C4A 9976   7.470   1.166   7.388 -0.0397  0.0810 -0.0740
  626DPPI   C1B 9977   6.494   1.420   8.318  0.0832 -0.0610 -0.1271
  626DPPI   C2B 9978   6.653   1.255   7.923 -0.1147 -0.0263 -0.0272
  626DPPI   C3B 9979   6.634   1.060   7.468 -0.0944 -0.4588  0.0348
  626DPPI   C4B 9980   6.485   1.060   6.985 -0.1532  0.2256  0.0271
  627DPPI    C1 9981   6.750  17.805   9.487  0.2979 -0.0951 -0.0119
  627DPPI    C2 9982   6.688  17.611   9.831  0.0235 -0.0770 -0.0483
  627DPPI    C3 9983   6.765  18.003   9.834 -0.0442 -0.0639 -0.0115
  627DPPI   PO4 9984   6.544  17.678   9.307  0.1939 -0.0854 -0.0470
  627DPPI   GL1 9985   6.313  17.804   8.917 -0.1782 -0.1578  0.0547
  627DPPI   GL2 9986   6.037  17.967   8.757 -0.1195  0.1268  0.1984
  627DPPI   C1A 9987   6.272  17.577   8.446  0.1563 -0.1450  0.0844
  627DPPI   C2A 9988   6.157  17.442   8.117 -0.1272  0.0234 -0.0288
  627DPPI   C3A 9989   6.088  17.308   7.731 -0.1961 -0.0599 -0.0463
  627DPPI   C4A 9990   6.107  17.377   7.314  0.2227  0.1876  0.0138
  627DPPI   C1B 9991   5.939  17.929   8.309  0.0700  0.1864  0.1927
  627DPPI   C2B 9992   5.899  17.918   7.900  0.2460 -0.0236 -0.0446
  627DPPI   C3B 9993   5.950  17.839   7.521 -0.1218  0.0236  0.2385
  627DPPI   C4B 9994   6.125  18.021   7.109  0.0907 -0.1718 -0.3661
  628DPPI    C1 9995  13.079  18.944   9.887 -0.1019 -0.1466  0.2474
  628DPPI    C2 9996  12.936  19.280  10.051  0.2199  0.0923  0.0508
  628DPPI    C3 9997  13.186  19.046  10.259  0.0101 -0.0185  0.1811
  628DPPI   PO4 9998  13.061  19.005   9.625 -0.3942  0.2591  0.0123
  628DPPI   GL1 9999  12.742  19.126   9.205 -0.2015 -0.2365 -0.4111
  628DPPI   GL210000  12.424  19.006   9.039  0.0622  0.0875  0.2446
  628DPPI   C1A10001  12.953  19.131   8.808  0.0337 -0.1178 -0.3704
  628DPPI   C2A10002  12.941  19.114   8.314  0.1423  0.1402 -0.1395
  628DPPI   C3A10003  12.723  19.227   7.926  0.1536  0.1173  0.0300
  628DPPI   C4A10004  12.595  19.053   7.540  0.0598 -0.0199 -0.0170
  628DPPI   C1B10005  12.448  18.959   8.729  0.1326 -0.0139 -0.1426
  628DPPI   C2B10006  12.384  19.127   8.311 -0.0270 -0.1697  0.2424
  628DPPI   C3B10007  12.295  19.449   8.037 -0.2942  0.2887 -0.0298
  628DPPI   C4B10008  12.438  19.509   7.538 -0.2420  0.0395  0.2884
  629DPPI    C110009  12.164  13.754   9.620 -0.1506 -0.0206  0.1561
  629DPPI    C210010  11.806  13.921   9.681 -0.0583  0.1773  0.1634
  629DPPI    C310011  12.037  13.823   9.993 -0.1512 -0.0533  0.1621
  629DPPI   PO410012  12.132  13.532   9.339  0.1627 -0.2688 -0.3365
  629DPPI   GL110013  12.329  13.246   9.021 -0.0795 -0.2515 -0.0790
  629DPPI   GL210014  12.506  13.541   8.947 -0.0739  0.0856 -0.1971
  629DPPI   C1A10015  12.309  12.938   8.675  0.2655  0.2741 -0.1217
  629DPPI   C2A10016  12.525  12.963   8.315  0.1834 -0.0612 -0.0525
  629DPPI   C3A10017  12.951  12.708   8.097 -0.2630 -0.0062 -0.0922
  629DPPI   C4A10018  12.997  12.525   7.747 -0.2049  0.2381 -0.0332
  629DPPI   C1B10019  12.673  13.730   8.597 -0.0680 -0.0350  0.0232
  629DPPI   C2B10020  12.868  13.738   8.226 -0.2349  0.0406 -0.2484
  629DPPI   C3B10021  12.815  13.733   7.774  0.1463 -0.0064 -0.1981
  629DPPI   C4B10022  12.747  13.397   7.465  0.3189 -0.2547  0.3274
  630DPPI    C110023   9.939   6.595  10.020  0.0102  0.1546 -0.1566
  630DPPI    C210024  10.126   6.361  10.285  0.1882  0.4694  0.0025
  630DPPI    C310025   9.753   6.487  10.357 -0.0996 -0.1567 -0.3137
  630DPPI   PO410026  10.101   6.495   9.786 -0.2167  0.1719  0.0886
  630DPPI   GL110027   9.914   6.510   9.369 -0.0581  0.1265  0.0118
  630DPPI   GL210028   9.607   6.553   9.433  0.2217  0.0016 -0.2251
  630DPPI   C1A10029  10.182   6.286   9.086  0.3043 -0.2185 -0.0030
  630DPPI   C2A10030  10.182   6.231   8.713  0.1003 -0.0449  0.0768
  630DPPI   C3A10031  10.413   6.193   8.338  0.0857  0.2785  0.0851
  630DPPI   C4A10032  10.451   6.267   7.831 -0.0600 -0.1837  0.1184
  630DPPI   C1B10033   9.343   6.733   9.039 -0.5623 -0.0596 -0.1167
  630DPPI   C2B10034   9.346   6.678   8.578 -0.1522  0.2441 -0.3620
  630DPPI   C3B10035   9.148   6.502   8.263  0.7586 -0.1326 -0.0546
  630DPPI   C4B10036   9.068   6.505   7.811  0.1121  0.2601 -0.0622
  631DPPI    C110037  11.691  12.122   9.534 -0.0390 -0.1680  0.0092
  631DPPI    C210038  11.825  12.357   9.828 -0.0959  0.2082 -0.2593
  631DPPI    C310039  11.432  12.312   9.772 -0.0859  0.2166 -0.3377
  631DPPI   PO410040  11.895  12.010   9.429  0.1760  0.0365  0.0388
  631DPPI   GL110041  11.819  12.019   8.929  0.0545  0.0889 -0.1395
  631DPPI   GL210042  11.765  12.352   8.957  0.2492  0.2232 -0.2936
  631DPPI   C1A10043  11.516  12.185   8.577  0.4453  0.3045 -0.0440
  631DPPI   C2A10044  11.510  12.141   8.125  0.0994 -0.2428  0.0501
  631DPPI   C3A10045  11.437  12.078   7.678  0.0497  0.0198 -0.1991
  631DPPI   C4A10046  11.543  11.940   7.387 -0.2973 -0.1276 -0.0044
  631DPPI   C1B10047  12.214  12.369   8.827  0.0191 -0.1049 -0.0023
  631DPPI   C2B10048  12.384  12.460   8.441  0.0163  0.0604  0.1207
  631DPPI   C3B10049  12.614  12.318   8.077  0.0071  0.0234 -0.0049
  631DPPI   C4B10050  12.686  11.992   7.783 -0.1719 -0.0894 -0.2320
  632DPPI    C110051  19.130  13.725  10.159 -0.1819 -0.0752  0.0922
  632DPPI    C210052  18.732  13.692  10.164 -0.1972  0.0989  0.0577
  632DPPI    C310053  18.928  13.805  10.494 -0.1886  0.1423  0.0379
  632DPPI   PO410054  19.214  13.555   9.965  0.2525 -0.0760  0.0430
  632DPPI   GL110055  19.283  13.462   9.611 -0.0449 -0.1993 -0.0848
  632DPPI   GL210056  18.997  13.255   9.490 -0.2694 -0.0100  0.0884
  632DPPI   C1A10057  19.390  13.722   9.233 -0.3972 -0.0316 -0.0194
  632DPPI   C2A10058  19.318  13.692   8.778  0.2531  0.1560 -0.0351
  632DPPI   C3A10059  19.246  13.637   8.408 -0.2863  0.0381  0.2186
  632DPPI   C4A10060  19.031  13.682   8.030  0.2303 -0.0751  0.6519
  632DPPI   C1B10061  18.817  12.987   9.172  0.0267 -0.0342 -0.0373
  632DPPI   C2B10062  18.717  13.026   8.698 -0.1325 -0.3948  0.3462
  632DPPI   C3B10063  18.623  12.840   8.249 -0.0745 -0.1493  0.4556
  632DPPI   C4B10064  18.389  12.590   7.907 -0.0410 -0.1147 -0.2738
  633DPPI    C110065  16.442   2.252  10.315 -0.1373 -0.0504  0.0383
  633DPPI    C210066  16.045   2.291  10.346 -0.1165  0.1302  0.0888
  633DPPI    C310067  16.256   2.135  10.649 -0.1601 -0.0615  0.0218
  633DPPI   PO410068  16.436   2.143  10.056  0.0134 -0.1159 -0.2164
  633DPPI   GL110069  16.181   1.997   9.769 -0.0674 -0.1823  0.1093
  633DPPI   GL210070  15.874   1.955   9.489  0.0001 -0.0555 -0.0110
  633DPPI   C1A10071  16.296   1.942   9.302  0.0471  0.5192  0.3650
  633DPPI   C2A10072  16.443   1.819   8.864 -0.0879 -0.1427  0.1845
  633DPPI   C3A10073  16.495   1.653   8.472 -0.0381  0.1173  0.2543
  633DPPI   C4A10074  16.525   1.503   8.150 -0.2129  0.2422  0.0094
  633DPPI   C1B10075  15.567   1.851   9.194  0.1196  0.1489  0.1732
  633DPPI   C2B10076  15.496   1.762   8.828  0.3573 -0.0741 -0.0786
  633DPPI   C3B10077  15.492   1.905   8.437  0.0168  0.0822 -0.0611
  633DPPI   C4B10078  15.678   1.847   8.072 -0.1400 -0.2495  0.1464
  634DPPI    C110079   2.389   5.294   9.873  0.1620  0.0319  0.0516
  634DPPI    C210080   2.274   4.971  10.079  0.0523 -0.0459 -0.1283
  634DPPI    C310081   2.043   5.298  10.074 -0.0265 -0.1026 -0.2603
  634DPPI   PO410082   2.464   5.228   9.662  0.3386 -0.0319 -0.0632
  634DPPI   GL110083   2.335   5.275   9.258 -0.0910 -0.3564  0.0040
  634DPPI   GL210084   2.369   5.605   9.076  0.0455 -0.0720 -0.1249
  634DPPI   C1A10085   2.571   5.144   8.890  0.1137 -0.1004 -0.0944
  634DPPI   C2A10086   2.645   5.020   8.523  0.1627  0.0696 -0.0115
  634DPPI   C3A10087   2.806   4.915   8.178 -0.0420  0.0872 -0.1985
  634DPPI   C4A10088   2.983   4.508   8.024  0.3843 -0.0587  0.2764
  634DPPI   C1B10089   2.238   5.458   8.631 -0.4391 -0.3347  0.0812
  634DPPI   C2B10090   2.296   5.596   8.192  0.2937  0.1981  0.0261
  634DPPI   C3B10091   1.990   5.562   7.739 -0.2792 -0.1876  0.1996
  634DPPI   C4B10092   1.909   5.720   7.327 -0.2656  0.1365  0.1991
  635PYPI    C110093  14.631   8.660  10.201 -0.1404 -0.0568 -0.1750
  635PYPI    C210094  14.743   8.341   9.988  0.0822 -0.0663 -0.0466
  635PYPI    C310095  14.605   8.295  10.361 -0.1134 -0.0322 -0.1140
  635PYPI   PO410096  14.715   8.836  10.066 -0.1325  0.2487  0.1409
  635PYPI   GL110097  14.710   8.801   9.696  0.1258  0.5187  0.2732
  635PYPI   GL210098  14.880   8.654   9.580 -0.0746 -0.0479 -0.2492
  635PYPI   C1A10099  14.598   8.736   9.167  0.0268 -0.1893  0.1578
  635PYPI   C2A10100  14.622   8.561   8.793  0.3445  0.1099 -0.3636
  635PYPI   D3A10101  14.631   8.385   8.481  0.1218  0.1362  0.1093
  635PYPI   C4A10102  14.777   8.229   8.072 -0.3185  0.1238  0.1595
  635PYPI   C1B10103  15.100   8.654   9.192  0.1618  0.2584 -0.0472
  635PYPI   C2B10104  15.194   8.711   8.697  0.0468  0.1808  0.0638
  635PYPI   C3B10105  15.049   8.615   8.328  0.0900 -0.0270 -0.0815
  635PYPI   C4B10106  15.090   8.725   7.922 -0.4343 -0.0486 -0.1606
  636PYPI    C110107   7.242   8.738   9.599  0.0954  0.1643  0.3694
  636PYPI    C210108   7.609   8.636   9.721  0.0103 -0.2939  0.2620
  636PYPI    C310109   7.303   8.632   9.980  0.0722  0.0694  0.3469
  636PYPI   PO410110   7.184   8.668   9.376 -0.1469 -0.1007 -0.2975
  636PYPI   GL110111   7.173   8.998   9.029  0.0427  0.1498 -0.2027
  636PYPI   GL210112   6.877   9.096   9.238 -0.1001 -0.1686 -0.4900
  636PYPI   C1A10113   7.201   8.843   8.613 -0.1572  0.0674 -0.0543
  636PYPI   C2A10114   7.294   8.514   8.287 -0.0113  0.2443 -0.5542
  636PYPI   D3A10115   7.454   8.399   7.902  0.0117  0.2007 -0.3065
  636PYPI   C4A10116   7.297   8.777   7.525  0.1246 -0.2236  0.2885
  636PYPI   C1B10117   6.812   9.149   8.713  0.0845 -0.0110  0.1243
  636PYPI   C2B10118   6.992   9.232   8.365  0.0764 -0.0053 -0.1463
  636PYPI   C3B10119   7.228   8.990   8.027  0.2044  0.1574 -0.0264
  636PYPI   C4B10120   6.883   8.914   7.709 -0.0172 -0.0840 -0.1431
  637PYPI    C110121   5.777   3.568   9.536  0.0697 -0.0081 -0.0998
  637PYPI    C210122   6.030   3.339   9.326 -0.0147 -0.1479 -0.0504
  637PYPI    C310123   5.807   3.177   9.616  0.0676  0.0351  0.1176
  637PYPI   PO410124   5.583   3.663   9.404 -0.1822  0.1352  0.1671
  637PYPI   GL110125   5.607   3.949   9.007  0.0819  0.2036  0.2385
  637PYPI   GL210126   5.787   4.115   8.937 -0.1589  0.2149 -0.0372
  637PYPI   C1A10127   5.421   4.323   8.753  0.2296  0.4550  0.1198
  637PYPI   C2A10128   5.302   4.422   8.282 -0.0324  0.1577  0.0643
  637PYPI   D3A10129   5.076   4.640   7.941  0.2414  0.1179 -0.1129
  637PYPI   C4A10130   5.082   4.704   7.476 -0.3125 -0.1470 -0.3445
  637PYPI   C1B10131   5.832   4.078   8.522 -0.2842  0.3473  0.2974
  637PYPI   C2B10132   5.770   4.151   8.169 -0.2074  0.1173  0.1571
  637PYPI   C3B10133   5.787   4.490   7.933  0.0986  0.0422  0.3224
  637PYPI   C4B10134   5.612   4.534   7.558  0.0697 -0.2022 -0.0795
  638PYPI    C110135   0.949  11.999  10.117  0.1935  0.0994  0.1085
  638PYPI    C210136   1.198  11.710  10.238  0.2427  0.1864  0.2175
  638PYPI    C310137   0.942  11.874  10.497  0.0649  0.0918  0.1040
  638PYPI   PO410138   0.773  11.873   9.954  0.1617  0.2812  0.0779
  638PYPI   GL110139   0.693  11.939   9.570 -0.0721 -0.1836 -0.0726
  638PYPI   GL210140   0.396  12.069   9.556 -0.0991 -0.1500  0.0263
  638PYPI   C1A10141   1.043  11.840   9.175 -0.2256 -0.2450  0.0147
  638PYPI   C2A10142   1.205  11.836   8.740 -0.3248  0.1544  0.2808
  638PYPI   D3A10143   1.274  11.662   8.259  0.1696 -0.2311 -0.1457
  638PYPI   C4A10144   1.003  11.865   7.900  0.0699 -0.0288  0.2737
  638PYPI   C1B10145   0.465  12.059   9.109  0.0453 -0.0169  0.1209
  638PYPI   C2B10146   0.695  11.926   8.715  0.2353  0.1682 -0.0834
  638PYPI   C3B10147   0.828  11.765   8.376  0.3678  0.0594  0.1962
  638PYPI   C4B10148   0.535  11.630   8.032 -0.0807  0.0769 -0.0356
  639PYPI    C110149  11.863  11.113   9.643  0.0475 -0.0242  0.1937
  639PYPI    C210150  11.902  11.511   9.626  0.2434 -0.0533 -0.1010
  639PYPI    C310151  11.538  11.345   9.618  0.1575  0.1213  0.0989
  639PYPI   PO410152  12.050  11.046   9.462 -0.1888  0.2574  0.4042
  639PYPI   GL110153  12.136  11.069   9.100  0.0239  0.0661 -0.1228
  639PYPI   GL210154  12.102  10.721   8.920 -0.0970 -0.1769 -0.2459
  639PYPI   C1A10155  12.216  11.379   8.700  0.1189 -0.1639  0.1470
  639PYPI   C2A10156  12.141  11.810   8.613 -0.0251 -0.0148 -0.0017
  639PYPI   D3A10157  12.008  12.168   8.396  0.2020  0.0837 -0.4315
  639PYPI   C4A10158  12.218  12.056   7.970 -0.0509 -0.1916 -0.3880
  639PYPI   C1B10159  11.879  10.602   8.515  0.2392  0.2266  0.0763
  639PYPI   C2B10160  11.607  10.519   8.101  0.0994 -0.1679 -0.1084
  639PYPI   C3B10161  11.286  10.581   7.791 -0.2570  0.1010  0.0957
  639PYPI   C4B10162  11.243  10.618   7.343  0.0452  0.0640  0.0695
  640PYPI    C110163  16.200   3.922   9.927  0.3266 -0.1157  0.2312
  640PYPI    C210164  16.552   3.853   9.752  0.0796 -0.0562 -0.3098
  640PYPI    C310165  16.451   4.225   9.857  0.2150 -0.0875 -0.0599
  640PYPI   PO410166  15.967   3.903   9.749  0.4908  0.0738 -0.1269
  640PYPI   GL110167  15.687   4.123   9.469  0.0670  0.1251 -0.0553
  640PYPI   GL210168  15.496   4.339   9.178 -0.0071 -0.1933  0.0074
  640PYPI   C1A10169  15.800   3.849   9.111 -0.0859  0.2930  0.2006
  640PYPI   C2A10170  15.657   3.647   8.721  0.1375 -0.0950 -0.2610
  640PYPI   D3A10171  15.535   3.576   8.301 -0.0840  0.0603 -0.1481
  640PYPI   C4A10172  15.772   3.665   7.872  0.4532  0.0460  0.0753
  640PYPI   C1B10173  15.721   4.147   8.763 -0.0350 -0.1119 -0.0340
  640PYPI   C2B10174  15.816   4.039   8.291  0.0814 -0.1371 -0.1185
  640PYPI   C3B10175  15.902   4.195   7.871 -0.0985  0.1991  0.0686
  640PYPI   C4B10176  15.983   4.027   7.534 -0.0400 -0.1456 -0.2344
  641ERGO   ROH10177   1.296  16.268   5.912 -0.0503 -0.0576  0.1162
  641ERGO    R110178   1.257  16.179   6.178  0.0267 -0.3204  0.0451
  641ERGO    R210179   1.416  15.986   6.295  0.4312 -0.0453 -0.0035
  641ERGO    R310180   1.450  16.176   6.487 -0.0954 -0.0668  0.1234
  641ERGO    R410181   1.424  15.925   6.635  0.2226 -0.1714 -0.0211
  641ERGO    R510182   1.308  16.106   6.666 -0.1356 -0.4016 -0.0414
  641ERGO    C110183   1.461  16.068   7.013 -0.3933 -0.2650  0.0878
  641ERGO    C210184   1.395  16.029   7.339  0.0539 -0.0422 -0.1373
  642ERGO   ROH10185   8.556  13.377   5.303 -0.0911 -0.2246 -0.0131
  642ERGO    R110186   8.391  13.378   5.533  0.1489 -0.2704  0.1621
  642ERGO    R210187   8.491  13.412   5.789  0.3624  0.2400  0.0165
  642ERGO    R310188   8.308  13.613   5.798 -0.0291 -0.0995 -0.0394
  642ERGO    R410189   8.314  13.506   6.070  0.4294  0.1789  0.0803
  642ERGO    R510190   8.138  13.532   5.945  0.2536 -0.2939  0.1987
  642ERGO    C110191   8.039  13.749   6.243  0.1010 -0.1755  0.0651
  642ERGO    C210192   8.134  13.916   6.404 -0.2618  0.0099 -0.0587
  643ERGO   ROH10193  18.379  10.348   6.045  0.1058  0.1397 -0.0681
  643ERGO    R110194  18.332  10.455   6.302 -0.0146  0.0989 -0.0746
  643ERGO    R210195  18.321  10.298   6.530  0.0300  0.0852 -0.0914
  643ERGO    R310196  18.510  10.472   6.619 -0.0957  0.1950 -0.0308
  643ERGO    R410197  18.404  10.346   6.862  0.2150 -0.2254 -0.0873
  643ERGO    R510198  18.419  10.560   6.822 -0.0558 -0.1485  0.1506
  643ERGO    C110199  18.630  10.538   7.139  0.2048 -0.3031 -0.0280
  643ERGO    C210200  18.786  10.531   7.427 -0.3027 -0.0429 -0.0204
  644ERGO   ROH10201  10.839   9.135   6.944 -0.0610  0.0608  0.2753
  644ERGO    R110202  11.108   9.216   6.905 -0.0930  0.1322  0.1992
  644ERGO    R210203  11.218   9.431   7.038 -0.0449  0.0206  0.3454
  644ERGO    R310204  11.406   9.249   7.111  0.0201 -0.0290  0.0625
  644ERGO    R410205  11.542   9.508   7.133  0.0071 -0.0369  0.2155
  644ERGO    R510206  11.611   9.335   7.020 -0.0448  0.0728  0.0138
  644ERGO    C110207  11.907   9.381   7.256  0.0986 -0.1168 -0.1257
  644ERGO    C210208  12.291   9.339   7.251 -0.1036 -0.1923 -0.3643
  645ERGO   ROH10209   0.083  13.328   6.314  0.1150  0.0703 -0.0647
  645ERGO    R110210   0.154  13.510   6.519  0.0697  0.0692 -0.0478
  645ERGO    R210211   0.168  13.436   6.785 -0.0181  0.0749 -0.0401
  645ERGO    R310212   0.419  13.539   6.766 -0.0026  0.0502  0.0320
  645ERGO    R410213   0.335  13.597   7.041 -0.1548  0.2443 -0.0561
  645ERGO    R510214   0.411  13.740   6.895 -0.0657  0.1397 -0.1121
  645ERGO    C110215   0.668  13.788   7.173 -0.2198  0.3197  0.0022
  645ERGO    C210216   1.098  13.699   7.201 -0.0592 -0.4021 -0.1214
  646ERGO   ROH10217  15.325  15.254   5.726  0.1712  0.1389  0.0765
  646ERGO    R110218  15.229  15.235   5.991  0.0688  0.0281  0.0325
  646ERGO    R210219  15.355  15.358   6.204 -0.1423  0.1337  0.0980
  646ERGO    R310220  15.109  15.467   6.245 -0.2663 -0.1023 -0.0012
  646ERGO    R410221  15.231  15.455   6.512 -0.2740  0.2070  0.0229
  646ERGO    R510222  15.037  15.373   6.454 -0.1842 -0.0432  0.0557
  646ERGO    C110223  14.928  15.612   6.730 -0.4673  0.0281 -0.1139
  646ERGO    C210224  14.617  15.823   6.852 -0.0543  0.1618  0.1682
  647ERGO   ROH10225  16.159   7.688   6.342 -0.3193 -0.1535  0.0218
  647ERGO    R110226  16.103   7.708   6.619 -0.2131 -0.1440  0.0427
  647ERGO    R210227  16.296   7.665   6.813 -0.1230 -0.0742 -0.0306
  647ERGO    R310228  16.220   7.912   6.898 -0.1558 -0.0877 -0.0217
  647ERGO    R410229  16.276   7.762   7.144  0.0722 -0.0265 -0.0317
  647ERGO    R510230  16.092   7.869   7.096 -0.0029 -0.1027  0.0762
  647ERGO    C110231  16.192   8.050   7.416  0.1550 -0.0112 -0.0240
  647ERGO    C210232  16.332   8.049   7.710  0.0376  0.3429  0.0402
  648ERGO   ROH10233  11.879   8.535   6.027  0.1300 -0.1002  0.0073
  648ERGO    R110234  12.048   8.571   6.251  0.1303 -0.1727  0.0190
  648ERGO    R210235  11.952   8.578   6.511  0.1070 -0.0677  0.0080
  648ERGO    R310236  12.136   8.381   6.550 -0.0237 -0.1811  0.0596
  648ERGO    R410237  12.140   8.537   6.798  0.0387 -0.1544  0.0410
  648ERGO    R510238  12.312   8.487   6.673  0.0263 -0.2789  0.0730
  648ERGO    C110239  12.422   8.329   7.002 -0.1238 -0.3113  0.1086
  648ERGO    C210240  12.583   8.328   7.275  0.4286  0.2291 -0.0191
  649ERGO   ROH10241  13.838   8.109   5.507  0.1968 -0.1354 -0.1076
  649ERGO    R110242  13.747   8.169   5.768  0.0865 -0.0916 -0.1578
  649ERGO    R210243  13.663   7.973   5.945  0.2810 -0.0834 -0.0697
  649ERGO    R310244  13.847   8.088   6.108  0.1198  0.2165 -0.0886
  649ERGO    R410245  13.639   7.990   6.289  0.3891 -0.3640 -0.0444
  649ERGO    R510246  13.717   8.193   6.280 -0.0468 -0.1680  0.0417
  649ERGO    C110247  13.797   8.107   6.643  0.3010 -0.2460 -0.0475
  649ERGO    C210248  13.927   8.058   6.954 -0.2275 -0.0084 -0.4593
  650ERGO   ROH10249  11.298  11.575   8.830  0.1353  0.0728  0.0397
  650ERGO    R110250  11.473  11.713   8.655  0.2705 -0.0307  0.0914
  650ERGO    R210251  11.693  11.592   8.540  0.0991 -0.2328 -0.0326
  650ERGO    R310252  11.580  11.681   8.309  0.1557  0.0569  0.0476
  650ERGO    R410253  11.809  11.521   8.222 -0.0143 -0.1090 -0.1029
  650ERGO    R510254  11.766  11.727   8.165  0.1831 -0.0194  0.0591
  650ERGO    C110255  11.771  11.563   7.821 -0.0272  0.2350 -0.0685
  650ERGO    C210256  11.730  11.471   7.466  0.1551  0.0031  0.0354
  651ERGO   ROH10257   8.649   4.906   9.441  0.1445 -0.3415 -0.0125
  651ERGO    R110258   8.510   5.030   9.228  0.0033 -0.2995  0.1023
  651ERGO    R210259   8.623   5.226   9.070 -0.1548 -0.1497  0.1646
  651ERGO    R310260   8.549   5.061   8.867 -0.1353 -0.0841  0.1043
  651ERGO    R410261   8.531   5.330   8.754 -0.1050 -0.0569  0.1806
  651ERGO    R510262   8.374   5.179   8.755 -0.1107 -0.0456  0.1126
  651ERGO    C110263   8.408   5.235   8.379 -0.0576  0.0588  0.1334
  651ERGO    C210264   8.412   5.150   8.094 -0.0820  0.1471 -0.0146
  652ERGO   ROH10265  16.372  15.360   5.838  0.0180 -0.0832  0.0195
  652ERGO    R110266  16.331  15.197   6.065  0.0908 -0.0635  0.0472
  652ERGO    R210267  16.510  15.186   6.275  0.0831  0.0730  0.0624
  652ERGO    R310268  16.291  15.248   6.424  0.0386 -0.0173  0.0349
  652ERGO    R410269  16.474  15.119   6.612  0.0526  0.0244  0.0495
  652ERGO    R510270  16.267  15.064   6.574  0.0774 -0.0418  0.0112
  652ERGO    C110271  16.247  15.139   6.948 -0.0068 -0.0886  0.0162
  652ERGO    C210272  16.322  15.053   7.272 -0.4522 -0.0239 -0.0912
  653ERGO   ROH10273   2.316   9.809   6.368 -0.1338 -0.0215 -0.0539
  653ERGO    R110274   2.198   9.718   6.609 -0.1460 -0.0957 -0.0876
  653ERGO    R210275   2.107   9.890   6.804 -0.0349 -0.1566  0.0193
  653ERGO    R310276   1.876   9.751   6.774 -0.1084 -0.0272 -0.0268
  653ERGO    R410277   1.857   9.868   7.042 -0.0387 -0.1177  0.0189
  653ERGO    R510278   1.834   9.657   6.991 -0.1487 -0.0877 -0.0600
  653ERGO    C110279   1.495   9.723   7.153 -0.1100  0.0265 -0.0246
  653ERGO    C210280   1.263   9.653   7.276  0.1963  0.3235 -0.1157
  654ERGO   ROH10281  17.187   1.459   5.968  0.0088 -0.1604 -0.1454
  654ERGO    R110282  17.019   1.668   6.059  0.0494 -0.1079 -0.1889
  654ERGO    R210283  16.750   1.680   5.999  0.0473 -0.0741 -0.1817
  654ERGO    R310284  16.723   1.697   6.269  0.0628 -0.0059 -0.1844
  654ERGO    R410285  16.448   1.676   6.167  0.0662 -0.1907 -0.1502
  654ERGO    R510286  16.527   1.830   6.300 -0.0081 -0.1067 -0.2061
  654ERGO    C110287  16.247   1.689   6.518  0.0916 -0.1946 -0.1344
  654ERGO    C210288  15.883   1.673   6.630  0.1019 -0.1120 -0.1223
  655ERGO   ROH10289   4.813  15.110   5.589 -0.0484  0.0768 -0.0312
  655ERGO    R110290   4.882  15.091   5.863  0.0355  0.2361 -0.0387
  655ERGO    R210291   4.848  15.300   6.040 -0.1772  0.2523 -0.0870
  655ERGO    R310292   4.708  15.115   6.181  0.0706  0.1196 -0.0123
  655ERGO    R410293   4.781  15.320   6.378  0.0147  0.1541 -0.0425
  655ERGO    R510294   4.819  15.106   6.393  0.2069  0.1907 -0.0849
  655ERGO    C110295   4.610  15.158   6.708  0.3591 -0.0277  0.0535
  655ERGO    C210296   4.510  15.320   6.934 -0.1865 -0.0273 -0.2651
  656ERGO   ROH10297   1.552   3.435   5.968 -0.0787  0.0442 -0.0354
  656ERGO    R110298   1.606   3.317   6.219 -0.1284  0.0564 -0.0191
  656ERGO    R210299   1.831   3.377   6.367 -0.0656 -0.0724 -0.0620
  656ERGO    R310300   1.650   3.432   6.562 -0.0014  0.0945 -0.0473
  656ERGO    R410301   1.911   3.445   6.697  0.0287 -0.0969 -0.0794
  656ERGO    R510302   1.739   3.325   6.757 -0.0620  0.0450 -0.0454
  656ERGO    C110303   1.787   3.536   7.072  0.1439  0.0456 -0.0758
  656ERGO    C210304   1.972   3.730   7.274 -0.2696  0.0605 -0.4071
  657ERGO   ROH10305   5.161  16.547   9.017  0.2463 -0.2657  0.0307
  657ERGO    R110306   5.160  16.371   8.794 -0.0366 -0.2423  0.0073
  657ERGO    R210307   4.927  16.287   8.672 -0.1850  0.0661  0.0549
  657ERGO    R310308   5.049  16.384   8.448 -0.1171 -0.0548  0.0402
  657ERGO    R410309   4.887  16.159   8.353  0.0103 -0.1755  0.1247
  657ERGO    R510310   5.099  16.189   8.319  0.0115 -0.1270  0.2024
  657ERGO    C110311   4.976  16.175   7.958  0.1877 -0.4295  0.1516
  657ERGO    C210312   4.953  16.019   7.561 -0.1689  0.2179  0.0357
  658ERGO   ROH10313  17.445  11.150   9.884  0.2559  0.2077 -0.1954
  658ERGO    R110314  17.228  11.109   9.707  0.1917 -0.0435 -0.0647
  658ERGO    R210315  17.202  11.248   9.470 -0.0825 -0.1163 -0.0816
  658ERGO    R310316  17.186  10.999   9.362  0.1032 -0.1563 -0.0184
  658ERGO    R410317  17.097  11.180   9.148  0.0561 -0.2649 -0.0954
  658ERGO    R510318  16.988  11.007   9.226  0.1382 -0.3119 -0.0808
  658ERGO    C110319  17.021  10.906   8.859  0.3113 -0.3890 -0.0440
  658ERGO    C210320  17.084  11.158   8.567  0.1094 -0.0495  0.0694
  659ERGO   ROH10321  16.325  18.115   9.369 -0.1951  0.0129  0.0162
  659ERGO    R110322  16.479  18.071   9.136 -0.2200  0.1040 -0.0171
  659ERGO    R210323  16.522  17.820   9.031  0.0291  0.1159  0.0621
  659ERGO    R310324  16.424  17.933   8.803 -0.1686 -0.0780  0.0470
  659ERGO    R410325  16.543  17.678   8.716  0.4232  0.1622  0.0628
  659ERGO    R510326  16.587  17.877   8.635  0.0113  0.2786  0.0845
  659ERGO    C110327  16.464  17.701   8.320  0.4672  0.0072  0.0489
  659ERGO    C210328  16.481  17.457   8.023 -0.1978 -0.0107 -0.3162
  660ERGO   ROH10329   7.674  14.261   8.820 -0.3817  0.0409  0.2457
  660ERGO    R110330   7.701  14.287   8.540 -0.1421  0.1491  0.2761
  660ERGO    R210331   7.521  14.176   8.362  0.2019 -0.0944  0.0664
  660ERGO    R310332   7.507  14.431   8.267 -0.1018 -0.0890  0.1193
  660ERGO    R410333   7.441  14.262   8.037  0.3133 -0.1351  0.0278
  660ERGO    R510334   7.594  14.417   8.045  0.0843  0.0909  0.1787
  660ERGO    C110335   7.380  14.551   7.759  0.0931 -0.1538  0.0550
  660ERGO    C210336   7.341  14.848   7.427 -0.1278 -0.1799  0.2248
  661ERGO   ROH10337  13.709   8.578   9.371  0.1648  0.0139 -0.0054
  661ERGO    R110338  13.695   8.459   9.115 -0.0889 -0.0253  0.0235
  661ERGO    R210339  13.514   8.540   8.923 -0.0192  0.2162  0.0516
  661ERGO    R310340  13.737   8.567   8.770 -0.0093 -0.1642 -0.0102
  661ERGO    R410341  13.520   8.528   8.577 -0.1332  0.2261  0.0494
  661ERGO    R510342  13.704   8.413   8.589 -0.3271 -0.0991 -0.0112
  661ERGO    C110343  13.733   8.547   8.233 -0.1904 -0.1252 -0.0099
  661ERGO    C210344  13.844   8.689   7.927  0.2209  0.2542 -0.0655
  662ERGO   ROH10345  15.007  11.514   9.408 -0.0987  0.3301 -0.1664
  662ERGO    R110346  14.901  11.559   9.149 -0.0208  0.2711 -0.2091
  662ERGO    R210347  15.038  11.699   8.954  0.1023  0.1009 -0.2496
  662ERGO    R310348  14.994  11.475   8.807  0.0007  0.0551 -0.1513
  662ERGO    R410349  15.154  11.649   8.633  0.1702 -0.1408 -0.1894
  662ERGO    R510350  14.962  11.556   8.584  0.1252 -0.0378 -0.2023
  662ERGO    C110351  15.180  11.409   8.307  0.1144 -0.3245 -0.0621
  662ERGO    C210352  15.315  11.370   8.070  0.2162  0.1662 -0.2725
  663ERGO   ROH10353   0.730  10.430   9.890 -0.3183 -0.0426 -0.0862
  663ERGO    R110354   0.783  10.308   9.640 -0.2257 -0.1245 -0.0268
  663ERGO    R210355   0.602  10.313   9.431 -0.0550  0.0060 -0.1689
  663ERGO    R310356   0.813  10.417   9.294  0.1471 -0.2004 -0.0240
  663ERGO    R410357   0.672  10.252   9.098 -0.0861  0.1930 -0.2119
  663ERGO    R510358   0.883  10.240   9.149 -0.1054 -0.1917 -0.1688
  663ERGO    C110359   0.910  10.313   8.776  0.0855  0.1080 -0.1008
  663ERGO    C210360   0.886  10.350   8.398 -0.1575 -0.2716  0.3489
  664ERGO   ROH10361  15.807  13.108   6.087  0.3192 -0.1407 -0.0835
  664ERGO    R110362  15.798  13.231   6.341  0.1298 -0.0074 -0.1521
  664ERGO    R210363  15.604  13.172   6.529  0.0806 -0.0226 -0.2097
  664ERGO    R310364  15.819  13.123   6.688  0.0393  0.1926 -0.0824
  664ERGO    R410365  15.593  13.147   6.874 -0.1355 -0.2110 -0.2277
  664ERGO    R510366  15.781  13.257   6.883 -0.2876  0.0467 -0.0375
  664ERGO    C110367  15.788  13.086   7.224 -0.3003 -0.1188 -0.1187
  664ERGO    C210368  15.648  13.139   7.502 -0.2398  0.4325 -0.0375
  665ERGO   ROH10369   6.414   8.107   9.342  0.1018  0.1478 -0.0141
  665ERGO    R110370   6.242   7.967   9.166 -0.0270  0.0952  0.1543
  665ERGO    R210371   6.037   8.091   9.029 -0.0725  0.0628  0.2212
  665ERGO    R310372   6.158   7.981   8.812 -0.2367 -0.0702  0.1912
  665ERGO    R410373   5.886   8.046   8.722 -0.1951  0.2991  0.2426
  665ERGO    R510374   5.985   7.852   8.707 -0.4364  0.1575  0.2064
  665ERGO    C110375   5.911   7.917   8.338 -0.4207  0.3120  0.2269
  665ERGO    C210376   5.911   7.824   7.957  0.2922 -0.3984  0.2804
  666ERGO   ROH10377   3.375  15.479   5.777  0.2295 -0.1447  0.0272
  666ERGO    R110378   3.420  15.499   6.056  0.2229 -0.1626  0.0312
  666ERGO    R210379   3.250  15.636   6.225  0.3147 -0.0105  0.0137
  666ERGO    R310380   3.245  15.400   6.360  0.1142 -0.0030  0.0194
  666ERGO    R410381   3.184  15.602   6.563  0.2831  0.0440  0.0116
  666ERGO    R510382   3.341  15.451   6.573  0.1521 -0.0845  0.0170
  666ERGO    C110383   3.142  15.361   6.886  0.0765  0.0828  0.0158
  666ERGO    C210384   3.137  15.197   7.160  0.1721  0.0695 -0.1925
  667ERGO   ROH10385   4.213   6.494   6.376  0.0038 -0.5729  0.1900
  667ERGO    R110386   4.339   6.650   6.575  0.0162 -0.3559  0.0146
  667ERGO    R210387   4.379   6.559   6.833  0.0304 -0.0764  0.1112
  667ERGO    R310388   4.638   6.625   6.782  0.0287 -0.1312  0.0284
  667ERGO    R410389   4.630   6.570   7.070  0.0567  0.0854  0.0777
  667ERGO    R510390   4.706   6.750   6.974  0.0577  0.0117 -0.0707
  667ERGO    C110391   5.019   6.637   7.160  0.0703  0.1283 -0.0195
  667ERGO    C210392   5.050   6.564   7.453 -0.3656 -0.1009  0.2987
  668ERGO   ROH10393   7.897   8.333   5.805  0.1227  0.0990 -0.1428
  668ERGO    R110394   7.766   8.144   5.970  0.0966 -0.0091 -0.2859
  668ERGO    R210395   7.838   7.877   5.978  0.3403  0.0609 -0.1758
  668ERGO    R310396   7.858   7.924   6.245 -0.0314  0.1038 -0.1503
  668ERGO    R410397   7.769   7.645   6.225  0.4034 -0.0384 -0.2501
  668ERGO    R510398   7.674   7.804   6.340  0.0319 -0.1700 -0.3577
  668ERGO    C110399   7.747   7.554   6.619  0.0913 -0.0559 -0.2693
  668ERGO    C210400   7.639   7.314   6.756  0.0861 -0.2588 -0.0828
  669ERGO   ROH10401   4.599   8.988   5.825 -0.0682 -0.1266 -0.1876
  669ERGO    R110402   4.767   8.831   5.990  0.0090  0.0424 -0.1029
  669ERGO    R210403   4.859   8.919   6.235 -0.1470  0.1642 -0.0870
  669ERGO    R310404   4.749   8.687   6.323  0.0175  0.0866 -0.0832
  669ERGO    R410405   4.900   8.790   6.553 -0.0619  0.2028 -0.0819
  669ERGO    R510406   4.918   8.591   6.464  0.0836  0.2116 -0.0758
  669ERGO    C110407   4.822   8.496   6.821  0.1420  0.1524 -0.0754
  669ERGO    C210408   4.549   8.511   7.146  0.1358 -0.2597  0.0381
  670ERGO   ROH10409   2.694   7.933   9.862 -0.0952 -0.0043 -0.1104
  670ERGO    R110410   2.774   7.865   9.599 -0.0506 -0.0146 -0.0948
  670ERGO    R210411   2.602   7.877   9.383  0.0000  0.0364 -0.1381
  670ERGO    R310412   2.796   8.034   9.278  0.0649 -0.0061 -0.0810
  670ERGO    R410413   2.587   8.028   9.073  0.0987  0.1115 -0.1061
  670ERGO    R510414   2.798   7.980   9.045  0.0805  0.0488 -0.0895
  670ERGO    C110415   2.762   8.264   8.793  0.2170  0.1154 -0.0339
  670ERGO    C210416   2.877   8.446   8.533  0.2547  0.0071 -0.1338
  671ERGO   ROH10417   2.741   1.887   8.622 -0.1080  0.0248 -0.0556
  671ERGO    R110418   2.822   2.024   8.388 -0.1751  0.0413 -0.0699
  671ERGO    R210419   3.051   1.958   8.248 -0.0948  0.1943 -0.0175
  671ERGO    R310420   2.879   1.938   8.039 -0.0457  0.0125 -0.0416
  671ERGO    R410421   3.129   2.037   7.921 -0.1562  0.3548  0.0066
  671ERGO    R510422   2.931   2.127   7.901 -0.2707  0.1063 -0.0003
  671ERGO    C110423   3.013   2.065   7.534 -0.1459  0.2777 -0.0020
  671ERGO    C210424   2.995   1.971   7.169  0.0095 -0.0289 -0.1567
  672ERGO   ROH10425   3.668  11.410   6.125 -0.0637  0.0649  0.0771
  672ERGO    R110426   3.907  11.495   6.251 -0.0479 -0.1089  0.1654
  672ERGO    R210427   3.980  11.761   6.268  0.1960 -0.1711  0.0890
  672ERGO    R310428   3.995  11.706   6.534  0.0061 -0.0725  0.1224
  672ERGO    R410429   4.093  11.981   6.510  0.4159 -0.2140  0.0284
  672ERGO    R510430   4.196  11.815   6.606  0.1402 -0.3243  0.1497
  672ERGO    C110431   4.172  12.058   6.900  0.3656 -0.1466  0.0245
  672ERGO    C210432   4.458  12.275   7.078 -0.0946 -0.0610 -0.4157
  673ERGO   ROH10433   3.868  10.509   6.396  0.2170 -0.2521 -0.1496
  673ERGO    R110434   4.083  10.544   6.577 -0.0538 -0.0675  0.1477
  673ERGO    R210435   4.331  10.634   6.497  0.1624 -0.4438  0.3694
  673ERGO    R310436   4.291  10.820   6.690 -0.0162 -0.0034 -0.0719
  673ERGO    R410437   4.583  10.795   6.671  0.0070 -0.1514  0.3288
  673ERGO    R510438   4.462  10.776   6.852 -0.2204  0.2809  0.2376
  673ERGO    C110439   4.691  11.064   6.953 -0.2512  0.4322 -0.1091
  673ERGO    C210440   4.936  11.265   7.129 -0.4104  0.1315 -0.3682
  674PSPI    C110441  12.136   4.485   5.126 -0.0234 -0.0909  0.0879
  674PSPI    C210442  12.349   4.252   4.880 -0.0706 -0.0946  0.0505
  674PSPI    C310443  11.963   4.324   4.804 -0.0160  0.1267 -0.0270
  674PSPI   PO410444  12.150   4.391   5.342  0.1944  0.2082  0.1370
  674PSPI   GL110445  12.337   4.418   5.671 -0.1399  0.0035 -0.0241
  674PSPI   GL210446  12.360   3.974   5.705 -0.1954  0.3432 -0.2671
  674PSPI   C1A10447  12.428   4.632   6.101 -0.2304  0.0330 -0.0507
  674PSPI   C2A10448  12.600   4.635   6.463  0.1042  0.1782  0.0574
  674PSPI   C3A10449  12.687   4.485   6.844  0.2978 -0.2802  0.1079
  674PSPI   C4A10450  12.826   4.130   7.082 -0.0593 -0.1150 -0.2139
  674PSPI   C1B10451  12.506   4.093   6.086  0.0598  0.0761  0.1726
  674PSPI   C2B10452  12.298   4.278   6.489  0.0611 -0.0312 -0.0982
  674PSPI   C3B10453  11.997   4.418   6.831  0.2895  0.1603 -0.0866
  674PSPI   C4B10454  11.792   4.243   7.241  0.0619 -0.0989 -0.0621
  675PSPI    C110455   8.661  15.524   4.728  0.1069 -0.0100 -0.1237
  675PSPI    C210456   8.678  15.909   4.619 -0.2123  0.0102 -0.1120
  675PSPI    C310457   8.721  15.621   4.345  0.0696  0.0510 -0.1143
  675PSPI   PO410458   8.798  15.583   5.010  0.4389 -0.1458  0.0046
  675PSPI   GL110459   8.922  15.344   5.318 -0.0195 -0.0113 -0.3258
  675PSPI   GL210460   8.892  14.985   5.184 -0.1709  0.4908  0.5021
  675PSPI   C1A10461   8.813  15.166   5.667 -0.1927  0.0461  0.1751
  675PSPI   C2A10462   8.527  15.028   6.002 -0.3270  0.4423  0.0641
  675PSPI   C3A10463   8.116  14.783   6.062  0.0341  0.1706  0.1370
  675PSPI   C4A10464   7.800  14.846   6.146  0.3346 -0.3790  0.1363
  675PSPI   C1B10465   9.035  14.786   5.450 -0.2188  0.1357 -0.0516
  675PSPI   C2B10466   9.020  14.857   5.986 -0.1821  0.2520  0.0155
  675PSPI   C3B10467   8.840  14.744   6.330  0.2532 -0.0586  0.0779
  675PSPI   C4B10468   8.683  15.099   6.680 -0.0730  0.0825 -0.0724
  676PSPI    C110469  18.266   6.699   5.247  0.0550 -0.0132  0.0611
  676PSPI    C210470  18.577   6.601   5.479  0.2506  0.3357 -0.0460
  676PSPI    C310471  18.569   6.485   5.096 -0.0366 -0.1757  0.1046
  676PSPI   PO410472  18.077   6.664   5.449 -0.1614 -0.0764  0.1242
  676PSPI   GL110473  17.874   6.994   5.861 -0.0002  0.0959  0.0528
  676PSPI   GL210474  17.850   6.665   5.886 -0.3131  0.1857  0.1198
  676PSPI   C1A10475  17.448   7.128   5.954  0.0155 -0.1374 -0.2264
  676PSPI   C2A10476  17.255   7.353   6.315  0.2731 -0.2425 -0.2396
  676PSPI   C3A10477  17.295   7.453   6.719  0.0273  0.0739  0.2873
  676PSPI   C4A10478  17.307   7.401   7.100 -0.1701  0.1180  0.0149
  676PSPI   C1B10479  17.734   6.864   6.327  0.0982 -0.1674 -0.0160
  676PSPI   C2B10480  17.744   7.174   6.625 -0.3810 -0.2030  0.1024
  676PSPI   C3B10481  17.875   7.291   7.057 -0.4125  0.0105 -0.2258
  676PSPI   C4B10482  17.893   7.600   7.453 -0.3361  0.2258  0.0003
  677PSPI    C110483  17.964   3.044   5.489  0.3088  0.0316  0.0719
  677PSPI    C210484  18.228   3.008   5.191  0.1024  0.0177 -0.1119
  677PSPI    C310485  18.215   3.344   5.407  0.2933  0.0044 -0.0782
  677PSPI   PO410486  17.963   2.820   5.662 -0.0593  0.1691 -0.3352
  677PSPI   GL110487  17.918   2.774   6.099  0.0755 -0.1095  0.1471
  677PSPI   GL210488  17.696   2.538   6.065  0.2426  0.0025 -0.0030
  677PSPI   C1A10489  17.915   3.035   6.541  0.0305  0.2081  0.0281
  677PSPI   C2A10490  18.100   3.050   6.908  0.2152  0.1734  0.1217
  677PSPI   C3A10491  18.329   3.054   7.317 -0.0173  0.0354  0.1826
  677PSPI   C4A10492  18.530   3.109   7.672  0.3758  0.0249  0.0164
  677PSPI   C1B10493  17.817   2.209   6.360 -0.4827  0.0350  0.0438
  677PSPI   C2B10494  17.755   2.184   6.712 -0.0459  0.1582  0.1644
  677PSPI   C3B10495  17.759   2.359   7.075 -0.3644  0.0165 -0.1719
  677PSPI   C4B10496  17.755   2.792   7.282 -0.1866 -0.0011  0.1685
  678PSPI    C110497   4.507  12.237   5.371  0.2714  0.1590 -0.0665
  678PSPI    C210498   4.389  12.055   5.035  0.0638 -0.1676  0.1767
  678PSPI    C310499   4.423  12.453   5.045 -0.3370 -0.1200 -0.1097
  678PSPI   PO410500   4.350  12.148   5.569 -0.2308 -0.1481  0.3468
  678PSPI   GL110501   4.545  11.967   5.982  0.2490 -0.3870  0.4696
  678PSPI   GL210502   4.717  11.930   5.818 -0.0501  0.1160 -0.0290
  678PSPI   C1A10503   4.636  11.798   6.458  0.2058 -0.3450  0.0487
  678PSPI   C2A10504   4.590  11.680   6.874  0.1556 -0.2577  0.0229
  678PSPI   C3A10505   4.806  11.697   7.191 -0.1530 -0.0973 -0.1584
  678PSPI   C4A10506   5.125  11.702   7.559 -0.2394 -0.2728  0.0614
  678PSPI   C1B10507   5.112  11.565   5.848  0.3955  0.2914 -0.0189
  678PSPI   C2B10508   5.313  11.338   5.656  0.1453 -0.0384 -0.2494
  678PSPI   C3B10509   5.673  11.242   5.849 -0.1451 -0.1424  0.2024
  678PSPI   C4B10510   6.045  11.062   6.072  0.0845 -0.2819  0.0930
  679PSPI    C110511  10.864   7.871   4.827  0.1117 -0.0597  0.0518
  679PSPI    C210512  11.047   7.536   4.709  0.2161 -0.1101  0.3466
  679PSPI    C310513  11.189   7.893   4.595 -0.0355 -0.1645 -0.1673
  679PSPI   PO410514  10.754   7.861   5.100 -0.1449  0.0090 -0.2530
  679PSPI   GL110515  10.795   8.062   5.523 -0.0957  0.1507  0.0668
  679PSPI   GL210516  10.996   8.235   5.473  0.0272  0.2655 -0.3478
  679PSPI   C1A10517  10.917   7.975   5.983 -0.2232  0.1408  0.1728
  679PSPI   C2A10518  10.934   7.933   6.412  0.1475  0.1576 -0.0606
  679PSPI   C3A10519  10.784   7.872   6.783  0.2523  0.0819  0.0842
  679PSPI   C4A10520  10.429   7.985   7.061  0.2106 -0.0263  0.1876
  679PSPI   C1B10521  10.905   8.459   5.818 -0.1425  0.3184 -0.0127
  679PSPI   C2B10522  11.002   8.449   6.287  0.0830  0.0584 -0.0411
  679PSPI   C3B10523  11.019   8.727   6.732  0.1444  0.1044  0.1550
  679PSPI   C4B10524  11.167   8.690   7.141 -0.1103 -0.2004 -0.1804
  680PSPI    C110525   5.492  18.600   4.562  0.2436  0.1154 -0.1007
  680PSPI    C210526   5.262  18.709   4.871  0.2416  0.2409 -0.1462
  680PSPI    C310527   5.146  18.411   4.631  0.1941  0.2108 -0.0860
  680PSPI   PO410528   5.734  18.611   4.737 -0.3037  0.2270  0.0012
  680PSPI   GL110529   5.878  18.566   5.130  0.2342  0.0667  0.1778
  680PSPI   GL210530   5.907  18.849   5.220 -0.0324 -0.3812 -0.0672
  680PSPI   C1A10531   5.783  18.449   5.609 -0.2269 -0.0116  0.0281
  680PSPI   C2A10532   5.835  18.432   5.999  0.1521 -0.1445  0.0425
  680PSPI   C3A10533   5.856  18.319   6.440 -0.0228 -0.2757  0.2185
  680PSPI   C4A10534   5.778  18.413   6.807  0.1969  0.0967 -0.1585
  680PSPI   C1B10535   5.675  19.096   5.442 -0.0804  0.0328  0.1964
  680PSPI   C2B10536   5.477  19.278   5.819  0.0068  0.0722 -0.1209
  680PSPI   C3B10537   5.475  19.210   6.296 -0.0230  0.0862 -0.3085
  680PSPI   C4B10538   5.879  18.944   6.437 -0.1408 -0.3002  0.0190
  681PSPI    C110539  16.325  17.594   5.683  0.2891 -0.1061 -0.0989
  681PSPI    C210540  16.563  17.915   5.701 -0.0497  0.1340  0.3102
  681PSPI    C310541  16.169  17.961   5.654 -0.0636 -0.2438  0.0030
  681PSPI   PO410542  16.363  17.448   5.882  0.0469 -0.0054  0.1670
  681PSPI   GL110543  16.404  17.481   6.343 -0.0700 -0.1433 -0.2678
  681PSPI   GL210544  16.216  17.272   6.430  0.0317 -0.0318  0.0635
  681PSPI   C1A10545  16.290  17.351   6.891  0.0012  0.0736 -0.3280
  681PSPI   C2A10546  16.218  17.589   7.282  0.4272 -0.1020  0.0023
  681PSPI   C3A10547  16.421  17.826   7.655 -0.2358 -0.0932 -0.1416
  681PSPI   C4A10548  16.780  17.880   8.003  0.1586  0.0146  0.0143
  681PSPI   C1B10549  15.942  16.951   6.422  0.1872 -0.0558 -0.3111
  681PSPI   C2B10550  15.816  16.661   6.768 -0.0717  0.0279 -0.3825
  681PSPI   C3B10551  15.640  16.202   6.918 -0.3501  0.0791  0.3068
  681PSPI   C4B10552  15.480  15.794   6.721  0.2449  0.2921 -0.3838
  682PSPI    C110553   6.905   4.612   4.707 -0.0588  0.1131  0.0019
  682PSPI    C210554   6.514   4.682   4.756 -0.0498  0.2807 -0.1528
  682PSPI    C310555   6.712   4.858   4.457  0.1815  0.3325  0.0280
  682PSPI   PO410556   7.035   4.672   4.914  0.0557 -0.3231 -0.0591
  682PSPI   GL110557   7.031   4.575   5.344  0.1058  0.2978 -0.0935
  682PSPI   GL210558   6.680   4.335   5.240  0.0222 -0.1383  0.0630
  682PSPI   C1A10559   7.108   4.869   5.706 -0.0642  0.0009  0.1876
  682PSPI   C2A10560   6.989   5.234   5.899  0.0533 -0.0920  0.0983
  682PSPI   C3A10561   7.103   5.287   6.348  0.3326  0.1300  0.0215
  682PSPI   C4A10562   7.404   5.469   6.774 -0.1513  0.1416  0.3260
  682PSPI   C1B10563   6.547   4.455   5.586  0.1646 -0.2529  0.2080
  682PSPI   C2B10564   6.658   4.712   5.891 -0.2143  0.0455  0.1476
  682PSPI   C3B10565   7.089   4.715   6.133 -0.2297  0.3872 -0.2561
  682PSPI   C4B10566   7.539   4.704   6.157  0.1177 -0.0996 -0.2806
  683PSPI    C110567  15.374   6.101   5.346 -0.0983 -0.0666 -0.1755
  683PSPI    C210568  15.209   5.746   5.429 -0.2497  0.0447  0.0090
  683PSPI    C310569  15.159   5.911   5.068 -0.2124 -0.1020 -0.0640
  683PSPI   PO410570  15.398   6.295   5.578 -0.1695 -0.2897 -0.1862
  683PSPI   GL110571  15.210   6.142   5.955 -0.2330 -0.0320  0.0072
  683PSPI   GL210572  15.008   6.393   6.132 -0.2779 -0.3361  0.1903
  683PSPI   C1A10573  15.395   6.226   6.324  0.1799  0.2923  0.3679
  683PSPI   C2A10574  15.495   6.097   6.777 -0.0022 -0.0039  0.1668
  683PSPI   C3A10575  15.869   5.904   7.023 -0.0280 -0.2824 -0.4797
  683PSPI   C4A10576  16.225   5.770   7.290 -0.1226 -0.4521 -0.0735
  683PSPI   C1B10577  14.939   6.227   6.505  0.1510 -0.0268 -0.0675
  683PSPI   C2B10578  15.014   5.987   6.882  0.0801 -0.3418 -0.1135
  683PSPI   C3B10579  14.722   5.865   7.168  0.0891  0.3932 -0.0341
  683PSPI   C4B10580  14.594   5.742   7.625 -0.0517 -0.0900 -0.0247
  684PSPI    C110581   2.748  17.898   4.918  0.2614  0.1177  0.2664
  684PSPI    C210582   2.731  18.165   4.620 -0.1953  0.0026  0.1824
  684PSPI    C310583   3.059  17.941   4.669 -0.0606  0.1215 -0.1455
  684PSPI   PO410584   2.640  18.072   5.185 -0.2736 -0.0309  0.0858
  684PSPI   GL110585   2.405  18.205   5.548 -0.3776  0.1739 -0.0220
  684PSPI   GL210586   2.068  18.177   5.399  0.0720  0.0398  0.2039
  684PSPI   C1A10587   2.629  18.055   5.941 -0.2976 -0.6939 -0.0110
  684PSPI   C2A10588   2.718  17.955   6.337 -0.1640 -0.0543  0.0377
  684PSPI   C3A10589   3.119  17.903   6.701 -0.3472  0.2599 -0.0916
  684PSPI   C4A10590   3.304  18.003   7.066  0.1990 -0.1797 -0.1085
  684PSPI   C1B10591   1.893  18.347   5.816 -0.2034  0.1563  0.1302
  684PSPI   C2B10592   1.716  18.160   6.195  0.2797 -0.0555  0.3921
  684PSPI   C3B10593   1.803  18.200   6.574 -0.0049 -0.1002 -0.2469
  684PSPI   C4B10594   1.427  18.291   6.806 -0.0729  0.1898  0.3363
  685PSPI    C110595  18.644  15.582   4.944 -0.0110  0.1756 -0.1637
  685PSPI    C210596  19.043  15.572   4.964 -0.0072  0.1345 -0.2582
  685PSPI    C310597  18.863  15.772   4.668 -0.0586  0.3090 -0.1108
  685PSPI   PO410598  18.575  15.614   5.206 -0.0407  0.0683 -0.1057
  685PSPI   GL110599  18.516  15.521   5.686  0.1098  0.0906  0.4234
  685PSPI   GL210600  18.499  15.254   5.740  0.3489  0.2321  0.0310
  685PSPI   C1A10601  18.180  15.763   5.970  0.1092  0.0037  0.0123
  685PSPI   C2A10602  17.941  15.798   6.320 -0.4085  0.2331  0.1185
  685PSPI   C3A10603  17.708  15.988   6.675  0.1225  0.0807  0.1203
  685PSPI   C4A10604  17.663  15.833   7.074 -0.1500 -0.0397 -0.2605
  685PSPI   C1B10605  18.158  15.269   6.085  0.1666 -0.1018  0.0882
  685PSPI   C2B10606  17.978  15.101   6.486  0.0647 -0.1505  0.1668
  685PSPI   C3B10607  17.660  15.019   6.789 -0.4750 -0.2224  0.2006
  685PSPI   C4B10608  17.450  15.119   7.234  0.0840 -0.0453 -0.3641
  686PSPI    C110609  16.745  14.588   5.284 -0.0643  0.0507  0.0312
  686PSPI    C210610  16.623  14.581   4.903  0.0782  0.0230 -0.0145
  686PSPI    C310611  17.007  14.653   4.989  0.0369  0.0787  0.1266
  686PSPI   PO410612  16.533  14.423   5.381 -0.0163  0.2673  0.1016
  686PSPI   GL110613  16.172  14.566   5.637 -0.2737  0.0171  0.0775
  686PSPI   GL210614  16.332  14.825   5.688 -0.1610  0.0452 -0.1804
  686PSPI   C1A10615  16.069  14.320   6.049 -0.1131 -0.2055  0.0753
  686PSPI   C2A10616  16.157  14.211   6.455 -0.1602  0.0162 -0.3759
  686PSPI   C3A10617  16.341  14.262   6.833  0.2948 -0.0296  0.0856
  686PSPI   C4A10618  16.523  14.051   7.146 -0.2030 -0.1758 -0.0546
  686PSPI   C1B10619  16.312  14.730   6.123 -0.2055  0.1556  0.2438
  686PSPI   C2B10620  16.486  14.601   6.505  0.0849  0.2354 -0.0272
  686PSPI   C3B10621  16.516  14.706   6.869 -0.1981 -0.0363 -0.1439
  686PSPI   C4B10622  16.418  14.538   7.302  0.0403  0.1451  0.0971
  687PSPI    C110623   0.642  15.525   5.298 -0.1506  0.0187 -0.2347
  687PSPI    C210624   0.943  15.424   5.054  0.0133  0.0471 -0.0470
  687PSPI    C310625   0.821  15.805   5.075  0.0143  0.0486 -0.0679
  687PSPI   PO410626   0.499  15.378   5.570 -0.0359  0.0097 -0.0519
  687PSPI   GL110627   0.515  15.345   6.016  0.1862  0.0099  0.1193
  687PSPI   GL210628   0.630  15.605   6.078  0.1861  0.2537 -0.2811
  687PSPI   C1A10629   0.149  15.158   6.170  0.2255 -0.1060  0.1535
  687PSPI   C2A10630  -0.172  14.891   6.116  0.0286  0.0176  0.0935
  687PSPI   C3A10631  -0.465  14.644   6.330  0.1056  0.2461  0.2710
  687PSPI   C4A10632  -0.455  14.550   6.710 -0.0080  0.1051 -0.1354
  687PSPI   C1B10633   0.649  15.469   6.540 -0.0631  0.2003  0.1397
  687PSPI   C2B10634   0.766  15.241   6.873  0.0481  0.1514  0.1647
  687PSPI   C3B10635   0.792  15.192   7.319 -0.1785 -0.0759 -0.0392
  687PSPI   C4B10636   0.787  14.967   7.724  0.2225 -0.1772 -0.2253
  688PSPI    C110637  12.632  16.162   4.821  0.0624  0.1348  0.0350
  688PSPI    C210638  12.300  16.010   4.984  0.0194  0.0964 -0.0877
  688PSPI    C310639  12.481  15.819   4.683  0.1929  0.0806  0.0254
  688PSPI   PO410640  12.718  16.308   5.005 -0.1300 -0.2070  0.1801
  688PSPI   GL110641  12.985  16.167   5.346  0.0925  0.0633 -0.2059
  688PSPI   GL210642  12.671  16.073   5.633  0.1294 -0.0314 -0.1587
  688PSPI   C1A10643  12.994  16.640   5.587  0.0542 -0.3146 -0.2082
  688PSPI   C2A10644  12.972  16.646   6.039 -0.0862 -0.0032 -0.1536
  688PSPI   C3A10645  12.887  16.626   6.399  0.1643 -0.0231 -0.1708
  688PSPI   C4A10646  12.809  16.546   6.794 -0.1833 -0.1423  0.0790
  688PSPI   C1B10647  12.402  15.948   5.973 -0.1776  0.3012  0.2877
  688PSPI   C2B10648  12.396  15.898   6.444 -0.2415  0.1463  0.1603
  688PSPI   C3B10649  12.659  15.920   6.716  0.0754 -0.1631  0.5744
  688PSPI   C4B10650  12.902  16.021   6.981  0.2047 -0.2580 -0.0600
  689PSPI    C110651  16.897   5.354   5.617  0.1279 -0.0767  0.1160
  689PSPI    C210652  16.634   5.177   5.373  0.0021 -0.1012  0.2678
  689PSPI    C310653  17.008   5.245   5.248 -0.1440  0.1632 -0.0416
  689PSPI   PO410654  16.820   5.691   5.681  0.0533  0.1043 -0.1561
  689PSPI   GL110655  16.898   5.950   6.099 -0.5944  0.0507 -0.1411
  689PSPI   GL210656  17.171   5.769   6.153 -0.2852  0.1799  0.0531
  689PSPI   C1A10657  16.957   5.925   6.669  0.0668  0.2389  0.2658
  689PSPI   C2A10658  16.870   5.798   7.171 -0.4653  0.1195  0.6177
  689PSPI   C3A10659  16.596   5.946   7.542  0.1023  0.1146 -0.3288
  689PSPI   C4A10660  16.648   5.710   7.922  0.1930  0.1092 -0.1134
  689PSPI   C1B10661  17.247   5.522   6.528 -0.2877  0.0138  0.4022
  689PSPI   C2B10662  17.242   5.546   6.914  0.2596  0.3141 -0.1930
  689PSPI   C3B10663  17.312   5.622   7.372  0.2243 -0.0335  0.0810
  689PSPI   C4B10664  17.137   5.829   7.698 -0.2107  0.0470 -0.4618
  690PSPI    C110665  15.963   0.809   5.418  0.0542  0.2352 -0.1231
  690PSPI    C210666  15.829   1.043   5.123 -0.2464 -0.0391 -0.2091
  690PSPI    C310667  15.911   0.658   5.052  0.2807  0.0421 -0.0775
  690PSPI   PO410668  15.891   1.051   5.633 -0.2231  0.1339 -0.4644
  690PSPI   GL110669  16.060   1.398   5.939  0.0064 -0.3295  0.1867
  690PSPI   GL210670  15.878   1.771   6.133  0.0697  0.1557  0.0454
  690PSPI   C1A10671  16.123   1.234   6.448 -0.0289  0.1172  0.2021
  690PSPI   C2A10672  15.929   1.190   6.805 -0.0939  0.2063  0.0097
  690PSPI   C3A10673  15.625   1.027   6.959  0.2075 -0.2419  0.0874
  690PSPI   C4A10674  15.634   0.711   7.282 -0.0248  0.1339  0.0188
  690PSPI   C1B10675  16.128   2.162   6.147  0.1836  0.2527 -0.3797
  690PSPI   C2B10676  16.078   2.574   6.449  0.1495 -0.1716  0.2079
  690PSPI   C3B10677  15.982   2.925   6.714  0.2445  0.3544 -0.0629
  690PSPI   C4B10678  15.651   2.963   6.979 -0.2379  0.0063 -0.2317
  691PSPI    C110679   9.327   1.644   4.844 -0.0168  0.0234 -0.1447
  691PSPI    C210680   9.021   1.532   4.613 -0.1682 -0.0552  0.0905
  691PSPI    C310681   9.382   1.370   4.558 -0.1866 -0.0234 -0.1337
  691PSPI   PO410682   9.205   1.634   5.087  0.1100  0.0402 -0.4226
  691PSPI   GL110683   9.401   1.364   5.464 -0.2453 -0.3163 -0.0952
  691PSPI   GL210684   9.076   1.311   5.554  0.1822 -0.2005 -0.2190
  691PSPI   C1A10685   9.557   1.371   5.833 -0.0408  0.2995 -0.0737
  691PSPI   C2A10686   9.963   1.263   6.006  0.1977 -0.1570 -0.2222
  691PSPI   C3A10687  10.340   1.356   6.068 -0.1002 -0.0334  0.1302
  691PSPI   C4A10688  10.592   1.710   5.949  0.2877  0.1968 -0.0707
  691PSPI   C1B10689   8.807   1.051   5.739  0.2250  0.0766 -0.0015
  691PSPI   C2B10690   8.681   0.752   5.960 -0.1668  0.2449  0.1875
  691PSPI   C3B10691   9.022   0.459   6.220 -0.2118  0.0708  0.1534
  691PSPI   C4B10692   9.354   0.310   6.328 -0.1262 -0.3619 -0.1412
  692PSPI    C110693  10.440  18.919   5.075 -0.0719  0.2951 -0.0937
  692PSPI    C210694  10.550  18.840   4.699  0.2600  0.1323  0.0335
  692PSPI    C310695  10.761  19.099   4.919  0.2013  0.0571  0.1797
  692PSPI   PO410696  10.418  18.655   5.201 -0.0353  0.1437 -0.0741
  692PSPI   GL110697  10.563  18.348   5.429 -0.3076 -0.1297  0.1503
  692PSPI   GL210698  10.247  18.244   5.453 -0.1499 -0.0725 -0.2098
  692PSPI   C1A10699  10.570  18.192   5.842  0.1904  0.1941 -0.2452
  692PSPI   C2A10700  10.464  18.168   6.188 -0.3433 -0.0321  0.1620
  692PSPI   C3A10701  10.335  18.218   6.516  0.1712  0.0816  0.4811
  692PSPI   C4A10702  10.375  18.317   7.005  0.4166  0.2466 -0.1528
  692PSPI   C1B10703  10.199  17.920   5.801  0.0728 -0.1692  0.0058
  692PSPI   C2B10704   9.970  17.853   6.139 -0.2127 -0.0036  0.0082
  692PSPI   C3B10705   9.733  17.840   6.509 -0.1284 -0.0055 -0.2965
  692PSPI   C4B10706   9.314  17.710   6.814 -0.0475  0.0450  0.4838
  693POPI    C110707  10.387   0.088   4.846  0.1905 -0.0455 -0.2198
  693POPI    C210708  10.153  -0.230   4.782 -0.3048  0.2179  0.1996
  693POPI    C310709  10.065   0.121   4.611  0.0217  0.2278  0.0428
  693POPI   PO410710  10.446   0.103   5.150 -0.3790 -0.1420 -0.2320
  693POPI   GL110711  10.673  -0.087   5.353 -0.0443 -0.0403  0.1036
  693POPI   GL210712  10.639  -0.345   5.593  0.0303 -0.1000  0.2247
  693POPI   C1A10713  10.768   0.247   5.662 -0.2712 -0.2323  0.0624
  693POPI   D2A10714  10.644   0.522   5.896  0.1930 -0.0612  0.2394
  693POPI   C3A10715  10.903   0.937   6.041 -0.2794  0.1157  0.3721
  693POPI   C4A10716  11.292   1.038   5.857 -0.4240  0.0223  0.1925
  693POPI   C1B10717  10.887  -0.179   5.883 -0.1108  0.2043  0.0508
  693POPI   C2B10718  10.710   0.173   6.231  0.3200  0.0030 -0.0943
  693POPI   C3B10719  10.662   0.541   6.418  0.0583  0.2637 -0.0093
  693POPI   C4B10720  10.656   1.014   6.490  0.0796 -0.3707 -0.2463
  694POPI    C110721  17.801  11.189   5.623 -0.3014 -0.2850 -0.2535
  694POPI    C210722  17.972  10.828   5.636  0.1095 -0.0924 -0.1511
  694POPI    C310723  18.049  11.075   5.330 -0.0334 -0.0251 -0.1331
  694POPI   PO410724  17.786  11.253   5.940  0.1298  0.1272  0.1796
  694POPI   GL110725  18.041  11.320   6.243  0.0303  0.4841 -0.0284
  694POPI   GL210726  18.421  11.443   6.285 -0.2249 -0.0936  0.0210
  694POPI   C1A10727  18.030  11.365   6.717  0.2281  0.1930  0.1265
  694POPI   D2A10728  18.038  11.563   7.161 -0.2269 -0.0616  0.0646
  694POPI   C3A10729  18.285  11.957   7.248  0.0379 -0.1080  0.2673
  694POPI   C4A10730  18.282  12.343   7.504 -0.2249 -0.1172  0.2558
  694POPI   C1B10731  18.517  11.329   6.676 -0.2956 -0.1555 -0.1408
  694POPI   C2B10732  18.564  11.406   7.099 -0.1020  0.1613 -0.0678
  694POPI   C3B10733  18.703  11.808   7.456  0.3032 -0.1481 -0.3748
  694POPI   C4B10734  19.068  12.038   7.583 -0.0306  0.1786 -0.0005
  695POPI    C110735  19.208  13.931   4.968 -0.3525 -0.1375 -0.0769
  695POPI    C210736  19.080  14.290   5.089 -0.2019 -0.0851 -0.0708
  695POPI    C310737  19.215  14.242   4.716  0.1734 -0.0345  0.0549
  695POPI   PO410738  19.048  13.770   5.161  0.1695  0.3392 -0.1572
  695POPI   GL110739  18.952  13.573   5.516 -0.0748 -0.1374 -0.0640
  695POPI   GL210740  18.813  13.312   5.591  0.0718  0.1639 -0.4929
  695POPI   C1A10741  19.099  13.801   5.892  0.3894  0.1127  0.0763
  695POPI   D2A10742  19.110  13.737   6.258  0.2117  0.1355 -0.1225
  695POPI   C3A10743  19.103  14.094   6.601 -0.4170 -0.3994 -0.1856
  695POPI   C4A10744  18.916  14.219   7.011 -0.0661 -0.0816 -0.1790
  695POPI   C1B10745  18.901  13.349   6.060  0.0807 -0.1403 -0.1483
  695POPI   C2B10746  18.571  13.343   6.478 -0.1912  0.0592  0.2462
  695POPI   C3B10747  18.703  13.624   6.782 -0.0725  0.0901  0.1129
  695POPI   C4B10748  18.990  13.683   6.909 -0.1341 -0.0689 -0.3336
  696POPI    C110749  16.042  17.081   5.304 -0.1213 -0.0581  0.1568
  696POPI    C210750  16.152  16.749   5.500  0.2380  0.0714  0.1806
  696POPI    C310751  16.175  16.763   5.100 -0.1396 -0.0616  0.1505
  696POPI   PO410752  15.890  17.182   5.515 -0.3899  0.3730 -0.0158
  696POPI   GL110753  15.657  16.975   5.868 -0.1638 -0.0225 -0.0339
  696POPI   GL210754  15.470  17.201   5.816 -0.0153 -0.0803 -0.3571
  696POPI   C1A10755  15.517  16.716   6.138  0.3540  0.2929 -0.0580
  696POPI   D2A10756  15.090  16.472   6.138 -0.2036 -0.3968 -0.0849
  696POPI   C3A10757  14.728  16.689   6.139 -0.2846 -0.1744  0.0013
  696POPI   C4A10758  14.365  16.747   6.454 -0.1935 -0.0939  0.0625
  696POPI   C1B10759  15.466  17.125   6.341  0.4950 -0.0460  0.0712
  696POPI   C2B10760  15.396  16.993   6.715  0.0289  0.4029  0.0344
  696POPI   C3B10761  15.130  17.135   7.131  0.0306  0.0341  0.2874
  696POPI   C4B10762  14.750  17.096   7.393  0.1168  0.1012  0.1232
  697POPI    C110763   9.841   9.404   4.899 -0.1683 -0.1860  0.0006
  697POPI    C210764   9.820   9.480   4.507 -0.0652  0.2072  0.0669
  697POPI    C310765  10.114   9.250   4.651 -0.0490  0.1387 -0.0741
  697POPI   PO410766   9.840   9.703   5.014 -0.1607  0.0216 -0.3988
  697POPI   GL110767   9.871   9.634   5.487 -0.0601 -0.0158  0.1540
  697POPI   GL210768  10.136   9.817   5.623 -0.1883  0.0301 -0.2339
  697POPI   C1A10769   9.512   9.545   5.527 -0.0933 -0.1166  0.0784
  697POPI   D2A10770   9.082   9.471   5.487  0.0989  0.3968  0.1962
  697POPI   C3A10771   8.843   9.115   5.867 -0.2153 -0.2624 -0.2594
  697POPI   C4A10772   8.829   8.852   6.242 -0.1222  0.1710  0.1989
  697POPI   C1B10773  10.257   9.704   6.029 -0.0734 -0.1632 -0.0572
  697POPI   C2B10774  10.331   9.758   6.550  0.1616 -0.2378  0.3146
  697POPI   C3B10775  10.078   9.606   6.954 -0.2833  0.2148  0.2442
  697POPI   C4B10776   9.657   9.527   7.155 -0.2391  0.0312  0.0034
  698POPI    C110777   5.807  17.715   4.874  0.2294 -0.1259  0.0058
  698POPI    C210778   6.000  17.557   4.561  0.0466  0.0767 -0.2134
  698POPI    C310779   5.609  17.635   4.536  0.0454  0.1634  0.0417
  698POPI   PO410780   5.980  17.652   5.123 -0.2739  0.3393  0.0045
  698POPI   GL110781   6.238  17.402   5.517  0.5453  0.0333 -0.2337
  698POPI   GL210782   6.183  17.141   5.318  0.1258  0.1618 -0.1797
  698POPI   C1A10783   5.808  17.546   5.681 -0.0259  0.0270 -0.0181
  698POPI   D2A10784   5.384  17.318   5.827  0.0912  0.1473  0.5303
  698POPI   C3A10785   5.103  17.060   5.840 -0.1280 -0.3916  0.1420
  698POPI   C4A10786   4.985  16.676   6.033  0.1258  0.2663  0.3138
  698POPI   C1B10787   6.237  16.883   5.634  0.1088  0.1494 -0.0260
  698POPI   C2B10788   6.452  16.529   5.857  0.0639 -0.2050 -0.1652
  698POPI   C3B10789   6.769  16.288   6.015  0.0754 -0.0262  0.2019
  698POPI   C4B10790   6.974  16.098   6.391  0.4105 -0.0959 -0.2352
  699POPI    C110791   6.983  16.147   4.799 -0.1104 -0.0748 -0.0167
  699POPI    C210792   7.185  16.128   4.455  0.2625 -0.2518  0.2054
  699POPI    C310793   6.974  16.456   4.545  0.3977 -0.0883 -0.0602
  699POPI   PO410794   7.167  16.174   4.976 -0.0683 -0.4594  0.2417
  699POPI   GL110795   7.327  15.931   5.236 -0.3904  0.0861 -0.0694
  699POPI   GL210796   7.618  16.169   5.271  0.2028  0.2910 -0.2511
  699POPI   C1A10797   7.583  15.777   5.618  0.1097 -0.2120 -0.0548
  699POPI   D2A10798   7.787  15.594   6.040  0.1553  0.0674 -0.0309
  699POPI   C3A10799   7.627  15.399   6.335 -0.0820  0.0945  0.1489
  699POPI   C4A10800   7.377  15.020   6.317  0.0458  0.2037 -0.1935
  699POPI   C1B10801   7.390  16.248   5.618  0.3140 -0.0184 -0.2076
  699POPI   C2B10802   7.324  16.231   6.069  0.1070 -0.0057 -0.0857
  699POPI   C3B10803   7.449  16.296   6.497  0.1136 -0.0183 -0.1350
  699POPI   C4B10804   7.773  16.463   6.799 -0.0517  0.0141 -0.1912
  700POPI    C110805   9.836   8.851   4.936 -0.0441 -0.0153  0.0970
  700POPI    C210806  10.014   8.559   5.144 -0.0333 -0.0601  0.0253
  700POPI    C310807  10.068   8.584   4.748 -0.0540  0.0248  0.0276
  700POPI   PO410808   9.712   8.942   5.085  0.1255  0.0799  0.4213
  700POPI   GL110809   9.625   9.080   5.453 -0.0235 -0.1219 -0.2097
  700POPI   GL210810   9.802   9.004   5.721  0.0753 -0.1386  0.1108
  700POPI   C1A10811   9.331   9.103   5.807  0.1107  0.3620 -0.3474
  700POPI   D2A10812   9.184   9.215   6.232  0.0174  0.1477  0.1548
  700POPI   C3A10813   9.557   9.393   6.428 -0.1103 -0.3257  0.2819
  700POPI   C4A10814   9.672   9.819   6.711  0.1590  0.0120  0.5535
  700POPI   C1B10815   9.772   9.044   6.089 -0.3108 -0.1201  0.1371
  700POPI   C2B10816   9.900   8.994   6.509 -0.0618  0.1116 -0.1480
  700POPI   C3B10817   9.914   9.118   6.918  0.1745  0.0286  0.2287
  700POPI   C4B10818   9.986   9.232   7.406 -0.1003 -0.2758 -0.0699
  701POPI    C110819  18.592   2.062   5.027  0.0830 -0.0851 -0.1423
  701POPI    C210820  18.690   1.711   4.862  0.1481 -0.2161  0.1670
  701POPI    C310821  18.306   1.798   4.934  0.1449 -0.3008  0.2558
  701POPI   PO410822  18.666   2.122   5.318  0.1018  0.0298 -0.4699
  701POPI   GL110823  18.665   2.123   5.676 -0.1707 -0.1533 -0.1432
  701POPI   GL210824  18.820   2.384   5.776  0.2280 -0.2954 -0.2964
  701POPI   C1A10825  18.867   1.951   6.052 -0.0310 -0.0023  0.1532
  701POPI   D2A10826  19.061   1.947   6.388 -0.2342  0.1199  0.1968
  701POPI   C3A10827  19.489   1.720   6.403 -0.1000 -0.1529 -0.0523
  701POPI   C4A10828  19.756   1.438   6.521  0.0079 -0.1262  0.1718
  701POPI   C1B10829  18.986   2.446   6.256  0.2618  0.1275  0.0918
  701POPI   C2B10830  18.730   2.706   6.447  0.3296  0.1167 -0.2856
  701POPI   C3B10831  18.694   2.908   6.777 -0.2533 -0.0116 -0.1543
  701POPI   C4B10832  18.642   2.609   7.144  0.2331  0.2296 -0.0981
  702POPI    C110833   2.366  10.916   5.709  0.0541  0.0153  0.0420
  702POPI    C210834   2.526  10.598   5.529  0.0761  0.1275 -0.1386
  702POPI    C310835   2.213  10.785   5.364 -0.0962  0.0497  0.0943
  702POPI   PO410836   2.342  10.734   6.015 -0.0214  0.2954 -0.0288
  702POPI   GL110837   2.305  10.920   6.460  0.0117 -0.1197 -0.3172
  702POPI   GL210838   2.449  10.551   6.454  0.3726  0.0647 -0.2260
  702POPI   C1A10839   2.060  11.189   6.771  0.0153 -0.3980  0.0653
  702POPI   D2A10840   1.637  11.179   7.056 -0.0301 -0.0842  0.0584
  702POPI   C3A10841   1.281  11.356   6.940  0.0709 -0.5632 -0.1119
  702POPI   C4A10842   0.886  11.683   6.956 -0.1936 -0.2607 -0.0467
  702POPI   C1B10843   2.066  10.370   6.721 -0.0944  0.1097  0.2229
  702POPI   C2B10844   1.992  10.353   7.188 -0.1945 -0.1654 -0.1500
  702POPI   C3B10845   1.810  10.155   7.487 -0.3850  0.1021 -0.2516
  702POPI   C4B10846   1.563   9.853   7.838  0.2211  0.3884 -0.0731
  703POPI    C110847   0.079  17.125   5.140 -0.0580  0.0061  0.1361
  703POPI    C210848  -0.173  17.389   4.976 -0.0013  0.0336  0.0928
  703POPI    C310849  -0.133  17.024   4.817  0.0307  0.0497  0.0638
  703POPI   PO410850   0.110  17.220   5.394  0.1522 -0.6325  0.2709
  703POPI   GL110851  -0.006  17.183   5.767  0.0951  0.3443  0.1533
  703POPI   GL210852   0.195  16.899   5.807 -0.3454 -0.1457  0.2828
  703POPI   C1A10853   0.180  17.426   6.139  0.0930 -0.0073 -0.0629
  703POPI   D2A10854   0.422  17.386   6.576  0.0992 -0.1561  0.1567
  703POPI   C3A10855   0.580  17.642   6.776 -0.4350  0.5298 -0.1921
  703POPI   C4A10856   0.537  17.917   7.199  0.1740 -0.0345  0.1179
  703POPI   C1B10857   0.635  16.955   5.936  0.0338  0.2413  0.3247
  703POPI   C2B10858   0.819  16.976   6.367 -0.0947  0.1401  0.1029
  703POPI   C3B10859   0.827  17.095   6.806  0.1096  0.2039  0.2621
  703POPI   C4B10860   0.593  17.285   7.132 -0.0733  0.1264  0.0701
  704POPI    C110861   5.772  10.558   5.097 -0.1363  0.2768  0.2091
  704POPI    C210862   6.130  10.610   5.269 -0.0714  0.1109  0.1258
  704POPI    C310863   6.094  10.378   4.945 -0.2286  0.2535  0.0388
  704POPI   PO410864   5.578  10.417   5.263  0.1936 -0.3895 -0.0320
  704POPI   GL110865   5.526  10.182   5.582  0.2626  0.1571  0.1156
  704POPI   GL210866   5.430   9.947   5.844  0.2261 -0.0693 -0.1087
  704POPI   C1A10867   5.652  10.393   5.945  0.0496  0.1147  0.4473
  704POPI   D2A10868   5.840  10.663   6.223  0.1807  0.0398 -0.2008
  704POPI   C3A10869   5.541  10.887   6.476 -0.0806  0.0488  0.3133
  704POPI   C4A10870   5.533  11.317   6.684 -0.0201 -0.0042 -0.0413
  704POPI   C1B10871   5.268   9.879   6.335 -0.0370 -0.2455  0.0947
  704POPI   C2B10872   5.203   9.831   6.701  0.0518  0.5572 -0.1621
  704POPI   C3B10873   4.981   9.722   7.079  0.3527  0.1593  0.1022
  704POPI   C4B10874   4.647   9.401   7.242  0.2442 -0.2948 -0.0520
  705POPI    C110875  17.954   5.337   5.257  0.1877 -0.0731  0.0622
  705POPI    C210876  18.281   5.548   5.349  0.1319  0.0227  0.0418
  705POPI    C310877  18.016   5.695   5.088  0.0605 -0.0438  0.0766
  705POPI   PO410878  17.842   5.296   5.470 -0.2999  0.0777  0.2967
  705POPI   GL110879  17.979   5.498   5.886  0.1103 -0.0722  0.0234
  705POPI   GL210880  17.670   5.389   5.997  0.0725  0.1402  0.1341
  705POPI   C1A10881  17.942   5.906   6.105  0.0527 -0.1505  0.0334
  705POPI   D2A10882  18.188   6.080   6.431  0.1754  0.2019 -0.0806
  705POPI   C3A10883  18.158   6.102   6.870  0.2542 -0.2181  0.1006
  705POPI   C4A10884  18.378   5.922   7.198  0.0162 -0.0332 -0.1051
  705POPI   C1B10885  17.714   5.022   6.079  0.4613  0.0353  0.3561
  705POPI   C2B10886  17.618   5.039   6.500  0.0216  0.0419  0.1940
  705POPI   C3B10887  17.406   5.145   6.825  0.2808 -0.0583 -0.0005
  705POPI   C4B10888  17.659   5.289   7.266 -0.0405 -0.0155  0.0236
  706POPI    C110889  10.695  13.343   4.756  0.0184 -0.1347  0.0429
  706POPI    C210890  10.662  13.330   4.357 -0.1648  0.4321  0.0312
  706POPI    C310891  10.949  13.551   4.528  0.2110 -0.1754  0.2171
  706POPI   PO410892  10.444  13.190   4.889 -0.3933  0.1170 -0.0346
  706POPI   GL110893  10.448  12.984   5.354 -0.0256 -0.2511  0.0791
  706POPI   GL210894  10.724  13.214   5.324  0.5157 -0.0401  0.1609
  706POPI   C1A10895  10.357  13.257   5.716 -0.1350  0.1412  0.1916
  706POPI   D2A10896  10.245  13.315   6.099 -0.1785 -0.1319 -0.1205
  706POPI   C3A10897   9.959  13.080   6.453 -0.2856  0.0388 -0.2457
  706POPI   C4A10898   9.696  12.799   6.725  0.1937 -0.0934 -0.1130
  706POPI   C1B10899  10.808  13.018   5.697 -0.0791 -0.0049 -0.1602
  706POPI   C2B10900  11.098  12.901   5.888 -0.0244  0.0933  0.2381
  706POPI   C3B10901  11.257  13.190   6.215  0.1588  0.2225 -0.2009
  706POPI   C4B10902  11.192  13.514   6.392 -0.0205 -0.2127  0.0163
  707POPI    C110903   9.705  16.681   4.628 -0.0002  0.0103 -0.0063
  707POPI    C210904   9.493  17.019   4.660  0.0132  0.0163  0.0166
  707POPI    C310905   9.876  17.033   4.546  0.0094  0.0074  0.0027
  707POPI   PO410906   9.548  16.531   4.842  0.0162 -0.2945  0.3964
  707POPI   GL110907   9.589  16.516   5.290  0.4800  0.0064  0.1829
  707POPI   GL210908   9.622  16.148   5.123  0.2392 -0.0516 -0.0574
  707POPI   C1A10909   9.349  16.595   5.583 -0.0334 -0.1741 -0.0943
  707POPI   D2A10910   8.946  16.638   5.742  0.0077  0.0641  0.3315
  707POPI   C3A10911   8.529  16.826   6.013  0.0121  0.1349  0.1274
  707POPI   C4A10912   8.446  17.251   6.133 -0.2010  0.0899  0.0322
  707POPI   C1B10913   9.651  16.170   5.579  0.0041  0.1891 -0.2015
  707POPI   C2B10914   9.715  16.508   5.931  0.0437  0.1547 -0.0850
  707POPI   C3B10915   9.830  16.871   5.918  0.2247 -0.0771  0.0555
  707POPI   C4B10916   9.717  17.124   6.226 -0.2250  0.2170 -0.2163
  708POPI    C110917   3.476   3.438   4.710 -0.0168  0.0893  0.0498
  708POPI    C210918   3.761   3.189   4.580 -0.0418 -0.0493  0.2547
  708POPI    C310919   3.400   3.046   4.678 -0.1054  0.0907  0.2277
  708POPI   PO410920   3.500   3.705   5.047  0.1157  0.0157  0.0113
  708POPI   GL110921   3.618   4.068   5.351 -0.1253 -0.0518  0.0826
  708POPI   GL210922   3.953   3.975   5.164  0.3272  0.2046 -0.1953
  708POPI   C1A10923   3.622   3.857   5.741 -0.2203  0.0198 -0.0047
  708POPI   D2A10924   3.706   3.573   6.133  0.3185 -0.0558 -0.2117
  708POPI   C3A10925   3.569   3.687   6.564  0.0240 -0.0346  0.2163
  708POPI   C4A10926   3.758   3.533   6.865 -0.3482  0.1366 -0.0854
  708POPI   C1B10927   4.023   3.738   5.431  0.4622  0.2234  0.1363
  708POPI   C2B10928   4.119   3.543   5.867  0.2878 -0.2008  0.0587
  708POPI   C3B10929   4.188   3.657   6.240  0.0035  0.3385  0.4210
  708POPI   C4B10930   4.124   3.820   6.607  0.3759  0.1546  0.2607
  709POPI    C110931   6.204  11.867   4.737  0.2881  0.0190  0.0763
  709POPI    C210932   6.473  12.045   4.499  0.0207  0.1123 -0.1623
  709POPI    C310933   6.472  11.646   4.538  0.1353  0.1049 -0.2325
  709POPI   PO410934   6.234  12.013   5.036  0.1701 -0.2952  0.2483
  709POPI   GL110935   6.328  11.864   5.487  0.0609 -0.2147  0.2661
  709POPI   GL210936   6.434  11.573   5.527 -0.0253  0.1256 -0.0768
  709POPI   C1A10937   6.560  11.811   5.889 -0.0824  0.0977  0.1223
  709POPI   D2A10938   6.852  11.551   6.185 -0.3597 -0.2762 -0.0695
  709POPI   C3A10939   6.844  11.155   6.484  0.2711 -0.2429 -0.2080
  709POPI   C4A10940   6.629  10.928   6.860  0.0988 -0.3351  0.3327
  709POPI   C1B10941   6.129  11.587   5.849  0.0068  0.1825 -0.0954
  709POPI   C2B10942   6.081  11.871   6.133 -0.0584 -0.2677  0.1599
  709POPI   C3B10943   5.776  11.973   6.323 -0.0755 -0.4630 -0.1414
  709POPI   C4B10944   5.556  12.051   6.672 -0.2711  0.0364 -0.3880
  710POPI    C110945   7.977   5.818   5.336  0.2146  0.0534 -0.0005
  710POPI    C210946   7.841   6.192   5.305 -0.3081 -0.1069  0.2474
  710POPI    C310947   8.102   6.098   5.593  0.0561  0.1229  0.0014
  710POPI   PO410948   7.756   5.673   5.273  0.0115 -0.4998  0.0427
  710POPI   GL110949   7.455   5.389   5.603 -0.0188 -0.2616  0.1486
  710POPI   GL210950   7.206   5.676   5.887 -0.2679  0.0712 -0.0536
  710POPI   C1A10951   7.493   5.199   6.016 -0.5551  0.0280 -0.1546
  710POPI   D2A10952   7.650   5.137   6.404 -0.1006  0.2532 -0.0821
  710POPI   C3A10953   7.303   4.872   6.610 -0.0499 -0.1221 -0.2123
  710POPI   C4A10954   6.900   4.682   6.574  0.3249  0.3786  0.0991
  710POPI   C1B10955   7.504   5.685   6.191  0.1230 -0.0469 -0.2175
  710POPI   C2B10956   7.740   5.685   6.562 -0.3998 -0.2127  0.0138
  710POPI   C3B10957   7.949   5.374   6.783  0.1915 -0.0694  0.3347
  710POPI   C4B10958   8.291   5.549   7.043 -0.1398  0.1725 -0.2603
  711POPI    C110959  17.368  17.052   5.207 -0.3550 -0.1372 -0.0803
  711POPI    C210960  17.297  17.377   5.430  0.0339 -0.0367 -0.0966
  711POPI    C310961  17.505  17.408   5.089  0.0745 -0.3029 -0.0988
  711POPI   PO410962  17.504  16.904   5.449  0.2231  0.0333  0.1588
  711POPI   GL110963  17.462  16.915   5.953  0.0770 -0.1798  0.2356
  711POPI   GL210964  17.110  16.837   5.982 -0.0507 -0.1109 -0.0822
  711POPI   C1A10965  17.521  16.875   6.406 -0.0714 -0.2625 -0.2407
  711POPI   D2A10966  17.752  16.839   6.776  0.1471 -0.3659  0.1025
  711POPI   C3A10967  17.666  16.684   7.173  0.2709  0.0732  0.1281
  711POPI   C4A10968  17.720  16.850   7.617 -0.0646 -0.0395  0.1218
  711POPI   C1B10969  17.075  16.895   6.492  0.1992  0.0927  0.1433
  711POPI   C2B10970  17.268  16.876   6.917  0.4526 -0.2715  0.4493
  711POPI   C3B10971  17.069  16.719   7.274  0.3170 -0.2148 -0.1573
  711POPI   C4B10972  16.722  16.671   7.336 -0.0934  0.1188 -0.2033
  712POPI    C110973  15.188  18.849   5.339  0.0329 -0.2059  0.1416
  712POPI    C210974  15.185  18.816   4.940  0.3349  0.0145  0.1182
  712POPI    C310975  15.252  18.493   5.167 -0.0044 -0.1440 -0.0019
  712POPI   PO410976  14.969  18.913   5.425 -0.0899  0.3408 -0.0686
  712POPI   GL110977  14.907  19.108   5.818 -0.2764 -0.0473 -0.2782
  712POPI   GL210978  15.263  19.018   5.888  0.1260 -0.3621  0.1083
  712POPI   C1A10979  14.746  18.907   6.268 -0.1294  0.0573  0.1658
  712POPI   D2A10980  14.793  18.715   6.590  0.3208 -0.2376  0.1749
  712POPI   C3A10981  15.143  18.563   6.955 -0.1798 -0.3401 -0.2579
  712POPI   C4A10982  14.819  18.429   7.188 -0.1940  0.2027  0.0632
  712POPI   C1B10983  15.233  18.815   6.292  0.0868  0.1106 -0.2612
  712POPI   C2B10984  15.233  18.358   6.368  0.2163 -0.2101  0.0961
  712POPI   C3B10985  14.979  17.972   6.288 -0.2950  0.0188  0.1309
  712POPI   C4B10986  14.578  17.914   6.159 -0.1322  0.3867  0.0360
  713POPI    C110987   6.754   7.905   4.890  0.2050  0.2030  0.2415
  713POPI    C210988   6.845   7.576   5.098  0.2412 -0.0930 -0.2266
  713POPI    C310989   7.003   7.632   4.735  0.0378  0.3221 -0.2563
  713POPI   PO410990   6.682   8.059   5.052  0.0306  0.0336 -0.0516
  713POPI   GL110991   6.699   8.068   5.494  0.2768  0.2965  0.2393
  713POPI   GL210992   6.573   7.799   5.541 -0.2364  0.0658 -0.0947
  713POPI   C1A10993   6.623   8.233   5.853 -0.1282 -0.0182 -0.0649
  713POPI   D2A10994   6.621   8.284   6.269  0.0182  0.3728 -0.1873
  713POPI   C3A10995   6.555   8.675   6.560 -0.1212  0.1396  0.0833
  713POPI   C4A10996   6.448   8.956   6.854 -0.0250 -0.4393  0.1629
  713POPI   C1B10997   6.878   7.838   5.914  0.3946  0.0648 -0.0328
  713POPI   C2B10998   6.926   7.845   6.416 -0.0216 -0.1176 -0.0331
  713POPI   C3B10999   7.107   8.275   6.577  0.2569 -0.4283  0.2449
  713POPI   C4B11000   7.154   8.683   6.678  0.1954  0.1203  0.1724
  714POPI    C111001   7.960   3.548   5.123  0.1048  0.0812 -0.0683
  714POPI    C211002   8.103   3.621   5.489 -0.1291 -0.2652  0.0967
  714POPI    C311003   8.280   3.348   5.256  0.1487  0.1055 -0.1366
  714POPI   PO411004   7.807   3.815   5.074  0.2016 -0.1251 -0.0516
  714POPI   GL111005   7.877   4.107   5.391  0.1426 -0.0377 -0.1068
  714POPI   GL211006   7.594   3.881   5.480 -0.4176 -0.0300  0.2330
  714POPI   C1A11007   8.125   4.043   5.761  0.1240 -0.1418  0.2881
  714POPI   D2A11008   8.099   3.955   6.254 -0.5178 -0.1701  0.1467
  714POPI   C3A11009   8.329   3.631   6.553  0.0707 -0.0343  0.2212
  714POPI   C4A11010   8.337   3.212   6.673  0.1582 -0.1529  0.3999
  714POPI   C1B11011   7.745   3.767   5.827 -0.0033 -0.3543 -0.1990
  714POPI   C2B11012   7.652   3.662   6.212  0.3252  0.0240  0.0352
  714POPI   C3B11013   7.433   3.302   6.367  0.0278 -0.0158  0.3032
  714POPI   C4B11014   7.354   3.130   6.815  0.0686 -0.1185  0.1035
  715POPI    C111015   2.408  16.878   5.063 -0.1095 -0.1077  0.3175
  715POPI    C211016   2.259  17.146   5.321  0.1195  0.3438 -0.0059
  715POPI    C311017   2.041  17.027   5.007 -0.0628 -0.0169  0.2504
  715POPI   PO411018   2.722  16.995   5.084  0.0637 -0.1491  0.0925
  715POPI   GL111019   2.772  17.016   5.501  0.0144 -0.1862 -0.1527
  715POPI   GL211020   3.151  17.194   5.378  0.2461  0.0754  0.4490
  715POPI   C1A11021   2.979  17.024   5.808  0.0695 -0.2285 -0.1503
  715POPI   D2A11022   3.089  16.642   6.063 -0.1154  0.1822 -0.0789
  715POPI   C3A11023   2.991  16.700   6.540 -0.4730 -0.2125 -0.3253
  715POPI   C4A11024   2.926  16.717   6.957  0.0670 -0.0820 -0.3282
  715POPI   C1B11025   3.353  17.409   5.725 -0.2055 -0.2157  0.2975
  715POPI   C2B11026   3.375  17.140   6.127 -0.1283 -0.1203 -0.1678
  715POPI   C3B11027   3.483  16.818   6.385 -0.0090  0.0820 -0.1255
  715POPI   C4B11028   3.487  16.350   6.374  0.2663 -0.1639 -0.2555
  716POPI    C111029  12.048  14.381   5.032 -0.1016  0.2237 -0.0870
  716POPI    C211030  11.909  14.188   4.711 -0.0444 -0.2605  0.1695
  716POPI    C311031  12.287  14.317   4.718 -0.1324  0.0226 -0.0709
  716POPI   PO411032  11.908  14.494   5.173  0.0376  0.2264  0.0501
  716POPI   GL111033  11.548  14.623   5.315 -0.1517 -0.0974  0.3529
  716POPI   GL211034  11.829  14.628   5.645  0.3024  0.1089  0.0120
  716POPI   C1A11035  11.551  15.043   5.442 -0.0982 -0.1715  0.3600
  716POPI   D2A11036  11.402  15.358   5.726 -0.1348 -0.1676  0.0333
  716POPI   C3A11037  11.221  15.135   5.966  0.1768  0.0940  0.3920
  716POPI   C4A11038  10.928  14.839   6.018 -0.0358  0.1559  0.2209
  716POPI   C1B11039  11.732  15.015   5.903  0.3302  0.1887 -0.2890
  716POPI   C2B11040  11.580  15.215   6.260 -0.3067 -0.0257  0.1044
  716POPI   C3B11041  11.674  15.324   6.740 -0.2216  0.1071 -0.3886
  716POPI   C4B11042  11.579  15.755   6.952 -0.4291  0.1811  0.1814
  717POPI    C111043  14.505  17.559   4.990 -0.2686 -0.2120 -0.0204
  717POPI    C211044  14.787  17.691   4.739  0.1932 -0.4563  0.3555
  717POPI    C311045  14.468  17.496   4.597 -0.0106  0.1861 -0.1145
  717POPI   PO411046  14.356  17.672   5.103  0.1285  0.0036 -0.1085
  717POPI   GL111047  14.480  17.915   5.516  0.0638 -0.0707  0.1070
  717POPI   GL211048  14.801  17.747   5.538 -0.1509  0.1564  0.1321
  717POPI   C1A11049  14.393  18.205   5.739  0.0496 -0.1638 -0.2108
  717POPI   D2A11050  14.113  18.132   6.023  0.2032  0.0054  0.3863
  717POPI   C3A11051  13.684  18.005   6.058  0.1784 -0.0232 -0.0083
  717POPI   C4A11052  13.505  17.839   6.453  0.3079 -0.2336  0.0687
  717POPI   C1B11053  14.972  18.094   5.803 -0.1198 -0.2296 -0.0436
  717POPI   C2B11054  14.780  18.445   5.995  0.1513 -0.3870  0.1746
  717POPI   C3B11055  14.452  18.386   6.274 -0.4648  0.2152 -0.1157
  717POPI   C4B11056  14.366  18.331   6.818  0.4979 -0.3095  0.0843
  718POPI    C111057  19.046   5.000   5.292  0.0272 -0.1051 -0.0565
  718POPI    C211058  19.029   4.796   4.949  0.1082  0.1090 -0.1901
  718POPI    C311059  18.760   5.082   5.024 -0.0890 -0.1355  0.0570
  718POPI   PO411060  19.042   4.772   5.559 -0.2048  0.1012  0.0700
  718POPI   GL111061  19.016   4.849   6.085  0.0782 -0.1928  0.1252
  718POPI   GL211062  18.654   4.762   5.852 -0.4223  0.0462  0.0219
  718POPI   C1A11063  18.823   4.668   6.513 -0.0808  0.0218  0.0472
  718POPI   D2A11064  18.634   4.628   6.938 -0.2698  0.0097  0.0185
  718POPI   C3A11065  18.925   4.495   7.301  0.0222 -0.0082  0.2343
  718POPI   C4A11066  19.252   4.321   7.668 -0.1123 -0.1473 -0.4044
  718POPI   C1B11067  18.554   5.004   6.178 -0.0080 -0.0878 -0.1936
  718POPI   C2B11068  18.533   5.106   6.637  0.2662 -0.0063  0.0913
  718POPI   C3B11069  18.618   5.089   7.080 -0.0974  0.0931 -0.2828
  718POPI   C4B11070  18.564   4.825   7.427  0.1534 -0.0931 -0.0013
  719POPI    C111071  11.202  10.764   5.167 -0.1446 -0.2501 -0.1942
  719POPI    C211072  11.381  10.439   5.317  0.0271 -0.1543 -0.1885
  719POPI    C311073  11.596  10.766   5.234 -0.1763  0.0325  0.0039
  719POPI   PO411074  10.960  10.725   5.259  0.2703 -0.1161  0.1936
  719POPI   GL111075  10.889  10.603   5.628 -0.0187  0.0387  0.0740
  719POPI   GL211076  10.588  10.613   5.649  0.3829  0.2820 -0.0971
  719POPI   C1A11077  11.158  10.315   5.724 -0.2803 -0.0216  0.1587
  719POPI   D2A11078  11.168   9.878   5.758  0.2506  0.2970 -0.0431
  719POPI   C3A11079  11.302   9.768   6.184  0.2653  0.0381 -0.2790
  719POPI   C4A11080  11.335   9.742   6.673 -0.0149  0.0522  0.1137
  719POPI   C1B11081  10.564  10.732   6.117  0.5147  0.2942 -0.0742
  719POPI   C2B11082  10.486  10.796   6.457 -0.2279  0.0386  0.1571
  719POPI   C3B11083  10.578  10.919   6.878  0.1350  0.0381 -0.1790
  719POPI   C4B11084  10.737  11.222   7.194 -0.1897  0.2600  0.1640
  720POPI    C111085  13.465   6.689   5.138 -0.0542  0.1099  0.1889
  720POPI    C211086  13.148   6.527   4.957  0.0403  0.2680 -0.1250
  720POPI    C311087  13.502   6.531   4.772  0.2216  0.1167  0.2120
  720POPI   PO411088  13.311   6.880   5.278  0.0450  0.1960  0.0997
  720POPI   GL111089  13.173   6.896   5.637  0.0619 -0.2082  0.0345
  720POPI   GL211090  13.436   6.890   5.910 -0.0595 -0.1404  0.2036
  720POPI   C1A11091  13.059   7.228   5.810 -0.2795 -0.3710  0.2009
  720POPI   D2A11092  12.971   7.385   6.227 -0.0666 -0.0490  0.0968
  720POPI   C3A11093  12.925   7.272   6.605 -0.0616  0.1073  0.2557
  720POPI   C4A11094  12.895   7.141   7.024  0.2034 -0.1852 -0.0595
  720POPI   C1B11095  13.566   6.927   6.284  0.2022 -0.0098  0.2814
  720POPI   C2B11096  13.777   6.948   6.654 -0.2165  0.1237 -0.1331
  720POPI   C3B11097  13.777   6.759   7.017 -0.0068  0.0357  0.0701
  720POPI   C4B11098  13.946   6.812   7.444  0.0796  0.1939  0.0613
  721POPI    C111099   7.821  16.371   4.673  0.1815  0.1053  0.2186
  721POPI    C211100   7.859  16.048   4.441  0.1082  0.0879  0.2309
  721POPI    C311101   7.603  16.044   4.748 -0.0527  0.2320  0.1009
  721POPI   PO411102   8.130  16.496   4.856 -0.1482 -0.1620 -0.1014
  721POPI   GL111103   8.319  16.258   5.219 -0.1511 -0.2363  0.1139
  721POPI   GL211104   8.538  15.989   5.183  0.1759  0.0546  0.2719
  721POPI   C1A11105   8.113  16.349   5.569  0.3058  0.1203 -0.1461
  721POPI   D2A11106   7.822  16.102   5.853  0.1467 -0.5459 -0.1428
  721POPI   C3A11107   7.857  16.010   6.235  0.0132 -0.0010 -0.1907
  721POPI   C4A11108   8.120  15.798   6.439  0.5391  0.0503  0.2696
  721POPI   C1B11109   8.592  16.097   5.608 -0.1625  0.0687  0.0151
  721POPI   C2B11110   8.737  16.257   5.992 -0.1108  0.1277  0.2034
  721POPI   C3B11111   8.837  16.592   6.346 -0.2132  0.1940 -0.0192
  721POPI   C4B11112   8.775  17.043   6.486 -0.2289 -0.1537  0.2413
  722POPI    C111113   7.709  12.140   4.960  0.1115  0.0991  0.0529
  722POPI    C211114   8.094  12.165   4.853  0.1170 -0.2766 -0.0278
  722POPI    C311115   7.823  12.022   4.595 -0.0639 -0.0927  0.0582
  722POPI   PO411116   7.708  12.402   5.101 -0.0505 -0.1030 -0.0552
  722POPI   GL111117   7.474  12.769   5.381 -0.1146  0.3197  0.1777
  722POPI   GL211118   7.152  12.850   5.430 -0.2478 -0.2536  0.1890
  722POPI   C1A11119   7.895  12.665   5.713  0.2249 -0.1358 -0.2362
  722POPI   D2A11120   8.150  12.399   5.911  0.1492  0.0427 -0.1176
  722POPI   C3A11121   7.942  11.972   5.912  0.0045  0.6364  0.0815
  722POPI   C4A11122   7.569  11.807   5.757  0.0239  0.0484  0.0356
  722POPI   C1B11123   7.394  12.984   5.840 -0.2089  0.1181  0.0586
  722POPI   C2B11124   7.650  12.821   6.095  0.3022  0.1384 -0.2903
  722POPI   C3B11125   7.710  12.876   6.443  0.0498 -0.1529  0.1862
  722POPI   C4B11126   7.965  12.877   6.818  0.2320  0.2470  0.1246
  723POPI    C111127   4.443   8.189   5.322  0.0256  0.1045 -0.0197
  723POPI    C211128   4.371   8.151   4.930  0.3484 -0.2427 -0.0517
  723POPI    C311129   4.337   7.834   5.171  0.2966 -0.0648  0.1791
  723POPI   PO411130   4.361   8.406   5.479  0.5521 -0.2638 -0.0122
  723POPI   GL111131   4.443   8.450   5.865  0.2016  0.0959  0.0722
  723POPI   GL211132   4.250   8.137   5.968  0.0509  0.1796 -0.1044
  723POPI   C1A11133   4.696   8.242   6.141 -0.0330 -0.3338  0.0423
  723POPI   D2A11134   4.837   7.947   6.431  0.2972  0.3252 -0.1104
  723POPI   C3A11135   5.347   7.992   6.480  0.1178  0.3103  0.0668
  723POPI   C4A11136   5.696   8.203   6.726  0.0455 -0.0409 -0.2716
  723POPI   C1B11137   4.188   8.360   6.303  0.2449 -0.2381  0.1952
  723POPI   C2B11138   3.865   8.366   6.726 -0.1163  0.4176  0.0792
  723POPI   C3B11139   3.991   8.593   7.082  0.3918  0.1755 -0.3613
  723POPI   C4B11140   3.875   8.981   7.295 -0.2660  0.1618  0.2715
  724POPI    C111141   4.612  18.634   4.529 -0.0803  0.2745 -0.0096
  724POPI    C211142   4.306  18.395   4.431  0.2631 -0.1535 -0.0671
  724POPI    C311143   4.262  18.792   4.416 -0.2500 -0.2077 -0.1859
  724POPI   PO411144   4.652  18.594   4.865 -0.2082  0.1180 -0.0456
  724POPI   GL111145   4.929  18.511   5.115  0.1968 -0.0624 -0.0031
  724POPI   GL211146   4.948  18.108   5.254 -0.0904 -0.0195  0.0358
  724POPI   C1A11147   4.813  18.451   5.624 -0.2256 -0.2102  0.0465
  724POPI   D2A11148   4.940  18.719   6.048  0.2951 -0.0028  0.0660
  724POPI   C3A11149   5.401  18.729   6.139 -0.1846 -0.1240 -0.0625
  724POPI   C4A11150   5.801  18.911   5.867  0.0458  0.1302 -0.3548
  724POPI   C1B11151   4.940  18.004   5.810 -0.1455 -0.1746  0.0248
  724POPI   C2B11152   4.919  17.948   6.246 -0.0463 -0.1138  0.5173
  724POPI   C3B11153   4.860  17.560   6.477 -0.0793  0.1990 -0.0961
  724POPI   C4B11154   4.400  17.551   6.614 -0.1840 -0.2113  0.1694
  725POPI    C111155   7.171  13.054   4.888  0.2149  0.1505  0.0097
  725POPI    C211156   7.316  12.964   4.526 -0.0036  0.3725 -0.1360
  725POPI    C311157   7.538  12.899   4.852  0.1540  0.0708 -0.2991
  725POPI   PO411158   7.186  13.384   4.949 -0.4961 -0.2385  0.0795
  725POPI   GL111159   7.248  13.487   5.409  0.2734 -0.2505 -0.1309
  725POPI   GL211160   7.449  13.781   5.491  0.3154  0.1606  0.2102
  725POPI   C1A11161   7.463  13.438   5.867  0.1578  0.0331 -0.1076
  725POPI   D2A11162   7.641  13.321   6.189  0.1914  0.0728 -0.0279
  725POPI   C3A11163   7.898  13.396   6.562  0.1870  0.1439  0.0906
  725POPI   C4A11164   8.153  13.617   6.816 -0.0327  0.0108  0.0793
  725POPI   C1B11165   7.810  13.913   5.798  0.0053  0.2236 -0.1513
  725POPI   C2B11166   7.726  14.157   6.108 -0.0024  0.0736 -0.2574
  725POPI   C3B11167   7.928  14.425   6.428  0.2117 -0.0988  0.0949
  725POPI   C4B11168   7.852  14.463   6.860 -0.3736 -0.2147 -0.1753
  726POPI    C111169   3.144   6.087   5.878 -0.1205  0.0148 -0.4729
  726POPI    C211170   3.241   5.884   5.547 -0.0419 -0.4444 -0.1786
  726POPI    C311171   2.995   5.721   5.817  0.0619 -0.1648  0.0917
  726POPI   PO411172   3.411   6.272   5.859 -0.2538  0.0436 -0.0772
  726POPI   GL111173   3.781   6.247   6.156  0.1948 -0.3016  0.0606
  726POPI   GL211174   3.981   5.983   6.167 -0.0251  0.2336 -0.0691
  726POPI   C1A11175   3.588   6.405   6.491 -0.2067 -0.2063  0.0465
  726POPI   D2A11176   3.251   6.667   6.680 -0.0183 -0.2192 -0.3744
  726POPI   C3A11177   3.430   6.735   7.041 -0.0707 -0.0722 -0.1506
  726POPI   C4A11178   3.626   6.449   7.137  0.0131  0.2111  0.0535
  726POPI   C1B11179   3.694   5.876   6.484 -0.0837 -0.0842 -0.3534
  726POPI   C2B11180   3.675   5.810   7.025  0.1127  0.3055  0.3984
  726POPI   C3B11181   3.871   5.983   7.387  0.1755 -0.1183  0.1909
  726POPI   C4B11182   4.145   5.776   7.689 -0.1680 -0.2683  0.3753
  727POPI    C111183   2.348   8.807   5.686 -0.0803  0.1588 -0.2410
  727POPI    C211184   2.703   8.633   5.629 -0.0512  0.1603 -0.0702
  727POPI    C311185   2.543   8.860   5.341 -0.0802 -0.1304 -0.2877
  727POPI   PO411186   2.375   8.854   5.975  0.4087 -0.0795 -0.0157
  727POPI   GL111187   2.532   8.749   6.460 -0.2271 -0.2439  0.3077
  727POPI   GL211188   2.488   8.355   6.273 -0.0987 -0.3219 -0.1857
  727POPI   C1A11189   2.459   8.907   6.786  0.1402 -0.2252  0.0711
  727POPI   D2A11190   2.328   8.991   7.191  0.0195 -0.2289 -0.0908
  727POPI   C3A11191   2.348   9.253   7.536  0.3115 -0.2455 -0.1622
  727POPI   C4A11192   2.198   9.572   7.878 -0.2110 -0.2921  0.2193
  727POPI   C1B11193   2.367   8.269   6.654  0.0693 -0.0705  0.0559
  727POPI   C2B11194   2.470   7.996   6.983 -0.0722 -0.1867  0.1284
  727POPI   C3B11195   2.589   7.637   7.175 -0.4949 -0.3329  0.1863
  727POPI   C4B11196   2.611   7.234   7.415 -0.0010 -0.4493 -0.1547
  728POPI    C111197  10.543   5.541   5.215 -0.0000  0.1310 -0.0887
  728POPI    C211198  10.643   5.718   4.870 -0.1214  0.2473 -0.0653
  728POPI    C311199  10.265   5.730   4.998 -0.1489 -0.1004 -0.1030
  728POPI   PO411200  10.808   5.615   5.346 -0.1779  0.2209 -0.2236
  728POPI   GL111201  10.926   5.742   5.770 -0.0946  0.0365 -0.1574
  728POPI   GL211202  10.562   5.702   5.846 -0.2163 -0.5944 -0.0756
  728POPI   C1A11203  11.098   5.803   6.005 -0.0371  0.1303  0.1931
  728POPI   D2A11204  11.300   5.930   6.315 -0.1882 -0.0695  0.2981
  728POPI   C3A11205  11.739   5.822   6.406 -0.0232  0.0763  0.0506
  728POPI   C4A11206  12.166   5.647   6.339 -0.0203 -0.0704 -0.1522
  728POPI   C1B11207  10.718   5.762   6.351  0.2534 -0.1880  0.2140
  728POPI   C2B11208  10.934   5.888   6.735 -0.0415  0.0228 -0.0968
  728POPI   C3B11209  11.201   6.171   6.707 -0.2707 -0.1288  0.1580
  728POPI   C4B11210  11.233   6.569   6.498  0.0322  0.0293 -0.1035
  729POPI    C111211   2.634   7.820   5.830  0.0055  0.0411  0.3004
  729POPI    C211212   2.820   7.636   5.528 -0.2158  0.2412  0.0357
  729POPI    C311213   2.462   7.803   5.469 -0.2598  0.2875  0.4110
  729POPI   PO411214   2.809   8.060   5.981 -0.0280 -0.2138 -0.2183
  729POPI   GL111215   3.217   8.114   6.249  0.1893  0.2230  0.0548
  729POPI   GL211216   3.571   8.168   6.278  0.0101 -0.2596 -0.1428
  729POPI   C1A11217   2.974   8.191   6.584  0.4079  0.0811 -0.0744
  729POPI   D2A11218   2.813   8.352   6.869 -0.0994 -0.2926  0.0784
  729POPI   C3A11219   2.964   7.989   7.288  0.2222 -0.3024 -0.0276
  729POPI   C4A11220   3.050   7.489   7.464 -0.0249 -0.1467 -0.2789
  729POPI   C1B11221   3.886   7.914   6.468  0.2239 -0.0045  0.0578
  729POPI   C2B11222   4.084   7.816   6.911  0.3347  0.2259  0.0291
  729POPI   C3B11223   4.014   8.127   7.241  0.0331 -0.1202 -0.4194
  729POPI   C4B11224   4.152   8.398   7.550  0.2485  0.3187 -0.0960
  730POPI    C111225   7.835  17.273   4.566 -0.1045 -0.3058  0.1956
  730POPI    C211226   7.483  17.101   4.487 -0.0090 -0.3311 -0.1935
  730POPI    C311227   7.817  16.965   4.312  0.1668 -0.1804  0.0189
  730POPI   PO411228   7.769  17.415   4.811 -0.0321  0.2855 -0.0094
  730POPI   GL111229   7.723  17.664   5.063 -0.2167  0.1293 -0.0291
  730POPI   GL211230   7.882  17.923   5.038  0.0468 -0.1301  0.2193
  730POPI   C1A11231   7.454  17.967   5.348 -0.1535  0.2145  0.0429
  730POPI   D2A11232   7.595  18.236   5.755 -0.1087  0.0515  0.0787
  730POPI   C3A11233   7.910  18.488   5.889  0.1951 -0.0610 -0.1208
  730POPI   C4A11234   8.313  18.607   6.051 -0.1664  0.1736 -0.2181
  730POPI   C1B11235   7.961  17.869   5.535  0.3036  0.3467 -0.0335
  730POPI   C2B11236   8.242  17.681   5.939 -0.0094  0.0439 -0.0556
  730POPI   C3B11237   8.552  17.757   6.225  0.3655 -0.0258  0.0500
  730POPI   C4B11238   8.676  17.496   6.596  0.1954  0.1259  0.1448
  731POPI    C111239   9.959   3.762   4.869 -0.0911 -0.2407  0.2386
  731POPI    C211240  10.326   3.834   5.010 -0.0325 -0.1024  0.0203
  731POPI    C311241  10.280   3.641   4.663 -0.1610  0.0413 -0.0437
  731POPI   PO411242   9.784   3.853   5.079  0.0760  0.1034 -0.0093
  731POPI   GL111243   9.617   3.925   5.469  0.0854 -0.0880 -0.0076
  731POPI   GL211244   9.402   4.104   5.585 -0.0651  0.2285 -0.1396
  731POPI   C1A11245  10.060   4.102   5.702  0.1028  0.0350  0.1243
  731POPI   D2A11246  10.030   4.270   6.254 -0.0793 -0.0326 -0.0801
  731POPI   C3A11247   9.791   3.885   6.545  0.4906  0.3559 -0.0378
  731POPI   C4A11248   9.819   3.440   6.726  0.2431 -0.3339 -0.2295
  731POPI   C1B11249   9.431   4.285   6.168 -0.1912 -0.0128 -0.4782
  731POPI   C2B11250   9.521   4.400   6.548 -0.0324 -0.3996 -0.0292
  731POPI   C3B11251   9.575   4.289   6.909  0.0007  0.1220 -0.1461
  731POPI   C4B11252   9.497   4.573   7.209 -0.2127  0.1972 -0.3455
  732POPI    C111253  13.802   5.656   5.100  0.1936  0.1982 -0.0601
  732POPI    C211254  13.936   5.331   4.910  0.2787  0.2637 -0.1129
  732POPI    C311255  13.781   5.635   4.701  0.2237  0.2683 -0.0656
  732POPI   PO411256  13.938   5.576   5.413  0.1777  0.1828  0.1677
  732POPI   GL111257  14.111   5.224   5.755 -0.0309 -0.0955  0.2216
  732POPI   GL211258  13.844   5.443   5.928  0.0818  0.1531 -0.1068
  732POPI   C1A11259  14.234   5.316   6.175 -0.0654  0.3815  0.3056
  732POPI   D2A11260  14.478   5.451   6.624 -0.0020 -0.3598  0.1331
  732POPI   C3A11261  14.203   5.710   7.009 -0.1972  0.2314  0.1222
  732POPI   C4A11262  14.035   5.578   7.401 -0.2488  0.0106  0.1212
  732POPI   C1B11263  13.830   5.664   6.291 -0.0708  0.1108  0.1490
  732POPI   C2B11264  13.772   5.689   6.716  0.0254  0.0702 -0.0671
  732POPI   C3B11265  13.601   5.577   7.099 -0.6570 -0.0087  0.0541
  732POPI   C4B11266  13.630   5.339   7.502  0.0560  0.2954 -0.0222
  733POPI    C111267  12.923  17.240   4.840 -0.1196  0.0385  0.1251
  733POPI    C211268  13.124  17.584   4.876 -0.1023  0.0404  0.0172
  733POPI    C311269  13.308  17.236   4.948 -0.1032  0.0502  0.0682
  733POPI   PO411270  12.697  17.297   4.961  0.3887 -0.0997  0.5238
  733POPI   GL111271  12.423  16.981   5.162 -0.1582 -0.0827  0.2166
  733POPI   GL211272  12.689  17.129   5.439 -0.4466 -0.0854 -0.0395
  733POPI   C1A11273  12.241  16.952   5.558  0.2664  0.0762  0.1114
  733POPI   D2A11274  12.141  16.893   6.070  0.2080  0.2033 -0.2117
  733POPI   C3A11275  11.987  16.506   6.285 -0.0403 -0.3409 -0.0433
  733POPI   C4A11276  12.144  16.282   6.625  0.1817  0.0152  0.1014
  733POPI   C1B11277  12.991  17.126   5.552 -0.2093 -0.0541 -0.0353
  733POPI   C2B11278  13.288  17.050   5.926 -0.1135 -0.0863  0.1895
  733POPI   C3B11279  13.303  16.957   6.358 -0.1113  0.0739 -0.0726
  733POPI   C4B11280  13.342  16.468   6.347  0.0838  0.4314  0.2474
  734POPI    C111281   8.241  16.993   4.714 -0.0948 -0.0529 -0.0763
  734POPI    C211282   8.551  16.742   4.693  0.0802  0.1589 -0.0612
  734POPI    C311283   8.331  16.816   4.368 -0.0215 -0.0735 -0.0469
  734POPI   PO411284   8.310  17.137   4.840 -0.1374 -0.1509  0.2278
  734POPI   GL111285   8.169  17.415   5.193 -0.1810 -0.0541 -0.1355
  734POPI   GL211286   7.941  17.107   5.201 -0.1322 -0.0931  0.0726
  734POPI   C1A11287   8.454  17.167   5.446 -0.3272 -0.2741  0.0674
  734POPI   D2A11288   8.851  17.055   5.535  0.3107  0.0451  0.0473
  734POPI   C3A11289   8.996  17.463   5.387  0.2521 -0.0133 -0.3760
  734POPI   C4A11290   8.950  17.929   5.332 -0.1356 -0.0625  0.1449
  734POPI   C1B11291   7.837  17.319   5.624 -0.2586 -0.0016  0.0146
  734POPI   C2B11292   7.581  17.748   5.892 -0.0731 -0.2894 -0.1167
  734POPI   C3B11293   7.672  18.068   6.259  0.2924 -0.2506 -0.1950
  734POPI   C4B11294   7.602  18.343   6.611  0.1351 -0.1893  0.1330
  735POPI    C111295  18.419  11.701   5.607  0.1588  0.0316  0.0381
  735POPI    C211296  18.081  11.581   5.430  0.1518 -0.1122  0.1475
  735POPI    C311297  18.433  11.429   5.315  0.1849  0.0698  0.0036
  735POPI   PO411298  18.344  11.774   5.911 -0.3661  0.2186  0.0421
  735POPI   GL111299  18.440  11.981   6.305 -0.0090 -0.0449  0.4313
  735POPI   GL211300  18.098  11.847   6.293  0.2764  0.1564  0.3382
  735POPI   C1A11301  18.269  11.798   6.765  0.2403 -0.4938  0.0955
  735POPI   D2A11302  17.785  11.877   6.954  0.0581 -0.0927  0.1700
  735POPI   C3A11303  17.521  11.433   7.152 -0.1593  0.1768 -0.0926
  735POPI   C4A11304  17.283  11.132   7.286 -0.0490 -0.0757  0.0516
  735POPI   C1B11305  17.690  12.139   6.491 -0.2131 -0.0506  0.1876
  735POPI   C2B11306  17.409  12.229   6.850 -0.2131 -0.2288 -0.1123
  735POPI   C3B11307  17.391  12.261   7.336 -0.1568 -0.2929  0.0469
  735POPI   C4B11308  17.148  11.987   7.719  0.0506  0.0841 -0.2015
  736POPI    C111309   7.185   3.243   4.838  0.0049  0.0919 -0.0679
  736POPI    C211310   7.425   3.555   4.908 -0.0084  0.0618  0.1178
  736POPI    C311311   7.144   3.578   4.624  0.0552  0.1829  0.0640
  736POPI   PO411312   7.030   3.112   5.035 -0.0570 -0.2164  0.2232
  736POPI   GL111313   6.754   2.980   5.388  0.0837  0.1463  0.0508
  736POPI   GL211314   6.575   3.247   5.304 -0.3740 -0.0074 -0.2394
  736POPI   C1A11315   6.614   2.837   5.765 -0.2435  0.1012 -0.1019
  736POPI   D2A11316   6.794   2.631   6.134  0.1423  0.0055  0.0320
  736POPI   C3A11317   6.781   2.809   6.468 -0.1433  0.2790 -0.0086
  736POPI   C4A11318   6.503   2.956   6.822 -0.0808  0.1804 -0.0544
  736POPI   C1B11319   6.699   3.378   5.732  0.1351 -0.0948 -0.0089
  736POPI   C2B11320   6.664   3.458   6.145 -0.1312  0.3027 -0.1188
  736POPI   C3B11321   6.963   3.320   6.557 -0.4999  0.1705  0.6082
  736POPI   C4B11322   6.929   3.370   7.004 -0.0239 -0.0617  0.1520
  737POPS   CNO11323   1.442  15.925   5.619  0.2618  0.1088  0.6091
  737POPS   PO411324   1.306  15.796   5.287 -0.1007 -0.2323 -0.0179
  737POPS   GL111325   1.065  15.514   5.638 -0.0850  0.1949 -0.2479
  737POPS   GL211326   1.116  15.723   5.937  0.0465 -0.0620  0.0196
  737POPS   C1A11327   1.030  15.244   6.126  0.2195  0.0210 -0.1625
  737POPS   D2A11328   1.142  15.262   6.550  0.2369 -0.1361 -0.4089
  737POPS   C3A11329   1.312  15.102   6.911  0.0250 -0.0281 -0.1266
  737POPS   C4A11330   1.746  15.139   7.150  0.2113  0.1503 -0.3318
  737POPS   C1B11331   0.964  15.791   6.406 -0.0863 -0.1821  0.2825
  737POPS   C2B11332   0.913  15.893   6.772  0.3111  0.2345  0.0382
  737POPS   C3B11333   0.764  15.666   7.133 -0.0462 -0.0543 -0.0140
  737POPS   C4B11334   0.506  15.637   7.451 -0.0898 -0.1302 -0.0689
  738POPS   CNO11335   4.811   3.467   4.579  0.3948 -0.2007  0.3574
  738POPS   PO411336   4.960   3.160   4.830  0.2496  0.0035  0.2752
  738POPS   GL111337   4.701   3.259   5.086 -0.1473 -0.3677 -0.2995
  738POPS   GL211338   4.706   3.584   5.218 -0.0060 -0.0332  0.2512
  738POPS   C1A11339   4.292   3.072   5.317 -0.3811  0.2294 -0.2266
  738POPS   D2A11340   4.163   3.013   5.714  0.0557  0.1096 -0.3289
  738POPS   C3A11341   4.108   2.738   5.988  0.2046  0.2057  0.2726
  738POPS   C4A11342   3.773   2.640   6.315  0.2836 -0.0758 -0.0143
  738POPS   C1B11343   4.566   3.461   5.572 -0.0931  0.1367 -0.0012
  738POPS   C2B11344   4.550   3.329   5.990 -0.0053  0.6283  0.3009
  738POPS   C3B11345   4.690   3.521   6.335  0.0135 -0.1971  0.1093
  738POPS   C4B11346   4.719   3.234   6.622 -0.1088 -0.0151 -0.0541
  739POPS   CNO11347   2.310   5.026   5.540 -0.0114  0.0970  0.0800
  739POPS   PO411348   2.795   4.883   5.432  0.0477  0.2945 -0.0943
  739POPS   GL111349   2.779   4.920   5.814  0.2722 -0.1366  0.2356
  739POPS   GL211350   2.764   5.221   5.828 -0.1157  0.0472 -0.4486
  739POPS   C1A11351   2.962   4.852   6.192  0.2720 -0.3451 -0.0916
  739POPS   D2A11352   3.250   4.660   6.527 -0.0609 -0.2692  0.0335
  739POPS   C3A11353   3.258   4.756   7.009  0.2256 -0.0574  0.1258
  739POPS   C4A11354   3.242   5.093   7.162  0.0876 -0.3058 -0.1247
  739POPS   C1B11355   2.899   5.356   6.143  0.2189 -0.0137  0.0637
  739POPS   C2B11356   3.187   5.597   6.434 -0.1347 -0.3244  0.1189
  739POPS   C3B11357   3.120   5.891   6.723  0.0671  0.0139  0.2707
  739POPS   C4B11358   3.226   6.301   6.929 -0.1261 -0.1097 -0.1541
  740POPS   CNO11359  16.177   7.018   5.600  0.1557 -0.2653 -0.2794
  740POPS   PO411360  16.257   6.523   5.697  0.0814 -0.3225 -0.2631
  740POPS   GL111361  16.443   6.355   6.085 -0.1466 -0.1872 -0.0438
  740POPS   GL211362  16.232   6.321   6.229  0.2811 -0.2652 -0.1822
  740POPS   C1A11363  16.826   6.441   6.214 -0.0953 -0.0421  0.3161
  740POPS   D2A11364  17.031   6.861   6.331  0.0523  0.1159  0.1769
  740POPS   C3A11365  16.829   7.211   6.574 -0.0135 -0.0070  0.0617
  740POPS   C4A11366  16.760   7.446   7.012 -0.0476  0.4229 -0.2179
  740POPS   C1B11367  15.829   6.468   6.442 -0.0442 -0.0339  0.2533
  740POPS   C2B11368  15.758   6.576   6.824  0.1005  0.0421  0.0036
  740POPS   C3B11369  15.759   7.023   6.923  0.0554 -0.0729 -0.0392
  740POPS   C4B11370  15.836   7.376   7.177  0.0313  0.0553  0.0972
  741POPS   CNO11371  17.903  10.341   5.918 -0.3664 -0.1078  0.4418
  741POPS   PO411372  18.062   9.879   6.085  0.0270 -0.0127 -0.1540
  741POPS   GL111373  18.025   9.630   6.403 -0.0216 -0.0780  0.0690
  741POPS   GL211374  17.811   9.697   6.510  0.1215  0.2021 -0.1835
  741POPS   C1A11375  17.996   9.410   6.924 -0.0304  0.2842 -0.1905
  741POPS   D2A11376  17.940   9.171   7.261  0.1740  0.1767 -0.0029
  741POPS   C3A11377  17.551   9.182   7.518 -0.1318 -0.2235  0.0856
  741POPS   C4A11378  17.238   9.235   7.753 -0.2347  0.1873 -0.3281
  741POPS   C1B11379  18.025   9.935   6.814  0.0648 -0.1419  0.0765
  741POPS   C2B11380  18.051   9.934   7.251  0.0412  0.1930  0.1930
  741POPS   C3B11381  17.933  10.294   7.668  0.0482  0.3546 -0.0452
  741POPS   C4B11382  17.986  10.489   8.034 -0.0865 -0.3378 -0.1982
  742POPS   CNO11383  17.308  11.098   5.650 -0.2011  0.0377  0.1151
  742POPS   PO411384  17.020  10.813   5.911 -0.0400 -0.0423 -0.1889
  742POPS   GL111385  16.873  10.944   6.280  0.1854 -0.0200  0.0342
  742POPS   GL211386  16.586  11.016   6.153 -0.2806 -0.1919 -0.1618
  742POPS   C1A11387  16.837  10.720   6.689 -0.5570  0.2252 -0.2944
  742POPS   D2A11388  16.779  10.544   7.005  0.1968 -0.1384  0.0512
  742POPS   C3A11389  16.723  10.157   7.244 -0.1431 -0.0946 -0.1232
  742POPS   C4A11390  16.652   9.802   7.064  0.1442  0.0502  0.0444
  742POPS   C1B11391  16.617  11.199   6.666  0.1551  0.1505 -0.5024
  742POPS   C2B11392  16.742  11.021   7.098 -0.1949 -0.0424 -0.2384
  742POPS   C3B11393  16.959  10.790   7.379 -0.1553  0.0394  0.0364
  742POPS   C4B11394  17.047  10.386   7.535 -0.2304  0.3371  0.0139
  743POPS   CNO11395  17.582  13.889   5.194 -0.1791  0.4551 -0.2722
  743POPS   PO411396  18.039  13.884   5.325 -0.0709 -0.1401 -0.1757
  743POPS   GL111397  18.250  13.914   5.785  0.2266 -0.2906  0.1548
  743POPS   GL211398  18.539  13.837   5.705  0.2927  0.1682  0.1560
  743POPS   C1A11399  18.148  14.102   6.155  0.2790  0.1455 -0.1382
  743POPS   D2A11400  18.076  14.165   6.630  0.2658  0.0676  0.1110
  743POPS   C3A11401  17.844  14.540   6.873  0.2610 -0.3207 -0.3276
  743POPS   C4A11402  17.451  14.542   7.144 -0.1003 -0.1866  0.0002
  743POPS   C1B11403  18.515  13.721   6.176 -0.1720  0.0626  0.2993
  743POPS   C2B11404  18.273  13.733   6.574 -0.2266 -0.1049 -0.0679
  743POPS   C3B11405  18.050  13.630   6.896 -0.1169  0.3189 -0.0742
  743POPS   C4B11406  18.031  13.389   7.332  0.2066  0.1195 -0.0016
  744POPS   CNO11407   5.806   8.014   5.243  0.2996  0.1514  0.1476
  744POPS   PO411408   5.555   7.658   5.195 -0.0836 -0.1279  0.0777
  744POPS   GL111409   5.391   7.698   5.622 -0.3357 -0.2314  0.2776
  744POPS   GL211410   5.197   7.437   5.708  0.1958 -0.1976  0.0128
  744POPS   C1A11411   5.301   7.798   6.000  0.2983 -0.1619 -0.1702
  744POPS   D2A11412   5.523   7.560   6.349  0.1008  0.2059  0.0414
  744POPS   C3A11413   5.629   7.684   6.742 -0.1122 -0.3854 -0.2183
  744POPS   C4A11414   5.437   7.873   7.107  0.0205 -0.3005  0.0131
  744POPS   C1B11415   5.610   7.306   5.866 -0.0980  0.1266 -0.2632
  744POPS   C2B11416   5.763   7.169   6.233 -0.0893 -0.2169 -0.1235
  744POPS   C3B11417   5.587   7.080   6.603  0.0139 -0.0765  0.1586
  744POPS   C4B11418   5.460   7.250   6.953 -0.0664 -0.0864 -0.2242
  745POPS   CNO11419   3.462   9.307   5.632 -0.0613 -0.0761  0.0389
  745POPS   PO411420   3.656   9.611   5.443  0.1399 -0.0792 -0.3670
  745POPS   GL111421   3.761   9.748   5.812 -0.1349  0.1174  0.1709
  745POPS   GL211422   4.015   9.995   5.909  0.1659 -0.4691  0.1031
  745POPS   C1A11423   3.581   9.637   6.225 -0.1137 -0.4320  0.1880
  745POPS   D2A11424   3.525   9.546   6.651 -0.1546 -0.0701  0.2990
  745POPS   C3A11425   3.336   9.854   6.771 -0.1060 -0.2616 -0.1127
  745POPS   C4A11426   2.934   9.894   6.661  0.2031 -0.1921  0.0021
  745POPS   C1B11427   4.312   9.974   6.215  0.0177 -0.0771 -0.1520
  745POPS   C2B11428   4.352  10.153   6.520 -0.2821 -0.1569  0.0873
  745POPS   C3B11429   4.331  10.231   6.874 -0.0116  0.0424  0.0865
  745POPS   C4B11430   4.566  10.262   7.113 -0.1220 -0.1078 -0.1379
  746POPS   CNO11431   3.124  18.482   4.516 -0.0032  0.1477 -0.0810
  746POPS   PO411432   3.076  18.373   4.951  0.1156 -0.1326 -0.1844
  746POPS   GL111433   3.093  18.157   5.418  0.1442  0.1465 -0.0673
  746POPS   GL211434   3.051  18.509   5.539 -0.2774 -0.1749 -0.0130
  746POPS   C1A11435   3.109  17.958   5.798  0.5263 -0.0593  0.0905
  746POPS   D2A11436   3.505  17.819   6.228 -0.0164 -0.0920 -0.0972
  746POPS   C3A11437   3.383  17.543   6.380  0.0813  0.0315  0.0858
  746POPS   C4A11438   3.292  17.222   6.595  0.2364 -0.3576 -0.2450
  746POPS   C1B11439   3.128  18.715   5.846  0.3298 -0.1100 -0.0188
  746POPS   C2B11440   3.411  18.914   6.084 -0.1640 -0.1650 -0.3375
  746POPS   C3B11441   3.535  18.851   6.592 -0.4264 -0.2042 -0.1893
  746POPS   C4B11442   3.656  18.799   7.032  0.0987  0.2968 -0.1623
  747POPS   CNO11443  14.975  16.819   5.233  0.1982 -0.0756 -0.1219
  747POPS   PO411444  14.575  16.796   5.127 -0.0207 -0.2622 -0.2220
  747POPS   GL111445  14.384  16.904   5.494  0.3435 -0.1747 -0.2096
  747POPS   GL211446  14.567  16.912   5.734  0.0154 -0.0148  0.0193
  747POPS   C1A11447  14.109  17.073   5.791  0.0852 -0.1544  0.0174
  747POPS   D2A11448  13.717  17.330   5.903  0.2990  0.0557  0.0420
  747POPS   C3A11449  13.508  17.409   6.208  0.1050 -0.2404 -0.3367
  747POPS   C4A11450  13.117  17.587   6.337  0.1846  0.0819 -0.0283
  747POPS   C1B11451  14.468  17.099   6.096 -0.1042  0.0010 -0.1964
  747POPS   C2B11452  14.668  17.486   6.388  0.1829  0.1243  0.2755
  747POPS   C3B11453  14.615  17.875   6.666 -0.1196  0.0380 -0.1113
  747POPS   C4B11454  14.834  18.195   6.710  0.0413 -0.3136  0.0023
  748POPS   CNO11455   0.264  11.688   6.029  0.0724  0.2420  0.0714
  748POPS   PO411456   0.382  11.175   5.895 -0.1904  0.3011 -0.0536
  748POPS   GL111457   0.500  11.073   6.328 -0.0985  0.4341 -0.2319
  748POPS   GL211458   0.520  10.655   6.231  0.4161 -0.2830  0.1246
  748POPS   C1A11459   0.794  11.110   6.689 -0.1603 -0.3901  0.2358
  748POPS   D2A11460   0.683  11.129   7.020  0.3232 -0.3469  0.1899
  748POPS   C3A11461   0.876  11.331   7.331 -0.2315 -0.2654  0.1386
  748POPS   C4A11462   1.110  11.719   7.457  0.3338 -0.0690  0.0790
  748POPS   C1B11463   0.716  10.588   6.661 -0.2182  0.2309  0.0347
  748POPS   C2B11464   0.785  10.273   6.984  0.1560 -0.1038  0.1766
  748POPS   C3B11465   0.997  10.329   7.357  0.1261 -0.2307  0.1346
  748POPS   C4B11466   1.193  10.037   7.563 -0.2893 -0.2808  0.1863
  749POPS   CNO11467   6.869   7.105   5.224 -0.0973  0.1554 -0.0407
  749POPS   PO411468   6.576   6.838   5.398 -0.2873 -0.3146 -0.0194
  749POPS   GL111469   6.806   6.615   5.893  0.1497 -0.2033 -0.0420
  749POPS   GL211470   6.815   6.359   5.976 -0.0390 -0.1701  0.2369
  749POPS   C1A11471   6.813   6.917   6.177 -0.2091 -0.2274 -0.1951
  749POPS   D2A11472   6.904   7.179   6.586  0.2844  0.0500  0.2998
  749POPS   C3A11473   7.171   7.440   6.620  0.1338  0.0059  0.0139
  749POPS   C4A11474   7.405   7.882   6.777  0.0139 -0.2026 -0.1613
  749POPS   C1B11475   6.472   6.499   6.279  0.0994 -0.0605 -0.0434
  749POPS   C2B11476   6.564   6.647   6.604 -0.1553 -0.0132  0.3866
  749POPS   C3B11477   6.854   6.742   6.924 -0.2809  0.3469 -0.3482
  749POPS   C4B11478   6.855   7.120   7.245 -0.2269 -0.0564  0.2130
  750POPS   CNO11479  10.157  15.850   4.399  0.0972  0.1619  0.0367
  750POPS   PO411480   9.864  15.663   4.600  0.0440  0.0614 -0.2606
  750POPS   GL111481   9.920  15.793   4.988  0.1269 -0.2597  0.2507
  750POPS   GL211482   9.871  15.481   5.177 -0.0772  0.1685  0.5382
  750POPS   C1A11483  10.065  15.835   5.430  0.1154  0.0110  0.0655
  750POPS   D2A11484  10.185  15.928   5.882 -0.1458  0.2598 -0.3237
  750POPS   C3A11485  10.265  16.129   6.169  0.0512  0.2695 -0.0254
  750POPS   C4A11486  10.118  16.517   6.233 -0.2443 -0.0331  0.3385
  750POPS   C1B11487   9.795  15.218   5.520 -0.1098 -0.6222 -0.0728
  750POPS   C2B11488   9.847  15.278   6.029 -0.3360  0.1222 -0.0243
  750POPS   C3B11489   9.868  15.648   6.253  0.3299 -0.3318  0.2234
  750POPS   C4B11490   9.766  16.116   6.223  0.1487  0.4643 -0.2411
  751POPS   CNO11491  16.959   1.183   5.478  0.1158 -0.1026 -0.1063
  751POPS   PO411492  16.974   0.971   5.857 -0.1974 -0.1433 -0.0809
  751POPS   GL111493  16.863   1.165   6.171 -0.1893  0.1512  0.1390
  751POPS   GL211494  16.549   1.042   6.205  0.1971  0.2883 -0.0542
  751POPS   C1A11495  16.766   1.209   6.667 -0.3984 -0.3740 -0.0086
  751POPS   D2A11496  16.426   1.248   6.843 -0.0688 -0.3344 -0.2436
  751POPS   C3A11497  16.164   1.575   7.140 -0.2031  0.0622  0.2209
  751POPS   C4A11498  15.916   1.790   7.451  0.0385  0.1578  0.2721
  751POPS   C1B11499  16.648   0.658   6.398 -0.4658  0.2285  0.0963
  751POPS   C2B11500  16.459   0.491   6.837 -0.2706  0.2075  0.0512
  751POPS   C3B11501  16.258   0.099   6.947 -0.1294 -0.2355 -0.1633
  751POPS   C4B11502  16.292  -0.442   7.131 -0.0136 -0.4815  0.0630
  752POPS   CNO11503  17.073   1.693   5.412 -0.0492 -0.0805  0.0322
  752POPS   PO411504  17.391   1.363   5.415 -0.2009  0.1845  0.0468
  752POPS   GL111505  17.660   1.462   5.790 -0.1751  0.1108  0.0499
  752POPS   GL211506  17.988   1.610   5.685 -0.1539 -0.2882  0.1173
  752POPS   C1A11507  17.658   1.379   6.228  0.0588  0.0765 -0.1065
  752POPS   D2A11508  17.274   1.329   6.463  0.2411 -0.0940 -0.0143
  752POPS   C3A11509  17.037   1.613   6.633 -0.4699  0.0118  0.1853
  752POPS   C4A11510  16.605   1.777   6.861 -0.2065 -0.0511  0.1762
  752POPS   C1B11511  18.001   1.711   6.136 -0.1339  0.0902 -0.0134
  752POPS   C2B11512  18.007   1.757   6.543 -0.2710  0.0797  0.0307
  752POPS   C3B11513  17.923   1.552   7.044 -0.0759 -0.1736 -0.0850
  752POPS   C4B11514  17.504   1.229   7.287  0.0724  0.1912  0.1769
  753POPS   CNO11515   6.079   2.506   4.617  0.2081 -0.0345 -0.0086
  753POPS   PO411516   5.993   2.220   4.978  0.0938 -0.0045 -0.2156
  753POPS   GL111517   5.938   2.467   5.342  0.1279  0.0029 -0.0099
  753POPS   GL211518   6.040   2.792   5.406  0.1328  0.2149 -0.4690
  753POPS   C1A11519   5.653   2.671   5.760 -0.2528 -0.1285  0.0031
  753POPS   D2A11520   5.757   3.095   6.008  0.0634 -0.2628 -0.0747
  753POPS   C3A11521   5.601   3.210   6.353  0.2476 -0.0381  0.2963
  753POPS   C4A11522   5.282   3.355   6.562  0.0350 -0.4567  0.1643
  753POPS   C1B11523   6.163   2.744   5.839 -0.0513  0.1044 -0.1788
  753POPS   C2B11524   6.302   2.803   6.192  0.2360 -0.1868  0.3020
  753POPS   C3B11525   6.178   2.628   6.648 -0.1247 -0.0992  0.1856
  753POPS   C4B11526   6.010   2.226   6.726 -0.0373 -0.1224  0.0185
  754POPS   CNO11527  13.706  14.565   5.109  0.0824  0.0091 -0.0369
  754POPS   PO411528  13.421  14.474   5.361 -0.1375 -0.0871 -0.1644
  754POPS   GL111529  13.371  14.684   5.676 -0.1650 -0.4597 -0.2028
  754POPS   GL211530  13.311  15.069   5.719 -0.0477 -0.0785  0.2341
  754POPS   C1A11531  13.296  14.698   6.010 -0.3693 -0.3629 -0.2767
  754POPS   D2A11532  13.647  14.927   6.316  0.1488 -0.0366 -0.1783
  754POPS   C3A11533  13.753  14.619   6.580 -0.1885  0.1552  0.1325
  754POPS   C4A11534  13.938  14.267   6.721  0.0002  0.1920  0.0783
  754POPS   C1B11535  12.951  15.169   6.040  0.2729 -0.1153  0.3907
  754POPS   C2B11536  12.753  15.038   6.378 -0.1564 -0.0587 -0.1270
  754POPS   C3B11537  12.389  14.685   6.373  0.0225 -0.1538  0.1990
  754POPS   C4B11538  12.027  14.661   6.267  0.4059 -0.2900  0.3064
  755POPS   CNO11539   2.463   0.294   4.610 -0.0094  0.3200 -0.1905
  755POPS   PO411540   2.309   0.257   5.051  0.0385 -0.1318 -0.2945
  755POPS   GL111541   2.400   0.563   5.563 -0.1000  0.0078 -0.1103
  755POPS   GL211542   2.214   0.767   5.656  0.0119 -0.1169  0.0208
  755POPS   C1A11543   2.772   0.798   5.768 -0.1807 -0.0550  0.0277
  755POPS   D2A11544   2.825   1.028   6.076 -0.2449 -0.5614 -0.2239
  755POPS   C3A11545   2.493   1.171   6.253 -0.0915  0.2458 -0.2062
  755POPS   C4A11546   2.277   0.982   6.468  0.0747  0.2072 -0.1907
  755POPS   C1B11547   2.004   1.008   6.006 -0.0150  0.5507 -0.3000
  755POPS   C2B11548   1.630   1.089   6.331 -0.0082  0.0494 -0.3488
  755POPS   C3B11549   1.320   0.846   6.517 -0.2540  0.0123  0.3132
  755POPS   C4B11550   0.787   0.652   6.430 -0.0223 -0.0788  0.2442
  756POPS   CNO11551  15.896   7.752   5.880 -0.2169 -0.0074 -0.1542
  756POPS   PO411552  15.993   7.338   6.019  0.0922 -0.0214 -0.0358
  756POPS   GL111553  16.362   7.220   6.279 -0.0100  0.0784 -0.3149
  756POPS   GL211554  16.077   7.185   6.564 -0.1570  0.0917  0.1599
  756POPS   C1A11555  16.515   6.876   6.385 -0.5270 -0.1849 -0.1516
  756POPS   D2A11556  16.692   6.861   6.895 -0.0422 -0.1637 -0.3223
  756POPS   C3A11557  16.955   6.945   7.274 -0.2130 -0.1378 -0.0626
  756POPS   C4A11558  17.396   7.019   7.433  0.0339  0.0665 -0.0597
  756POPS   C1B11559  16.316   7.204   6.829 -0.1337  0.1745 -0.0757
  756POPS   C2B11560  16.346   7.171   7.258 -0.1019 -0.1186 -0.2751
  756POPS   C3B11561  16.466   6.873   7.571 -0.0408  0.1593  0.2773
  756POPS   C4B11562  16.433   6.568   7.863  0.1360  0.0485  0.0377
  757POPS   CNO11563   2.097   4.782   4.761  0.3607 -0.3145  0.1415
  757POPS   PO411564   1.943   4.728   5.115  0.1570 -0.0308 -0.2050
  757POPS   GL111565   2.043   4.566   5.573 -0.2602  0.0456 -0.1210
  757POPS   GL211566   1.860   4.358   5.640 -0.0383 -0.2842 -0.1124
  757POPS   C1A11567   2.311   4.625   5.886  0.2011  0.0886  0.3471
  757POPS   D2A11568   2.617   4.558   6.137  0.0369  0.1946  0.0913
  757POPS   C3A11569   2.499   4.667   6.500 -0.0381 -0.2887  0.3029
  757POPS   C4A11570   2.226   4.488   6.852  0.1222 -0.0327 -0.2764
  757POPS   C1B11571   1.965   4.194   6.071 -0.1923 -0.3404  0.0630
  757POPS   C2B11572   2.257   4.197   6.405 -0.1757 -0.0895 -0.2145
  757POPS   C3B11573   2.630   4.108   6.596  0.0585  0.0402  0.0107
  757POPS   C4B11574   2.804   3.756   6.856 -0.0892 -0.2662  0.0832
  758POPS   CNO11575  10.840   6.645   5.174 -0.0080  0.0344  0.0761
  758POPS   PO411576  10.977   6.355   5.544  0.2796  0.3436 -0.4786
  758POPS   GL111577  10.779   6.188   5.886  0.0814  0.1151 -0.0790
  758POPS   GL211578  10.491   6.341   5.975  0.1402 -0.1421  0.0727
  758POPS   C1A11579  10.889   6.257   6.377  0.1537 -0.1406  0.0986
  758POPS   D2A11580  10.866   6.454   6.822  0.5156 -0.1824  0.1095
  758POPS   C3A11581  10.732   6.162   7.164  0.1451  0.0622 -0.0062
  758POPS   C4A11582  10.864   6.054   7.609  0.1591 -0.1478 -0.1798
  758POPS   C1B11583  10.348   6.524   6.346 -0.0291 -0.2921  0.1784
  758POPS   C2B11584  10.351   6.628   6.798  0.2696  0.4714  0.0607
  758POPS   C3B11585  10.606   6.667   7.172  0.0973 -0.3698 -0.0547
  758POPS   C4B11586  10.757   6.706   7.629 -0.2028  0.2123 -0.0254
  759POPS   CNO11587  12.015   1.647   5.462  0.1918  0.1059  0.0787
  759POPS   PO411588  12.182   1.951   5.558 -0.0709 -0.4281  0.0015
  759POPS   GL111589  11.844   2.049   5.856 -0.0049 -0.1434 -0.1741
  759POPS   GL211590  11.661   2.148   5.598 -0.0563 -0.0056  0.2706
  759POPS   C1A11591  11.497   2.255   6.085 -0.0289  0.2669  0.0391
  759POPS   D2A11592  11.460   2.236   6.592  0.1267 -0.2433  0.0229
  759POPS   C3A11593  11.180   2.525   6.718 -0.1156 -0.0116  0.1868
  759POPS   C4A11594  11.171   2.715   6.420  0.0950 -0.3598 -0.0346
  759POPS   C1B11595  11.522   1.695   5.936 -0.2618 -0.0670  0.3571
  759POPS   C2B11596  11.309   1.368   6.211 -0.1866  0.0927  0.1306
  759POPS   C3B11597  10.974   1.449   6.268  0.0102  0.3698  0.2171
  759POPS   C4B11598  10.751   1.529   6.520  0.1876  0.4159 -0.3905
  760POPS   CNO11599  11.006  12.988   4.533  0.2246  0.1733 -0.0879
  760POPS   PO411600  10.961  12.933   4.946  0.3589 -0.0267  0.1182
  760POPS   GL111601  10.948  12.715   5.289  0.1403 -0.2817 -0.3382
  760POPS   GL211602  11.260  12.703   5.462  0.0481 -0.0137 -0.1122
  760POPS   C1A11603  10.751  12.501   5.554  0.0664  0.0575  0.3216
  760POPS   D2A11604  11.025  12.410   5.929  0.0146  0.1178 -0.0899
  760POPS   C3A11605  11.019  12.617   6.347 -0.1205 -0.0500  0.0955
  760POPS   C4A11606  11.108  12.537   6.759 -0.1182 -0.4670 -0.1817
  760POPS   C1B11607  11.607  13.065   5.745 -0.0240  0.2001 -0.0092
  760POPS   C2B11608  11.698  13.457   6.040  0.0633  0.1771  0.5379
  760POPS   C3B11609  11.959  13.832   6.213  0.3354 -0.2360 -0.0964
  760POPS   C4B11610  11.872  14.275   5.961 -0.1440 -0.3949  0.0035
  761POPS   CNO11611  13.231   4.361   5.283  0.4244 -0.1038  0.4453
  761POPS   PO411612  13.317   4.707   5.524  0.1131 -0.2686 -0.0826
  761POPS   GL111613  13.346   4.500   5.827  0.1887  0.1362  0.3871
  761POPS   GL211614  13.371   4.770   6.118 -0.0302  0.1281  0.4447
  761POPS   C1A11615  12.967   4.372   6.159  0.3780  0.0373 -0.3567
  761POPS   D2A11616  12.789   3.994   6.445 -0.1667  0.1263  0.0960
  761POPS   C3A11617  13.148   3.894   6.759  0.1587  0.0606 -0.5477
  761POPS   C4A11618  13.237   3.829   7.156 -0.1634  0.2712  0.1590
  761POPS   C1B11619  13.466   4.676   6.535  0.2561 -0.0114 -0.1041
  761POPS   C2B11620  13.606   4.655   6.961 -0.0477  0.1358 -0.1601
  761POPS   C3B11621  13.592   4.835   7.340 -0.0829 -0.0036  0.0918
  761POPS   C4B11622  13.512   4.739   7.721 -0.0013 -0.3559 -0.0562
  762POPS   CNO11623  17.990  14.969   4.818  0.1340 -0.0901  0.1201
  762POPS   PO411624  17.751  15.209   5.054 -0.2178  0.1694 -0.0880
  762POPS   GL111625  17.832  15.078   5.481  0.0509 -0.0884 -0.1164
  762POPS   GL211626  18.090  14.980   5.620 -0.4033 -0.4643  0.0302
  762POPS   C1A11627  17.721  14.666   5.719 -0.3111 -0.3266  0.1698
  762POPS   D2A11628  17.771  14.323   5.977 -0.1747 -0.0353  0.1438
  762POPS   C3A11629  17.732  14.506   6.374 -0.0254  0.0486  0.0221
  762POPS   C4A11630  17.385  14.499   6.631 -0.0360 -0.1466 -0.1614
  762POPS   C1B11631  18.275  14.808   6.018 -0.1016 -0.0391  0.1887
  762POPS   C2B11632  18.320  14.690   6.488 -0.0432 -0.2680 -0.0399
  762POPS   C3B11633  18.453  14.541   6.948  0.3226  0.3296 -0.1210
  762POPS   C4B11634  18.626  14.547   7.323  0.2695 -0.0311 -0.3453
  763POPS   CNO11635  18.365   9.291   5.570  0.3986 -0.3308  0.0139
  763POPS   PO411636  18.402   8.882   5.576 -0.0236  0.0789 -0.1756
  763POPS   GL111637  18.287   8.892   6.026 -0.0776  0.0588  0.0443
  763POPS   GL211638  18.232   9.102   6.227  0.3404 -0.3336  0.1712
  763POPS   C1A11639  18.026   8.681   6.338  0.2727 -0.5429 -0.4232
  763POPS   D2A11640  17.559   8.684   6.438  0.0740  0.3323 -0.1261
  763POPS   C3A11641  17.289   8.868   6.739 -0.1058  0.2919 -0.0946
  763POPS   C4A11642  17.171   9.134   7.037  0.1669  0.1496  0.2090
  763POPS   C1B11643  18.277   9.026   6.673  0.1517  0.0416 -0.1687
  763POPS   C2B11644  18.359   9.021   7.158 -0.0594 -0.0110  0.2479
  763POPS   C3B11645  18.355   9.003   7.625  0.0117 -0.2829  0.0659
  763POPS   C4B11646  18.552   9.154   8.013 -0.1755  0.1173 -0.0008
  764POPS   CNO11647   0.978  11.833   5.797 -0.2316  0.2029  0.1005
  764POPS   PO411648   0.745  12.175   5.701  0.2927 -0.2787  0.1009
  764POPS   GL111649   0.605  12.098   6.154 -0.0530  0.3172  0.2352
  764POPS   GL211650   0.220  12.189   6.282  0.0633  0.0893  0.1362
  764POPS   C1A11651   0.636  12.010   6.621 -0.1964 -0.5004  0.0561
  764POPS   D2A11652   0.476  12.019   7.015  0.0680 -0.2081 -0.0342
  764POPS   C3A11653   0.213  12.015   7.397 -0.0986  0.0097  0.0620
  764POPS   C4A11654   0.344  12.123   7.709  0.0011  0.0450  0.0293
  764POPS   C1B11655   0.123  11.976   6.633  0.0600 -0.0919 -0.0343
  764POPS   C2B11656  -0.087  11.774   7.003  0.0272  0.1730 -0.3046
  764POPS   C3B11657  -0.160  11.470   7.406  0.0699 -0.0234 -0.1095
  764POPS   C4B11658   0.239  11.273   7.538 -0.0883  0.0013 -0.3169
  765POPS   CNO11659   9.094  16.054   4.343  0.0826  0.0779  0.1492
  765POPS   PO411660   9.161  15.714   4.596 -0.1421 -0.0499 -0.4912
  765POPS   GL111661   9.475  15.647   4.959  0.3760  0.0659  0.0771
  765POPS   GL211662   9.375  15.232   5.285  0.2330 -0.1618  0.2869
  765POPS   C1A11663   9.532  15.703   5.398  0.0175 -0.1396  0.1510
  765POPS   D2A11664   9.642  15.688   5.822 -0.2369 -0.0798 -0.0097
  765POPS   C3A11665   9.421  15.715   6.047  0.0336 -0.1213 -0.2799
  765POPS   C4A11666   9.054  15.857   6.302  0.4631 -0.1634 -0.0714
  765POPS   C1B11667   9.285  15.284   5.644  0.0014 -0.0478  0.0342
  765POPS   C2B11668   9.328  15.233   6.137  0.0231 -0.1221 -0.1882
  765POPS   C3B11669   9.578  15.317   6.503 -0.2577  0.0571 -0.0861
  765POPS   C4B11670   9.641  15.384   6.943  0.0051 -0.0256  0.2233
  766POPS   CNO11671   0.137   3.432   5.024 -0.2835  0.0929 -0.2066
  766POPS   PO411672   0.257   3.504   5.478 -0.1638 -0.0211  0.2708
  766POPS   GL111673   0.133   3.534   5.820 -0.1103  0.1410 -0.2769
  766POPS   GL211674   0.041   3.282   5.921 -0.0909  0.2266  0.1903
  766POPS   C1A11675   0.071   3.597   6.300 -0.0044  0.2943  0.0659
  766POPS   D2A11676   0.041   3.559   6.761  0.1166  0.1262 -0.1481
  766POPS   C3A11677  -0.290   3.394   7.117 -0.0078  0.1112 -0.1382
  766POPS   C4A11678  -0.479   3.062   7.293 -0.1604 -0.3064 -0.0009
  766POPS   C1B11679   0.299   2.969   5.882  0.1539 -0.0952 -0.2250
  766POPS   C2B11680   0.609   2.848   6.186 -0.0767  0.1678  0.0356
  766POPS   C3B11681   0.527   2.394   6.456  0.0805  0.1661  0.1707
  766POPS   C4B11682   0.581   1.924   6.631 -0.0805 -0.0810 -0.0523
  767POPS   CNO11683  18.125   2.126   5.299  0.2372 -0.1923 -0.1403
  767POPS   PO411684  18.423   1.699   5.405  0.0453  0.2341 -0.2043
  767POPS   GL111685  18.534   1.699   5.855  0.2274  0.0903  0.0607
  767POPS   GL211686  18.811   1.478   5.798  0.1609 -0.1429 -0.3929
  767POPS   C1A11687  18.392   1.433   6.186  0.2154 -0.0151 -0.2825
  767POPS   D2A11688  18.265   1.223   6.622 -0.0580  0.3396  0.0209
  767POPS   C3A11689  17.905   1.257   6.666  0.0120  0.0657 -0.0575
  767POPS   C4A11690  17.594   1.275   6.810 -0.1374  0.1789  0.0497
  767POPS   C1B11691  18.858   1.136   6.020 -0.1908  0.3553  0.3279
  767POPS   C2B11692  18.518   0.874   6.257  0.0112 -0.1544 -0.0494
  767POPS   C3B11693  18.205   0.706   6.508 -0.1298 -0.0551  0.0081
  767POPS   C4B11694  18.089   0.754   6.895 -0.0896 -0.0361 -0.0987
  768POPS   CNO11695   1.899   0.510   5.201 -0.0119  0.2319  0.4232
  768POPS   PO411696   1.812   0.848   5.329  0.0018  0.1360  0.2231
  768POPS   GL111697   1.762   0.564   5.718  0.2545 -0.0620  0.0885
  768POPS   GL211698   1.547   0.280   5.726  0.0813 -0.0023 -0.3117
  768POPS   C1A11699   1.855   0.520   6.071 -0.1798 -0.1039  0.0034
  768POPS   D2A11700   1.904   0.651   6.478 -0.1377  0.1998 -0.2017
  768POPS   C3A11701   2.309   0.572   6.728  0.3378 -0.0127  0.1363
  768POPS   C4A11702   2.710   0.451   6.894 -0.1324 -0.0085 -0.1274
  768POPS   C1B11703   1.368  -0.094   6.160  0.4601 -0.1447  0.1278
  768POPS   C2B11704   1.293  -0.258   6.515  0.1515 -0.0767 -0.0157
  768POPS   C3B11705   1.370  -0.515   6.885 -0.1765 -0.0446  0.1589
  768POPS   C4B11706   1.826  -0.797   7.061  0.0935  0.0580  0.3567
  769POPS   CNO11707  18.859  15.219   5.389  0.3610  0.0155 -0.0909
  769POPS   PO411708  19.325  15.122   5.271 -0.2867  0.1155 -0.2520
  769POPS   GL111709  19.342  15.212   5.690 -0.1102  0.0057 -0.1520
  769POPS   GL211710  19.366  15.550   5.801  0.0464 -0.2125 -0.0925
  769POPS   C1A11711  18.975  15.365   5.963 -0.0425 -0.0053  0.1082
  769POPS   D2A11712  19.040  15.271   6.432 -0.2532  0.2709  0.1951
  769POPS   C3A11713  19.173  14.926   6.616 -0.2232 -0.0379  0.0921
  769POPS   C4A11714  19.307  14.591   6.470  0.5117  0.1125 -0.0513
  769POPS   C1B11715  19.382  15.698   6.198 -0.2773  0.1040  0.2263
  769POPS   C2B11716  19.536  15.407   6.628 -0.2129  0.0804  0.3571
  769POPS   C3B11717  19.617  15.309   7.071  0.3643  0.1171  0.0768
  769POPS   C4B11718  19.242  15.144   7.231  0.2263 -0.1506  0.2728
  770POPS   CNO11719  14.989   4.871   5.343  0.3629  0.2141 -0.0287
  770POPS   PO411720  14.593   4.892   5.633  0.1758  0.0127 -0.2544
  770POPS   GL111721  14.814   4.754   5.954 -0.0407 -0.1480 -0.1585
  770POPS   GL211722  14.793   4.417   6.124 -0.3888 -0.0359  0.0807
  770POPS   C1A11723  14.958   5.081   6.222 -0.0818  0.1073 -0.0089
  770POPS   D2A11724  14.912   4.942   6.653 -0.3713  0.0956  0.3878
  770POPS   C3A11725  15.072   4.798   7.027  0.0261 -0.0810 -0.0007
  770POPS   C4A11726  14.913   4.643   7.350  0.0057 -0.0692 -0.3080
  770POPS   C1B11727  15.182   4.603   6.318 -0.0510 -0.0637  0.2711
  770POPS   C2B11728  15.387   4.962   6.484 -0.1695 -0.3050 -0.0432
  770POPS   C3B11729  15.513   5.309   6.795 -0.1155 -0.3534  0.0348
  770POPS   C4B11730  15.424   5.671   6.973 -0.0553  0.3318  0.1779
  771POPS   CNO11731   6.037  14.930   4.632 -0.0274 -0.4153 -0.0709
  771POPS   PO411732   6.110  14.911   5.093  0.3993  0.0134 -0.0446
  771POPS   GL111733   5.917  15.314   5.189 -0.1306 -0.0198 -0.0195
  771POPS   GL211734   5.618  15.398   5.281 -0.0534 -0.3672 -0.1921
  771POPS   C1A11735   6.016  15.515   5.610 -0.2579  0.1897 -0.0166
  771POPS   D2A11736   5.869  15.857   5.879  0.1135 -0.4438  0.0963
  771POPS   C3A11737   5.385  15.845   5.811 -0.3466  0.1441 -0.0517
  771POPS   C4A11738   5.204  15.465   5.754  0.1549 -0.2007  0.0580
  771POPS   C1B11739   5.656  15.198   5.818  0.1146 -0.0447  0.3591
  771POPS   C2B11740   5.824  15.062   6.159  0.1950 -0.1644 -0.1788
  771POPS   C3B11741   5.872  14.773   6.541  0.0372 -0.4566  0.1581
  771POPS   C4B11742   5.901  14.345   6.603 -0.1535 -0.0295  0.1312
  772POPS   CNO11743  18.338   0.327   5.948  0.0773  0.0302  0.3697
  772POPS   PO411744  18.095   0.684   5.685  0.2676  0.1382  0.2717
  772POPS   GL111745  17.818   0.672   5.969  0.3195  0.0453 -0.0301
  772POPS   GL211746  17.834   0.300   6.000  0.2474  0.1154 -0.1310
  772POPS   C1A11747  17.513   0.883   6.179  0.2123 -0.0112 -0.0797
  772POPS   D2A11748  17.115   0.843   6.459 -0.1319  0.0198 -0.0304
  772POPS   C3A11749  17.035   0.480   6.593  0.0282  0.1184 -0.1192
  772POPS   C4A11750  17.308   0.232   6.834  0.3232 -0.1619  0.0776
  772POPS   C1B11751  17.794   0.478   6.409 -0.1460 -0.1274 -0.0635
  772POPS   C2B11752  17.579   0.771   6.678  0.1187  0.0376 -0.1871
  772POPS   C3B11753  17.639   0.683   7.146  0.1879 -0.1403 -0.1922
  772POPS   C4B11754  17.837   0.616   7.459  0.4478  0.0424 -0.1262
  773POPS   CNO11755  14.182  15.770   5.474  0.1895 -0.0147 -0.0329
  773POPS   PO411756  14.067  16.001   5.127 -0.2829 -0.2295  0.2616
  773POPS   GL111757  13.773  16.188   5.527 -0.1912 -0.0768  0.3093
  773POPS   GL211758  13.490  16.425   5.462  0.0715  0.3980  0.4954
  773POPS   C1A11759  13.884  16.257   5.917 -0.2108  0.0791 -0.1027
  773POPS   D2A11760  14.045  16.240   6.329  0.1000  0.0824 -0.1234
  773POPS   C3A11761  13.839  16.519   6.565 -0.2391 -0.0854  0.0267
  773POPS   C4A11762  13.903  16.852   6.850  0.0434 -0.1462 -0.0423
  773POPS   C1B11763  13.212  16.176   5.805  0.0578 -0.0459 -0.2095
  773POPS   C2B11764  12.851  16.185   6.096 -0.0911  0.2946  0.1602
  773POPS   C3B11765  12.539  16.337   6.316 -0.2144 -0.1075 -0.0596
  773POPS   C4B11766  12.488  16.583   6.037  0.0242  0.1709  0.0717
  774POPS   CNO11767   2.943   8.537   6.095  0.4623  0.0246 -0.1961
  774POPS   PO411768   3.247   8.445   5.816 -0.1386  0.0266  0.1448
  774POPS   GL111769   3.421   8.634   6.152 -0.3056  0.2863  0.1164
  774POPS   GL211770   3.759   8.684   6.103 -0.0806  0.1474 -0.1063
  774POPS   C1A11771   3.448   8.568   6.554  0.1270 -0.0728 -0.3798
  774POPS   D2A11772   3.460   8.574   7.025 -0.1464 -0.1039 -0.1087
  774POPS   C3A11773   3.358   8.896   7.308 -0.2148  0.0807 -0.0903
  774POPS   C4A11774   3.188   9.239   7.499  0.0589  0.0656 -0.0520
  774POPS   C1B11775   3.865   8.860   6.440 -0.0356  0.4081  0.1405
  774POPS   C2B11776   3.991   9.310   6.435  0.4250 -0.1453 -0.1441
  774POPS   C3B11777   3.988   9.765   6.507  0.0201 -0.0913  0.0739
  774POPS   C4B11778   3.817  10.035   6.334  0.1571  0.0344  0.1933
  775POPS   CNO11779   4.384  15.430   5.205  0.4237 -0.1026 -0.0452
  775POPS   PO411780   4.483  15.795   4.833 -0.0567 -0.1337  0.2802
  775POPS   GL111781   4.677  15.845   5.285 -0.4126 -0.3038  0.4884
  775POPS   GL211782   4.534  16.240   5.479  0.1517  0.1034 -0.2391
  775POPS   C1A11783   4.700  15.713   5.778  0.0107 -0.1336 -0.2511
  775POPS   D2A11784   4.767  15.790   6.224  0.0875 -0.0706  0.1805
  775POPS   C3A11785   5.168  15.616   6.365  0.1076 -0.1647 -0.2152
  775POPS   C4A11786   5.597  15.491   6.172  0.1257 -0.3097 -0.0105
  775POPS   C1B11787   4.522  16.560   5.780  0.1706  0.4047 -0.0682
  775POPS   C2B11788   4.152  16.879   5.795  0.0565 -0.0213  0.1497
  775POPS   C3B11789   3.925  16.968   6.269 -0.0242  0.5240 -0.3548
  775POPS   C4B11790   3.769  17.282   6.522  0.1049  0.2499  0.2547
  776POPS   CNO11791  15.710   8.696   5.489  0.0598 -0.1084  0.3011
  776POPS   PO411792  15.886   8.958   5.853 -0.1491  0.1355  0.1549
  776POPS   GL111793  15.530   9.032   5.985 -0.1763  0.3431 -0.2893
  776POPS   GL211794  15.570   9.050   6.357 -0.2887 -0.2493 -0.3375
  776POPS   C1A11795  15.166   8.811   6.060  0.1586 -0.1864 -0.0329
  776POPS   D2A11796  14.745   8.793   5.869 -0.2117 -0.1319 -0.2712
  776POPS   C3A11797  14.524   9.231   5.884 -0.3391 -0.0194  0.0315
  776POPS   C4A11798  14.447   9.682   6.004  0.1853  0.0582 -0.0083
  776POPS   C1B11799  15.375   8.837   6.731  0.0857 -0.1870  0.0718
  776POPS   C2B11800  15.501   8.682   7.131  0.2352  0.0617 -0.1541
  776POPS   C3B11801  15.669   8.618   7.623  0.3244  0.1024 -0.1435
  776POPS   C4B11802  15.795   8.296   7.765 -0.0976  0.1448 -0.2356
  777POPS   CNO11803   6.423  16.399   4.686  0.0904  0.1533 -0.1080
  777POPS   PO411804   6.201  16.283   5.005  0.0369 -0.1395 -0.0672
  777POPS   GL111805   6.217  15.955   5.331 -0.1525  0.0253 -0.2050
  777POPS   GL211806   6.353  15.673   5.254  0.3243  0.0547 -0.0587
  777POPS   C1A11807   6.338  16.073   5.780 -0.3745  0.1270 -0.3188
  777POPS   D2A11808   6.269  15.939   6.208  0.1579 -0.3501  0.4158
  777POPS   C3A11809   6.140  15.569   6.262 -0.1221  0.1092  0.2006
  777POPS   C4A11810   6.001  15.297   6.596 -0.2882 -0.0475 -0.2328
  777POPS   C1B11811   6.520  15.609   5.657  0.0319 -0.2517  0.0084
  777POPS   C2B11812   6.675  15.550   6.069 -0.1618 -0.1880  0.1081
  777POPS   C3B11813   6.566  15.660   6.548 -0.2625  0.1069  0.0976
  777POPS   C4B11814   6.671  15.947   6.873 -0.2373  0.0550  0.0275
  778POPS   CNO11815   8.405   7.345   5.584 -0.1628  0.0182  0.1314
  778POPS   PO411816   8.028   7.430   5.740  0.1562  0.0109  0.0755
  778POPS   GL111817   8.169   7.077   6.117 -0.3294  0.3146 -0.1050
  778POPS   GL211818   7.963   7.183   6.314  0.1376  0.2558 -0.3252
  778POPS   C1A11819   8.225   6.840   6.594 -0.0301 -0.0209  0.0451
  778POPS   D2A11820   8.248   6.902   7.035  0.0002  0.0617 -0.1228
  778POPS   C3A11821   8.568   7.093   7.282 -0.2576 -0.2859 -0.0787
  778POPS   C4A11822   8.767   7.457   7.459 -0.0794  0.2670  0.2554
  778POPS   C1B11823   7.437   6.995   6.419 -0.0348  0.0938 -0.1455
  778POPS   C2B11824   7.096   6.632   6.470 -0.2319 -0.0587  0.0919
  778POPS   C3B11825   6.841   6.243   6.497 -0.2645  0.0270  0.2444
  778POPS   C4B11826   6.518   5.905   6.581 -0.0948  0.0526  0.1429
  779POPS   CNO11827  18.853  11.573   5.815 -0.1706 -0.0959 -0.1073
  779POPS   PO411828  18.998  11.225   5.682 -0.0363 -0.0363  0.0862
  779POPS   GL111829  19.256  11.337   6.048 -0.2031 -0.2775  0.1269
  779POPS   GL211830  19.336  11.076   6.251  0.2891 -0.2773  0.2263
  779POPS   C1A11831  19.358  11.495   6.458  0.3013 -0.0880  0.1401
  779POPS   D2A11832  19.806  11.519   6.689 -0.1109  0.0030 -0.2330
  779POPS   C3A11833  19.735  11.590   7.201  0.1018  0.0849 -0.2539
  779POPS   C4A11834  19.951  11.771   7.551 -0.0247 -0.1365  0.0857
  779POPS   C1B11835  19.495  10.976   6.650  0.1689  0.0633 -0.0070
  779POPS   C2B11836  19.510  11.204   6.985 -0.0910 -0.1927 -0.0506
  779POPS   C3B11837  19.642  10.821   7.330 -0.1631  0.0824 -0.3914
  779POPS   C4B11838  19.872  10.466   7.473  0.0261 -0.2740 -0.3217
  780POPS   CNO11839   6.341   9.015   5.256 -0.1109  0.2050 -0.0498
  780POPS   PO411840   6.060   8.791   4.946 -0.1203  0.0341  0.3471
  780POPS   GL111841   6.145   8.567   5.443 -0.0057 -0.4409 -0.1636
  780POPS   GL211842   6.200   8.160   5.476 -0.0063  0.1158 -0.1416
  780POPS   C1A11843   5.801   8.686   5.804 -0.2122  0.3116  0.1035
  780POPS   D2A11844   5.769   8.821   6.198  0.2765 -0.2708 -0.0343
  780POPS   C3A11845   5.479   8.544   6.194  0.1113 -0.3807  0.0978
  780POPS   C4A11846   5.176   8.343   6.069  0.3465  0.2945  0.2096
  780POPS   C1B11847   6.148   8.205   5.966  0.1732 -0.0618 -0.2258
  780POPS   C2B11848   5.967   8.383   6.369 -0.0405  0.0451  0.2423
  780POPS   C3B11849   6.150   8.440   6.793 -0.1879  0.0558  0.1729
  780POPS   C4B11850   6.189   8.399   7.212  0.3343 -0.3136 -0.2778
  781POPS   CNO11851  18.283  18.596   5.350  0.2144  0.0916 -0.2041
  781POPS   PO411852  18.047  18.408   5.632 -0.2273  0.0567  0.1121
  781POPS   GL111853  18.081  18.432   6.084 -0.2219  0.0280  0.0818
  781POPS   GL211854  18.420  18.585   6.260 -0.1302  0.1379  0.1433
  781POPS   C1A11855  17.883  18.610   6.384 -0.2858 -0.1048 -0.0151
  781POPS   D2A11856  17.547  18.829   6.628  0.1665  0.0682 -0.1578
  781POPS   C3A11857  17.389  19.086   6.986 -0.2453  0.0649 -0.0183
  781POPS   C4A11858  17.196  19.049   7.409 -0.1873  0.1326 -0.0352
  781POPS   C1B11859  18.264  18.771   6.741  0.0606 -0.0653 -0.2491
  781POPS   C2B11860  17.912  19.063   6.864 -0.2715 -0.1245 -0.0662
  781POPS   C3B11861  17.677  19.247   7.296 -0.3825 -0.0329 -0.2943
  781POPS   C4B11862  17.428  19.577   7.353  0.0589 -0.0643 -0.0128
  782POPS   CNO11863   1.147  19.191   5.676 -0.3398  0.0768  0.0111
  782POPS   PO411864   0.840  18.968   5.456 -0.0458 -0.2186 -0.1890
  782POPS   GL111865   0.795  18.904   5.978 -0.2670 -0.0674  0.1025
  782POPS   GL211866   1.127  18.725   5.989 -0.1346  0.1111  0.3238
  782POPS   C1A11867   0.889  19.110   6.268 -0.0502 -0.3103  0.1975
  782POPS   D2A11868   1.024  19.543   6.360  0.0032 -0.0651  0.0758
  782POPS   C3A11869   1.030  19.691   6.834 -0.0827  0.1279  0.0174
  782POPS   C4A11870   1.181  19.771   7.251  0.1612  0.0200  0.0747
  782POPS   C1B11871   0.887  18.633   6.379 -0.2896 -0.0085 -0.0317
  782POPS   C2B11872   0.977  18.503   6.769 -0.1086  0.3924  0.1362
  782POPS   C3B11873   1.137  18.524   7.150 -0.1717 -0.0748 -0.3047
  782POPS   C4B11874   1.484  18.609   7.473  0.2616 -0.1224  0.1497
  783POPS   CNO11875   1.563   4.756   5.517 -0.1729 -0.1614 -0.0024
  783POPS   PO411876   1.276   4.412   5.578 -0.2185  0.0486 -0.0249
  783POPS   GL111877   1.466   4.467   5.913  0.0951 -0.0416  0.2902
  783POPS   GL211878   1.415   4.568   6.219 -0.0121  0.0428 -0.2851
  783POPS   C1A11879   1.548   4.084   6.216  0.0721  0.1143  0.1261
  783POPS   D2A11880   1.815   3.887   6.385  0.1342 -0.0183 -0.1201
  783POPS   C3A11881   1.970   3.994   6.828  0.2056  0.5986 -0.1475
  783POPS   C4A11882   1.914   4.222   7.207 -0.1290  0.0832  0.2625
  783POPS   C1B11883   1.404   4.849   6.591 -0.0798 -0.0043  0.1749
  783POPS   C2B11884   1.461   5.020   6.987  0.1558 -0.5365  0.0517
  783POPS   C3B11885   1.819   5.225   7.249  0.2570 -0.1086  0.1764
  783POPS   C4B11886   2.238   5.309   7.334 -0.2157 -0.0122 -0.1547
  784POPS   CNO11887  15.275   5.172   5.049  0.3773 -0.0724  0.2501
  784POPS   PO411888  15.209   5.249   5.572 -0.1353  0.2610 -0.0107
  784POPS   GL111889  15.315   5.452   5.851  0.1127  0.1213  0.0217
  784POPS   GL211890  15.234   5.682   6.076 -0.0355 -0.0130 -0.0414
  784POPS   C1A11891  15.530   5.411   6.315  0.0404  0.3438  0.0908
  784POPS   D2A11892  15.733   5.887   6.406  0.2690 -0.1119 -0.0574
  784POPS   C3A11893  16.119   6.016   6.631  0.0618  0.1005  0.0677
  784POPS   C4A11894  16.482   5.823   6.839  0.1526  0.0816 -0.1749
  784POPS   C1B11895  15.111   5.622   6.559 -0.1823  0.1390  0.1113
  784POPS   C2B11896  14.911   5.372   6.964  0.2388  0.0823 -0.0593
  784POPS   C3B11897  14.730   5.142   7.303 -0.0763  0.2630 -0.0395
  784POPS   C4B11898  14.592   5.003   7.710  0.1049 -0.0511 -0.0047
  785POPS   CNO11899   3.962   0.738   4.728  0.0837 -0.2410  0.3603
  785POPS   PO411900   4.004   1.011   5.080 -0.2000 -0.2787  0.0764
  785POPS   GL111901   4.107   0.701   5.434 -0.0469  0.0508  0.1211
  785POPS   GL211902   3.824   0.835   5.601  0.3042  0.1306 -0.0027
  785POPS   C1A11903   4.306   0.424   5.520  0.1646 -0.1211 -0.1160
  785POPS   D2A11904   4.355   0.146   5.881  0.1341  0.0984  0.1527
  785POPS   C3A11905   4.261   0.234   6.202 -0.1782  0.1525  0.4234
  785POPS   C4A11906   3.978   0.517   6.414  0.0560 -0.3783  0.1510
  785POPS   C1B11907   4.197   1.081   5.726 -0.2962 -0.1038  0.1281
  785POPS   C2B11908   4.274   1.440   5.759 -0.0850 -0.0394 -0.2614
  785POPS   C3B11909   4.310   1.735   6.093  0.0753  0.2238  0.3801
  785POPS   C4B11910   4.500   2.047   6.239 -0.3054 -0.2249  0.1274
  786POPS   CNO11911  13.566  15.801   5.283 -0.1146 -0.2480 -0.0049
  786POPS   PO411912  13.461  15.346   5.345  0.1515  0.0990 -0.0959
  786POPS   GL111913  13.659  15.498   5.684 -0.1397  0.1504  0.0422
  786POPS   GL211914  13.820  15.215   5.871 -0.0935 -0.0523  0.1868
  786POPS   C1A11915  13.826  15.757   5.947 -0.1383  0.1768  0.0714
  786POPS   D2A11916  13.637  15.862   6.283  0.1898  0.2311  0.0550
  786POPS   C3A11917  13.671  15.550   6.633 -0.5720 -0.1435 -0.3038
  786POPS   C4A11918  13.550  15.357   6.869  0.3232  0.0716 -0.0221
  786POPS   C1B11919  14.001  15.332   6.303 -0.1569  0.2350  0.0767
  786POPS   C2B11920  13.922  15.116   6.694 -0.0184  0.1256  0.1506
  786POPS   C3B11921  13.723  14.798   7.013 -0.2082  0.2027  0.1605
  786POPS   C4B11922  13.897  14.647   7.382 -0.3298  0.1346  0.1243
  787POPS   CNO11923   0.981  12.627   5.378  0.3215 -0.0684 -0.0499
  787POPS   PO411924   1.047  12.935   5.687 -0.1997 -0.1162 -0.1948
  787POPS   GL111925   1.182  12.587   5.982  0.2243  0.2400  0.0697
  787POPS   GL211926   1.419  12.693   6.264 -0.1629 -0.1360 -0.2511
  787POPS   C1A11927   1.083  12.352   6.386  0.1533  0.0392  0.1081
  787POPS   D2A11928   0.984  12.383   6.788 -0.2054  0.0298  0.2246
  787POPS   C3A11929   1.109  12.124   7.096  0.0846 -0.2151 -0.1194
  787POPS   C4A11930   1.445  11.846   7.084  0.2187 -0.0244 -0.1181
  787POPS   C1B11931   1.441  12.732   6.690 -0.2181  0.2634 -0.0659
  787POPS   C2B11932   1.347  12.605   7.071  0.0069  0.1035  0.3754
  787POPS   C3B11933   1.406  12.236   7.481 -0.2278  0.0808 -0.6173
  787POPS   C4B11934   1.591  12.047   7.789 -0.2759  0.0001  0.1450
  788POPS   CNO11935   5.015   6.473   5.346  0.2180  0.0546 -0.0082
  788POPS   PO411936   5.375   6.221   5.408 -0.0277  0.0865 -0.3246
  788POPS   GL111937   5.591   6.161   5.828 -0.1820 -0.2484  0.1688
  788POPS   GL211938   5.893   6.053   5.850  0.1130 -0.0695  0.0248
  788POPS   C1A11939   5.557   5.771   6.074  0.0934 -0.1885 -0.1228
  788POPS   D2A11940   5.804   5.450   6.154  0.5572  0.0985  0.1780
  788POPS   C3A11941   6.009   5.627   6.534 -0.3676 -0.0563  0.2795
  788POPS   C4A11942   6.320   5.371   6.736  0.1737 -0.2358 -0.1755
  788POPS   C1B11943   6.063   6.037   6.259  0.1778 -0.1128 -0.3194
  788POPS   C2B11944   6.152   6.204   6.639  0.1598 -0.1556  0.2374
  788POPS   C3B11945   6.172   5.982   7.088  0.3454 -0.3314 -0.1239
  788POPS   C4B11946   6.249   6.174   7.500 -0.3636 -0.1463  0.0470
  789POPS   CNO11947   3.461  14.875   4.803  0.1183  0.1735 -0.3866
  789POPS   PO411948   3.354  15.124   5.151 -0.0894  0.3610  0.1334
  789POPS   GL111949   3.547  15.006   5.579  0.3000  0.1980 -0.0104
  789POPS   GL211950   3.734  15.037   5.777 -0.1549  0.3023 -0.2685
  789POPS   C1A11951   3.412  14.625   5.740 -0.1645 -0.1041  0.1996
  789POPS   D2A11952   3.294  14.280   6.089  0.0626  0.0968  0.0070
  789POPS   C3A11953   3.146  13.747   6.067 -0.1705  0.0266 -0.2348
  789POPS   C4A11954   2.941  13.224   6.091  0.0132 -0.2840  0.0619
  789POPS   C1B11955   3.630  15.115   6.289 -0.0253 -0.0446  0.0669
  789POPS   C2B11956   3.797  15.490   6.459 -0.5028 -0.3018 -0.0559
  789POPS   C3B11957   3.912  15.937   6.431  0.0459 -0.0775  0.1063
  789POPS   C4B11958   3.870  16.236   6.753  0.0382 -0.1239 -0.3471
  790POPS   CNO11959   4.039   6.934   5.193 -0.2491 -0.1390  0.1746
  790POPS   PO411960   4.205   6.893   5.626 -0.1163  0.5202 -0.0655
  790POPS   GL111961   4.190   6.955   6.119  0.1505 -0.0550 -0.0855
  790POPS   GL211962   4.520   7.150   6.217  0.1362 -0.0087 -0.0022
  790POPS   C1A11963   3.892   6.947   6.436  0.0949  0.0347  0.4406
  790POPS   D2A11964   3.892   6.678   6.802  0.1853  0.1629 -0.2123
  790POPS   C3A11965   3.927   6.249   6.823 -0.1391  0.1803  0.0080
  790POPS   C4A11966   4.157   6.052   6.603  0.0922  0.0840 -0.2093
  790POPS   C1B11967   4.654   7.113   6.573 -0.1804 -0.1833  0.0494
  790POPS   C2B11968   4.918   7.133   6.792 -0.0431  0.1865 -0.0201
  790POPS   C3B11969   5.006   7.139   7.224  0.0047 -0.2200 -0.0154
  790POPS   C4B11970   5.346   7.262   7.482  0.1111 -0.0819 -0.2296
  791POPS   CNO11971   3.586  15.878   4.570  0.1216  0.1831 -0.3209
  791POPS   PO411972   3.781  16.102   4.871  0.0147  0.0760  0.1378
  791POPS   GL111973   3.954  16.454   5.154 -0.0887 -0.2817 -0.0914
  791POPS   GL211974   3.649  16.439   5.456 -0.0004 -0.0779  0.0740
  791POPS   C1A11975   4.304  16.586   5.163 -0.1416  0.0166  0.2934
  791POPS   D2A11976   4.438  17.003   5.303  0.0231  0.1487  0.3276
  791POPS   C3A11977   4.637  17.071   5.717 -0.0247 -0.0964 -0.1323
  791POPS   C4A11978   4.866  17.458   5.978  0.2812  0.4509 -0.2084
  791POPS   C1B11979   3.998  16.373   5.780 -0.2862  0.0260  0.0564
  791POPS   C2B11980   4.363  16.103   6.117  0.1052  0.1308 -0.1143
  791POPS   C3B11981   4.377  16.131   6.570  0.1192 -0.0527 -0.0159
  791POPS   C4B11982   4.340  16.445   6.867  0.0260 -0.0356 -0.0564
  792POPS   CNO11983  17.810  11.794   5.786  0.0181 -0.0648 -0.0028
  792POPS   PO411984  17.431  11.606   5.730  0.0826  0.0426 -0.2241
  792POPS   GL111985  17.398  11.698   6.198  0.0690  0.3649  0.2462
  792POPS   GL211986  17.549  11.535   6.416 -0.1252 -0.0485  0.3826
  792POPS   C1A11987  17.207  12.121   6.410 -0.2410  0.0482 -0.2720
  792POPS   D2A11988  17.435  12.571   6.394 -0.3152 -0.2290  0.3346
  792POPS   C3A11989  17.855  12.632   6.271 -0.1028 -0.2615 -0.0314
  792POPS   C4A11990  18.144  12.757   6.019 -0.1335  0.1015  0.0821
  792POPS   C1B11991  17.242  11.717   6.742 -0.4837 -0.1193  0.1092
  792POPS   C2B11992  16.917  11.479   7.030  0.0880  0.1531  0.1319
  792POPS   C3B11993  16.833  11.302   7.495 -0.2124  0.0439  0.1675
  792POPS   C4B11994  16.630  11.473   7.853 -0.1828 -0.2299  0.1895
  793POPS   CNO11995   1.930  15.342   4.667 -0.0949  0.1341  0.2018
  793POPS   PO411996   1.852  15.213   5.068 -0.0926  0.0130 -0.2933
  793POPS   GL111997   1.795  15.324   5.535  0.0473 -0.1387  0.1951
  793POPS   GL211998   2.006  15.236   5.677  0.5092  0.0560 -0.3923
  793POPS   C1A11999   1.630  15.532   5.891 -0.3480  0.2717  0.1929
  793POPS   D2A12000   1.500  15.437   6.352  0.1831 -0.2299 -0.0624
  793POPS   C3A12001   1.817  15.402   6.608 -0.1998 -0.0906  0.2266
  793POPS   C4A12002   2.128  15.355   6.898  0.1515  0.0572 -0.1314
  793POPS   C1B12003   1.994  14.807   5.845  0.1002 -0.0871 -0.0663
  793POPS   C2B12004   1.720  14.444   6.024  0.0059 -0.2224  0.0615
  793POPS   C3B12005   1.432  14.106   6.171 -0.1533 -0.2060 -0.1920
  793POPS   C4B12006   1.581  13.724   6.258 -0.0070  0.0334  0.0972
  794POPS   CNO12007   8.416   4.430   4.819 -0.1325 -0.3526 -0.1796
  794POPS   PO412008   8.615   4.685   5.120 -0.0944 -0.0626  0.1356
  794POPS   GL112009   8.852   4.610   5.519  0.3817  0.0604  0.0919
  794POPS   GL212010   8.622   4.535   5.772  0.3207 -0.0486 -0.0808
  794POPS   C1A12011   9.058   4.537   5.961  0.1700 -0.1548  0.0490
  794POPS   D2A12012   9.167   4.659   6.449  0.0744 -0.2065 -0.0854
  794POPS   C3A12013   9.485   4.850   6.707  0.0625  0.1719 -0.3314
  794POPS   C4A12014   9.647   5.039   7.097  0.0612 -0.3090 -0.0201
  794POPS   C1B12015   8.437   4.309   6.084 -0.1699  0.2445 -0.0135
  794POPS   C2B12016   8.144   4.420   6.300 -0.2945 -0.0316  0.3202
  794POPS   C3B12017   7.799   4.612   6.549  0.4104 -0.0309  0.0361
  794POPS   C4B12018   7.665   4.560   7.049  0.1918 -0.1043  0.2025
  795POPS   CNO12019   6.752   4.926   5.241  0.0463  0.4671  0.3840
  795POPS   PO412020   6.290   5.075   5.342 -0.3333 -0.1609  0.0817
  795POPS   GL112021   6.042   4.824   5.540 -0.0042 -0.0273  0.0092
  795POPS   GL212022   5.785   4.785   5.374 -0.0169 -0.0895  0.0251
  795POPS   C1A12023   6.154   4.516   5.884  0.1379 -0.0073 -0.0993
  795POPS   D2A12024   6.340   4.541   6.271 -0.2266 -0.0440 -0.2512
  795POPS   C3A12025   6.183   4.396   6.538  0.0845 -0.0251  0.0071
  795POPS   C4A12026   6.110   4.473   6.949 -0.2225  0.1208  0.0171
  795POPS   C1B12027   5.651   4.971   5.770  0.5171  0.0245 -0.1009
  795POPS   C2B12028   5.533   4.925   6.123  0.1154 -0.2020  0.0778
  795POPS   C3B12029   5.369   4.993   6.589 -0.1477  0.1135  0.1946
  795POPS   C4B12030   4.995   5.197   6.752  0.2151 -0.3022 -0.0433
  796POPS   CNO12031  15.283  15.742   5.723  0.0621 -0.1160  0.1426
  796POPS   PO412032  14.941  15.536   5.420 -0.1475 -0.1678  0.2447
  796POPS   GL112033  14.802  15.616   5.863 -0.0818  0.0482 -0.1807
  796POPS   GL212034  14.848  15.971   5.960 -0.2983  0.0601  0.1491
  796POPS   C1A12035  14.490  15.568   5.974  0.0055 -0.3733  0.1210
  796POPS   D2A12036  14.241  15.742   6.228 -0.1055  0.0204  0.0841
  796POPS   C3A12037  14.179  15.840   6.636 -0.1779 -0.1302 -0.1010
  796POPS   C4A12038  14.077  15.545   7.017  0.0901  0.0632  0.1504
  796POPS   C1B12039  14.696  15.795   6.328 -0.0658  0.1262 -0.2891
  796POPS   C2B12040  14.528  15.348   6.458 -0.2854 -0.1727 -0.0250
  796POPS   C3B12041  14.475  15.105   6.779  0.2220  0.2124 -0.2623
  796POPS   C4B12042  14.125  15.075   7.141  0.2842 -0.3024  0.1557
  797POPS   CNO12043  17.700  18.678   5.915 -0.1694 -0.1584 -0.1834
  797POPS   PO412044  17.702  19.109   5.928  0.1636  0.0131  0.2867
  797POPS   GL112045  18.000  19.294   6.307 -0.1444  0.0078  0.2253
  797POPS   GL212046  18.270  19.105   6.374  0.3909  0.2555  0.0334
  797POPS   C1A12047  18.113  19.574   6.687  0.1802  0.3065  0.0295
  797POPS   D2A12048  17.823  19.603   6.952  0.1149 -0.1664  0.0817
  797POPS   C3A12049  18.079  19.536   7.191 -0.1415  0.0958  0.1108
  797POPS   C4A12050  18.464  19.633   7.376  0.2326  0.1392 -0.2462
  797POPS   C1B12051  18.475  19.257   6.738 -0.4302 -0.3705  0.0481
  797POPS   C2B12052  18.803  19.489   6.965  0.1612 -0.1690 -0.3364
  797POPS   C3B12053  19.023  19.775   7.233  0.1095  0.1306  0.1056
  797POPS   C4B12054  18.901  20.113   7.352  0.1013 -0.0522  0.0827
  798POPS   CNO12055  12.302   8.534   4.882 -0.3390 -0.3573 -0.1150
  798POPS   PO412056  12.213   8.362   5.299  0.0678  0.2840 -0.0089
  798POPS   GL112057  12.256   8.481   5.690  0.0598  0.0425 -0.1932
  798POPS   GL212058  12.153   8.828   5.748  0.0414  0.3000  0.0325
  798POPS   C1A12059  12.374   8.203   6.039 -0.0166  0.0763 -0.1073
  798POPS   D2A12060  12.550   8.102   6.416  0.4388 -0.0425  0.0147
  798POPS   C3A12061  12.838   8.194   6.724 -0.2825 -0.0928  0.1588
  798POPS   C4A12062  12.985   8.082   7.057 -0.0194 -0.0629  0.1226
  798POPS   C1B12063  12.093   9.104   6.119 -0.1197  0.0269  0.0504
  798POPS   C2B12064  12.160   9.521   6.425 -0.2056 -0.0591 -0.0101
  798POPS   C3B12065  11.920   9.720   6.792 -0.0202  0.0819  0.0379
  798POPS   C4B12066  11.965  10.092   7.055 -0.0288 -0.1234 -0.0201
  799POPS   CNO12067  12.237  18.105   5.426 -0.0350 -0.0376 -0.2971
  799POPS   PO412068  12.214  18.614   5.394  0.0609  0.1877  0.0616
  799POPS   GL112069  12.391  18.736   5.689 -0.0800  0.1506  0.1244
  799POPS   GL212070  12.508  18.527   5.977 -0.3533  0.1524 -0.1309
  799POPS   C1A12071  12.901  18.700   5.787 -0.2333  0.0941  0.3013
  799POPS   D2A12072  13.087  18.394   6.013 -0.1590 -0.0306  0.2416
  799POPS   C3A12073  12.961  18.193   6.412  0.0329 -0.1603 -0.1050
  799POPS   C4A12074  12.665  18.093   6.827 -0.0680  0.0683 -0.0938
  799POPS   C1B12075  12.269  18.961   6.268  0.0869  0.2261  0.0609
  799POPS   C2B12076  12.475  19.206   6.436  0.3323  0.0569  0.2110
  799POPS   C3B12077  12.845  19.223   6.616 -0.1457 -0.3497 -0.0870
  799POPS   C4B12078  13.240  19.058   6.863 -0.1207  0.1729  0.2634
  800POPS   CNO12079   9.358  17.850   4.957 -0.1245 -0.0478 -0.1777
  800POPS   PO412080   9.713  17.898   5.093 -0.0160  0.0163 -0.1451
  800POPS   GL112081   9.676  18.038   5.366 -0.1648 -0.0460  0.0236
  800POPS   GL212082   9.366  18.140   5.437  0.0207  0.3889 -0.1323
  800POPS   C1A12083   9.654  17.981   5.838  0.1284  0.0719 -0.2268
  800POPS   D2A12084   9.443  18.125   6.236  0.2044  0.1032  0.0484
  800POPS   C3A12085   9.576  18.410   6.432 -0.1524 -0.1210 -0.1477
  800POPS   C4A12086   9.867  18.269   6.766 -0.0491 -0.0504  0.0553
  800POPS   C1B12087   9.252  18.313   5.818  0.0063  0.2748  0.2525
  800POPS   C2B12088   9.042  18.434   6.156  0.1622 -0.1809  0.3110
  800POPS   C3B12089   9.171  18.719   6.489 -0.0575  0.0720  0.2675
  800POPS   C4B12090   9.468  18.814   6.820 -0.0074  0.0565  0.0264
  801POPS   CNO12091   8.749   8.580   4.610 -0.1510  0.2150  0.1062
  801POPS   PO412092   8.556   9.068   4.754  0.1850 -0.1689  0.1402
  801POPS   GL112093   8.768   9.145   5.164  0.1628 -0.1073 -0.0909
  801POPS   GL212094   8.542   9.369   5.417 -0.1116 -0.0760  0.1716
  801POPS   C1A12095   9.049   8.885   5.449  0.1127  0.0459  0.2809
  801POPS   D2A12096   9.420   8.650   5.568  0.0621 -0.0376 -0.0552
  801POPS   C3A12097   9.716   8.594   5.944  0.0616  0.0738  0.0186
  801POPS   C4A12098   9.825   8.505   6.357 -0.1914  0.1301 -0.0289
  801POPS   C1B12099   8.589   9.583   5.865  0.3758 -0.2307  0.0920
  801POPS   C2B12100   8.964   9.617   6.049  0.1685 -0.0097 -0.0552
  801POPS   C3B12101   9.378   9.684   6.060 -0.1070  0.1330 -0.1497
  801POPS   C4B12102   9.769   9.579   5.989  0.0747 -0.1121 -0.0182
  802POPS   CNO12103  16.433  15.751   5.428  0.2837  0.0022  0.0227
  802POPS   PO412104  16.698  16.032   5.525 -0.1678 -0.1350 -0.1301
  802POPS   GL112105  16.539  15.977   5.868  0.4432 -0.0941  0.0369
  802POPS   GL212106  16.602  15.759   6.044  0.3859 -0.0940  0.3637
  802POPS   C1A12107  16.419  16.164   6.270  0.3118 -0.2033 -0.0559
  802POPS   D2A12108  16.405  16.326   6.703  0.2938  0.0700  0.1902
  802POPS   C3A12109  16.737  16.540   6.876 -0.4795 -0.1389  0.1402
  802POPS   C4A12110  16.790  17.069   6.934 -0.0017  0.2631 -0.0989
  802POPS   C1B12111  16.216  15.744   6.208 -0.0171 -0.1903 -0.1962
  802POPS   C2B12112  15.973  16.042   6.480  0.1776 -0.3260  0.0517
  802POPS   C3B12113  15.639  16.280   6.360 -0.0159  0.1523  0.1620
  802POPS   C4B12114  15.364  16.477   6.598  0.0734  0.0141  0.3492
  803YOPS   CNO12115   4.256   1.807   4.624 -0.0330 -0.1016 -0.1173
  803YOPS   PO412116   4.655   1.784   4.616  0.1214  0.0784 -0.2003
  803YOPS   GL112117   4.639   1.806   5.019 -0.0762  0.0977  0.2476
  803YOPS   GL212118   4.760   1.625   5.235  0.1568  0.1107 -0.0868
  803YOPS   C1A12119   4.810   2.117   5.267 -0.0404 -0.1442 -0.1576
  803YOPS   D2A12120   5.169   2.332   5.353  0.1552  0.0622  0.2221
  803YOPS   C3A12121   5.158   2.617   5.773  0.0126  0.0911 -0.3837
  803YOPS   C4A12122   4.778   2.989   5.702 -0.0272  0.1435  0.0980
  803YOPS   C1B12123   4.923   1.744   5.697  0.4470 -0.0695 -0.1506
  803YOPS   C2B12124   5.144   2.045   5.872  0.0465  0.2318  0.1971
  803YOPS   D3B12125   5.390   2.270   6.182  0.1741 -0.0622 -0.1224
  803YOPS   C4B12126   5.376   2.786   6.203 -0.1170 -0.3551 -0.1535
  804YOPS   CNO12127   6.195   2.971   4.416  0.0277  0.3671  0.2937
  804YOPS   PO412128   6.041   3.202   4.809 -0.1211  0.2391  0.0074
  804YOPS   GL112129   5.930   3.203   5.216 -0.0604  0.0621  0.0721
  804YOPS   GL212130   6.154   3.485   5.416 -0.1694  0.2564  0.0110
  804YOPS   C1A12131   5.528   3.097   5.432  0.4088 -0.3247 -0.1651
  804YOPS   D2A12132   5.081   2.859   5.273 -0.3487  0.1216  0.2707
  804YOPS   C3A12133   4.777   2.561   5.451 -0.1222 -0.1274  0.0121
  804YOPS   C4A12134   4.307   2.481   5.387 -0.0994  0.2667  0.0113
  804YOPS   C1B12135   6.174   3.309   5.829 -0.0455 -0.1016  0.2252
  804YOPS   C2B12136   6.187   3.284   6.350  0.1583  0.0823  0.2064
  804YOPS   D3B12137   6.488   3.448   6.717  0.1473 -0.0003 -0.2270
  804YOPS   C4B12138   6.333   3.244   7.176  0.2678 -0.2835  0.2082
  805YOPS   CNO12139  15.880   0.184   5.351  0.2298  0.2229 -0.0484
  805YOPS   PO412140  15.551   0.056   5.656 -0.0142 -0.0034  0.0791
  805YOPS   GL112141  15.838   0.069   5.936  0.0903 -0.1601  0.0036
  805YOPS   GL212142  15.620   0.187   6.209 -0.0770  0.0765 -0.1426
  805YOPS   C1A12143  16.151  -0.109   6.289 -0.2305 -0.0904  0.0066
  805YOPS   D2A12144  16.322  -0.343   6.659  0.1560 -0.0938 -0.0268
  805YOPS   C3A12145  16.041  -0.769   6.797  0.0657  0.0733  0.1200
  805YOPS   C4A12146  15.879  -0.693   7.188 -0.1039 -0.0559 -0.1260
  805YOPS   C1B12147  15.659  -0.254   6.347 -0.2692 -0.0398  0.0093
  805YOPS   C2B12148  15.634  -0.686   6.631  0.1774  0.2533 -0.1690
  805YOPS   D3B12149  15.646  -1.078   6.827 -0.0597 -0.0035 -0.1976
  805YOPS   C4B12150  15.323  -1.383   6.773 -0.3293  0.0319 -0.2357
  806YOPS   CNO12151  10.874   3.349   4.742  0.3515  0.0283  0.4350
  806YOPS   PO412152  10.535   3.386   5.024  0.1133 -0.3468 -0.1521
  806YOPS   GL112153  10.736   3.446   5.426  0.1578 -0.3549 -0.2020
  806YOPS   GL212154  10.483   3.525   5.582 -0.0665 -0.1509 -0.2460
  806YOPS   C1A12155  10.823   3.708   5.874 -0.2651  0.3373  0.1259
  806YOPS   D2A12156  10.838   3.740   6.202 -0.1129  0.0893 -0.0135
  806YOPS   C3A12157  10.908   4.021   6.475  0.0333 -0.1781  0.2347
  806YOPS   C4A12158  10.476   4.062   6.329  0.1885 -0.1005  0.3915
  806YOPS   C1B12159  10.373   3.806   5.928 -0.2875  0.0923  0.1300
  806YOPS   C2B12160  10.176   3.683   6.281  0.3296  0.2332 -0.1396
  806YOPS   D3B12161  10.364   3.730   6.686 -0.1714  0.1046  0.0221
  806YOPS   C4B12162  10.085   3.724   7.029  0.0011 -0.4266 -0.2216
  807YOPS   CNO12163  10.743   8.703   5.400  0.0951  0.1385  0.2884
  807YOPS   PO412164  11.228   8.724   5.214 -0.1130 -0.1524  0.1018
  807YOPS   GL112165  11.495   8.512   5.453  0.3512 -0.0450 -0.3063
  807YOPS   GL212166  11.723   8.393   5.473 -0.2395 -0.0947  0.0908
  807YOPS   C1A12167  11.400   8.514   5.896 -0.1307  0.2500  0.1080
  807YOPS   D2A12168  11.430   8.518   6.468  0.0678 -0.0931  0.0173
  807YOPS   C3A12169  11.266   8.254   6.813 -0.1820  0.4090 -0.2894
  807YOPS   C4A12170  11.307   7.842   6.714 -0.2495 -0.1232 -0.3066
  807YOPS   C1B12171  11.811   8.080   5.826  0.1356  0.1386 -0.0148
  807YOPS   C2B12172  11.872   8.083   6.278 -0.1919  0.1359  0.1613
  807YOPS   D3B12173  11.701   8.098   6.729 -0.0008 -0.1532  0.2844
  807YOPS   C4B12174  11.646   8.502   6.960  0.4133 -0.2824  0.3633
  808YOPS   CNO12175   3.265  17.355   4.495  0.1790  0.3092 -0.0266
  808YOPS   PO412176   3.399  17.129   4.900 -0.1295  0.2164 -0.2987
  808YOPS   GL112177   3.530  16.862   5.268 -0.0219 -0.4339  0.2036
  808YOPS   GL212178   3.926  16.885   5.262 -0.0375 -0.3262 -0.1034
  808YOPS   C1A12179   3.624  16.878   5.680 -0.0397 -0.3720 -0.1841
  808YOPS   D2A12180   3.704  16.663   5.976  0.2336  0.0763 -0.2388
  808YOPS   C3A12181   3.941  16.453   6.289 -0.2704 -0.2526 -0.0913
  808YOPS   C4A12182   4.340  16.637   6.265 -0.2374  0.1647  0.0934
  808YOPS   C1B12183   3.889  17.243   5.577 -0.2069  0.0983 -0.1440
  808YOPS   C2B12184   3.918  17.366   5.932  0.1259  0.2775 -0.0471
  808YOPS   D3B12185   4.025  17.619   6.255  0.0363 -0.1571 -0.2211
  808YOPS   C4B12186   4.417  17.841   6.209  0.0977 -0.0832 -0.1066
  809YOPS   CNO12187   1.924   9.542   6.118  0.2824  0.1381  0.0366
  809YOPS   PO412188   1.990   9.922   5.994 -0.0690  0.1431 -0.2859
  809YOPS   GL112189   1.641   9.891   6.359 -0.0155 -0.1655 -0.4171
  809YOPS   GL212190   1.591  10.244   6.487  0.1537  0.4793  0.0854
  809YOPS   C1A12191   1.391   9.687   6.671  0.0202 -0.1304 -0.0832
  809YOPS   D2A12192   1.086   9.417   6.676 -0.5113  0.0367  0.1595
  809YOPS   C3A12193   0.748   9.242   6.947  0.0786  0.0059 -0.1942
  809YOPS   C4A12194   0.765   9.381   7.381 -0.0706  0.1482 -0.2861
  809YOPS   C1B12195   1.342  10.147   6.855  0.0194 -0.0428 -0.6277
  809YOPS   C2B12196   1.458  10.344   7.202 -0.0953  0.2228 -0.1522
  809YOPS   D3B12197   1.614  10.745   7.316 -0.1976 -0.1996 -0.1913
  809YOPS   C4B12198   1.406  10.966   7.620  0.0306 -0.0697 -0.0109
  810YOPS   CNO12199   9.096  16.360   5.255 -0.1176  0.0164  0.2749
  810YOPS   PO412200   9.056  16.069   4.949 -0.0678 -0.0297 -0.3597
  810YOPS   GL112201   9.014  15.840   5.381  0.0846 -0.1153  0.5116
  810YOPS   GL212202   9.162  16.014   5.642 -0.1078 -0.2703  0.2592
  810YOPS   C1A12203   8.925  15.595   5.886 -0.2554 -0.1614  0.1325
  810YOPS   D2A12204   8.848  15.340   6.212 -0.0412 -0.0878  0.3157
  810YOPS   C3A12205   9.094  15.407   6.606 -0.0323 -0.0803 -0.3041
  810YOPS   C4A12206   9.094  15.690   6.902 -0.1852  0.0956  0.0025
  810YOPS   C1B12207   9.306  16.267   6.022 -0.2059  0.0332 -0.2507
  810YOPS   C2B12208   9.329  16.325   6.450 -0.0963  0.2311  0.1387
  810YOPS   D3B12209   9.136  16.562   6.860 -0.2625  0.2276  0.2318
  810YOPS   C4B12210   8.746  16.549   6.947  0.1584 -0.0702  0.1476
  811YOPS   CNO12211  14.424  14.010   5.549  0.2703 -0.1440 -0.1568
  811YOPS   PO412212  14.795  14.165   5.579  0.2285 -0.0631 -0.0123
  811YOPS   GL112213  14.986  14.211   5.943 -0.5321  0.1014 -0.0522
  811YOPS   GL212214  15.357  14.293   5.967 -0.1012 -0.0151  0.4377
  811YOPS   C1A12215  15.044  14.348   6.395  0.4848  0.2246  0.0913
  811YOPS   D2A12216  15.299  14.078   6.701  0.3186 -0.0286  0.0507
  811YOPS   C3A12217  15.517  13.798   6.873 -0.0457 -0.0800  0.1740
  811YOPS   C4A12218  15.747  13.650   7.255  0.0004 -0.1559  0.2329
  811YOPS   C1B12219  15.659  14.139   6.226 -0.2426 -0.1659 -0.1930
  811YOPS   C2B12220  15.762  14.250   6.799 -0.1718 -0.1553 -0.0448
  811YOPS   D3B12221  16.024  14.198   7.175 -0.0927 -0.2883 -0.1714
  811YOPS   C4B12222  15.942  14.668   7.469  0.0493  0.0287 -0.0288
  812YOPS   CNO12223   0.105   3.938   4.889  0.3441 -0.0108 -0.3079
  812YOPS   PO412224  -0.143   3.824   5.226  0.0630  0.0088 -0.1310
  812YOPS   GL112225  -0.039   3.979   5.692  0.1467  0.1193 -0.2826
  812YOPS   GL212226  -0.341   3.781   5.790  0.0560  0.0524 -0.0945
  812YOPS   C1A12227   0.005   4.075   6.093 -0.1418  0.3423  0.2786
  812YOPS   D2A12228  -0.066   4.467   6.282 -0.0063  0.0664 -0.3207
  812YOPS   C3A12229   0.226   4.789   6.412 -0.1074 -0.3800 -0.1140
  812YOPS   C4A12230   0.635   4.738   6.199 -0.1870 -0.0432  0.2946
  812YOPS   C1B12231  -0.410   3.463   6.081 -0.0095  0.0120 -0.3434
  812YOPS   C2B12232  -0.317   3.310   6.504  0.0991  0.1251  0.1621
  812YOPS   D3B12233  -0.117   3.092   6.802 -0.1419 -0.2369 -0.0046
  812YOPS   C4B12234   0.221   2.739   6.667  0.2194 -0.1658  0.3874
  813YOPS   CNO12235   7.903   1.039   5.307 -0.0016 -0.2183  0.2426
  813YOPS   PO412236   7.640   1.378   5.197  0.1675 -0.1458  0.1782
  813YOPS   GL112237   7.658   1.375   5.619  0.1339 -0.0712  0.0270
  813YOPS   GL212238   7.942   1.419   5.669 -0.0181  0.1289  0.0875
  813YOPS   C1A12239   7.741   1.075   6.007 -0.5731  0.3138  0.2050
  813YOPS   D2A12240   7.979   0.920   6.233  0.0427  0.2917 -0.2429
  813YOPS   C3A12241   8.016   0.754   6.721  0.3112 -0.2111  0.0182
  813YOPS   C4A12242   7.685   0.536   6.847  0.2836  0.3433  0.4769
  813YOPS   C1B12243   7.994   1.485   6.097 -0.0781 -0.1110 -0.0077
  813YOPS   C2B12244   7.796   1.754   6.474  0.0047 -0.0166  0.3549
  813YOPS   D3B12245   7.519   1.998   6.533 -0.0774 -0.3441 -0.0724
  813YOPS   C4B12246   7.260   1.988   6.889 -0.0065  0.2525  0.0811
  814YOPS   CNO12247   6.218  13.844   4.829 -0.2775 -0.1345 -0.1187
  814YOPS   PO412248   6.419  14.062   5.179  0.2979 -0.0026  0.1089
  814YOPS   GL112249   6.563  14.310   5.501  0.2252 -0.2196 -0.1299
  814YOPS   GL212250   6.400  14.672   5.403 -0.0868 -0.1849  0.0156
  814YOPS   C1A12251   6.690  14.618   5.865 -0.3646 -0.0282  0.0048
  814YOPS   D2A12252   6.943  14.646   6.326 -0.1608  0.2012  0.0719
  814YOPS   C3A12253   6.864  14.662   6.783  0.0826  0.0473 -0.2429
  814YOPS   C4A12254   6.916  14.999   7.108 -0.2597 -0.1742 -0.0339
  814YOPS   C1B12255   6.111  14.617   5.789 -0.0659  0.0084  0.1815
  814YOPS   C2B12256   5.800  14.575   6.007  0.2453  0.1692  0.1224
  814YOPS   D3B12257   5.493  14.472   6.363 -0.1969  0.0644  0.0854
  814YOPS   C4B12258   5.430  14.548   6.753  0.0852 -0.2172  0.2507
  815YOPS   CNO12259   7.227  12.537   4.841  0.0965  0.4656 -0.0809
  815YOPS   PO412260   6.782  12.258   4.891 -0.0899  0.3218  0.0624
  815YOPS   GL112261   6.725  12.278   5.331  0.0940 -0.0614  0.0120
  815YOPS   GL212262   6.329  12.329   5.446 -0.1655  0.0514 -0.3295
  815YOPS   C1A12263   6.753  12.210   5.732 -0.1206  0.1687 -0.3325
  815YOPS   D2A12264   6.894  12.161   6.198  0.1027  0.0015  0.0918
  815YOPS   C3A12265   7.003  11.893   6.602 -0.3105  0.2408  0.1827
  815YOPS   C4A12266   7.381  11.893   6.662  0.0825 -0.2928  0.2387
  815YOPS   C1B12267   6.218  12.239   5.792 -0.3697  0.4350  0.0958
  815YOPS   C2B12268   6.422  12.287   6.143  0.1918 -0.2155 -0.0505
  815YOPS   D3B12269   6.536  12.544   6.459  0.1500 -0.1470  0.0655
  815YOPS   C4B12270   6.685  12.981   6.464 -0.0060  0.2825 -0.1333
  816YOPS   CNO12271  14.357   1.760   5.321  0.0482 -0.0183  0.0335
  816YOPS   PO412272  13.913   2.032   5.423 -0.2127 -0.1691 -0.0609
  816YOPS   GL112273  13.674   2.092   5.771 -0.0250 -0.2684 -0.2884
  816YOPS   GL212274  13.438   1.873   5.829  0.0475  0.0491 -0.3623
  816YOPS   C1A12275  13.934   1.897   6.200  0.1447  0.1693  0.2094
  816YOPS   D2A12276  14.273   1.596   6.216 -0.2392  0.1150  0.1595
  816YOPS   C3A12277  14.313   1.289   6.518 -0.2438  0.3504  0.2458
  816YOPS   C4A12278  13.986   1.238   6.847  0.0106 -0.0355 -0.3928
  816YOPS   C1B12279  13.246   1.581   6.211  0.0160  0.1894  0.2621
  816YOPS   C2B12280  12.889   1.376   6.236 -0.3713 -0.0892 -0.2679
  816YOPS   D3B12281  12.480   1.375   6.097 -0.0410  0.1166  0.0387
  816YOPS   C4B12282  12.352   1.757   6.250  0.0902  0.2228  0.2911
  817YOPS   CNO12283   4.513   5.593   5.367 -0.2463 -0.0393  0.3628
  817YOPS   PO412284   4.832   5.509   5.559 -0.0756  0.0104 -0.5707
  817YOPS   GL112285   4.527   5.413   5.835 -0.0260  0.0580  0.0729
  817YOPS   GL212286   4.412   5.222   5.639  0.1539  0.1154  0.0553
  817YOPS   C1A12287   4.339   5.607   6.190 -0.0946  0.2108  0.2871
  817YOPS   D2A12288   4.113   5.524   6.512  0.0857  0.0519  0.0368
  817YOPS   C3A12289   4.127   5.662   7.020  0.3720 -0.3019  0.2232
  817YOPS   C4A12290   4.362   6.009   7.097  0.0042 -0.4707  0.2645
  817YOPS   C1B12291   4.608   4.863   5.917  0.1046 -0.1235  0.0208
  817YOPS   C2B12292   4.668   4.752   6.457 -0.2153 -0.0749  0.3905
  817YOPS   D3B12293   4.798   4.768   6.894  0.3120  0.0262  0.0585
  817YOPS   C4B12294   5.213   4.901   7.043 -0.1037  0.1812 -0.3260
  818YOPS   CNO12295   9.429  19.180   5.009  0.1114 -0.2646  0.4787
  818YOPS   PO412296   9.474  18.829   5.136 -0.2985 -0.1389  0.1125
  818YOPS   GL112297   9.385  18.663   5.536  0.2540  0.4081 -0.2023
  818YOPS   GL212298   9.643  18.689   5.657 -0.2223 -0.1161 -0.0452
  818YOPS   C1A12299   9.104  18.781   5.775 -0.0484 -0.2017  0.0565
  818YOPS   D2A12300   8.724  18.546   5.778 -0.2123  0.0150 -0.0693
  818YOPS   C3A12301   8.754  18.090   5.847  0.0912  0.0165 -0.1363
  818YOPS   C4A12302   9.086  17.817   5.995  0.0099  0.1769 -0.0377
  818YOPS   C1B12303   9.475  18.701   6.077  0.0294 -0.0628  0.0105
  818YOPS   C2B12304   9.648  18.976   6.361 -0.0309  0.0539 -0.1089
  818YOPS   D3B12305  10.114  19.030   6.406 -0.0018 -0.4431  0.0220
  818YOPS   C4B12306  10.402  19.298   6.652 -0.1583  0.0410  0.3573
  819YOPS   CNO12307   5.065  12.794   5.043  0.0679 -0.0786  0.0850
  819YOPS   PO412308   5.290  12.559   5.234 -0.2860 -0.3532 -0.0996
  819YOPS   GL112309   5.359  12.627   5.661  0.1929 -0.4512  0.1900
  819YOPS   GL212310   5.147  12.855   5.896  0.0080  0.3121 -0.1772
  819YOPS   C1A12311   5.415  12.548   6.137  0.1279  0.0355 -0.2011
  819YOPS   D2A12312   5.370  12.421   6.429 -0.1887  0.0398 -0.0258
  819YOPS   C3A12313   5.166  12.745   6.532 -0.0429  0.3006 -0.0119
  819YOPS   C4A12314   5.304  12.931   6.933  0.1364  0.0735  0.2187
  819YOPS   C1B12315   4.848  12.774   6.189  0.1806  0.2987 -0.0350
  819YOPS   C2B12316   4.534  12.832   6.472  0.0413 -0.4282 -0.0884
  819YOPS   D3B12317   4.357  12.823   6.901  0.0550  0.4563 -0.0053
  819YOPS   C4B12318   4.610  12.900   7.362  0.2727  0.1148 -0.1900
  820YOPS   CNO12319   7.049  16.902   4.656 -0.2056 -0.0811 -0.0975
  820YOPS   PO412320   6.820  17.129   4.938  0.1565 -0.1187 -0.2786
  820YOPS   GL112321   6.674  17.062   5.259 -0.0778 -0.1440  0.1644
  820YOPS   GL212322   6.677  17.393   5.347  0.1236 -0.0496  0.0330
  820YOPS   C1A12323   6.710  16.982   5.707  0.0787 -0.1859  0.1822
  820YOPS   D2A12324   6.719  16.964   6.076  0.1375  0.0841 -0.0278
  820YOPS   C3A12325   6.434  16.835   6.271 -0.2205  0.0420 -0.1928
  820YOPS   C4A12326   6.404  16.382   6.342 -0.1156  0.1511 -0.1081
  820YOPS   C1B12327   6.654  17.635   5.780 -0.1295 -0.0117 -0.2246
  820YOPS   C2B12328   6.715  18.001   6.056  0.1438 -0.2927  0.2236
  820YOPS   D3B12329   7.131  18.197   6.104  0.1711  0.1838  0.1223
  820YOPS   C4B12330   7.186  18.502   6.367 -0.1935 -0.0784  0.0346
  821YOPS   CNO12331   6.640   0.374   5.186 -0.1559  0.0158 -0.0621
  821YOPS   PO412332   6.280   0.581   5.278 -0.4198  0.0834  0.0968
  821YOPS   GL112333   6.525   0.531   5.651  0.0821 -0.1143 -0.4184
  821YOPS   GL212334   6.531   0.369   5.681 -0.2474  0.4222  0.0864
  821YOPS   C1A12335   6.814   0.825   5.854  0.0413  0.2316 -0.1744
  821YOPS   D2A12336   6.913   1.340   5.986 -0.0318 -0.1856 -0.3105
  821YOPS   C3A12337   7.320   1.506   5.965 -0.1327 -0.3867 -0.2669
  821YOPS   C4A12338   7.530   1.340   6.293 -0.2697 -0.1503 -0.0121
  821YOPS   C1B12339   6.398   0.303   6.120  0.2312  0.1095 -0.3881
  821YOPS   C2B12340   6.025   0.554   6.387  0.0135 -0.0008  0.0413
  821YOPS   D3B12341   5.932   0.902   6.385 -0.0401  0.1139  0.0497
  821YOPS   C4B12342   5.723   0.982   6.106 -0.0402 -0.0688 -0.2237
  822YOPS   CNO12343   2.416   6.819   5.824  0.3321 -0.1289 -0.1029
  822YOPS   PO412344   2.429   7.322   5.661  0.0803  0.1195  0.0437
  822YOPS   GL112345   2.254   7.343   6.012  0.1108 -0.6068 -0.2328
  822YOPS   GL212346   1.988   7.075   6.041 -0.1659  0.1328  0.2052
  822YOPS   C1A12347   2.115   7.327   6.475  0.4210  0.4700 -0.1960
  822YOPS   D2A12348   1.781   7.304   6.758  0.0179  0.0353 -0.0692
  822YOPS   C3A12349   1.682   7.465   7.032 -0.0291 -0.2934 -0.3365
  822YOPS   C4A12350   1.565   7.902   6.966  0.1169 -0.2446 -0.2157
  822YOPS   C1B12351   1.859   6.904   6.451 -0.1834  0.0983 -0.0505
  822YOPS   C2B12352   1.714   6.778   6.804  0.1177  0.1020 -0.0574
  822YOPS   D3B12353   1.445   7.010   7.020  0.3205  0.2574  0.1786
  822YOPS   C4B12354   0.947   6.818   7.054 -0.1278  0.0302  0.2282
  823YOPS   CNO12355  16.981  18.657   5.319  0.4225  0.0594  0.0683
  823YOPS   PO412356  16.805  18.964   5.619  0.4811 -0.4435 -0.0849
  823YOPS   GL112357  16.721  18.990   6.102  0.3855  0.1433  0.2235
  823YOPS   GL212358  16.495  18.685   6.229 -0.0490 -0.0846  0.0708
  823YOPS   C1A12359  16.948  19.002   6.583  0.3754  0.1677  0.2257
  823YOPS   D2A12360  16.851  19.030   7.030 -0.2480 -0.0397 -0.0303
  823YOPS   C3A12361  16.687  19.065   7.451  0.1617 -0.0189 -0.2857
  823YOPS   C4A12362  16.304  19.296   7.447  0.2154 -0.1945 -0.1605
  823YOPS   C1B12363  16.714  18.384   6.542  0.1344  0.1604 -0.3964
  823YOPS   C2B12364  16.518  18.479   6.956 -0.0544  0.2401  0.2043
  823YOPS   D3B12365  16.797  18.440   7.253  0.0432  0.0365  0.0096
  823YOPS   C4B12366  16.990  18.605   7.477 -0.1433  0.3884  0.2104
  824YOPS   CNO12367   4.899  14.051   4.836 -0.1517 -0.2237 -0.0310
  824YOPS   PO412368   4.698  14.246   5.225  0.0142  0.3259  0.0948
  824YOPS   GL112369   4.880  14.240   5.624  0.1836  0.1225  0.1781
  824YOPS   GL212370   4.785  14.544   5.771  0.3528 -0.0348  0.2020
  824YOPS   C1A12371   4.997  13.875   5.901  0.2291  0.0697 -0.1400
  824YOPS   D2A12372   4.973  13.646   6.308 -0.1885 -0.4111  0.1488
  824YOPS   C3A12373   5.209  13.597   6.660 -0.0552 -0.3112 -0.2120
  824YOPS   C4A12374   5.298  13.442   7.048  0.3301  0.0745  0.1534
  824YOPS   C1B12375   4.740  14.263   6.087  0.1014  0.0743 -0.1395
  824YOPS   C2B12376   4.534  14.244   6.574 -0.0350  0.1006 -0.4852
  824YOPS   D3B12377   4.147  14.300   6.702  0.0658  0.2313  0.0931
  824YOPS   C4B12378   3.918  14.638   6.719 -0.2624  0.2427  0.0085
  825YOPS   CNO12379   7.887  17.879   4.524  0.0549 -0.1548 -0.0936
  825YOPS   PO412380   8.302  18.112   4.696 -0.2037  0.0280 -0.2012
  825YOPS   GL112381   8.366  17.958   5.150  0.0747 -0.0616  0.0640
  825YOPS   GL212382   8.482  18.236   5.306 -0.3837 -0.1031 -0.1365
  825YOPS   C1A12383   8.447  17.764   5.468 -0.0523  0.2081 -0.1354
  825YOPS   D2A12384   8.688  17.530   5.782 -0.1186  0.0388  0.0230
  825YOPS   C3A12385   8.947  17.271   6.072 -0.0635 -0.1412 -0.0083
  825YOPS   C4A12386   9.141  17.325   6.499 -0.1589  0.1337  0.0144
  825YOPS   C1B12387   8.295  18.212   5.730 -0.0346 -0.1538  0.2711
  825YOPS   C2B12388   8.162  18.099   6.240  0.0651  0.0821 -0.2026
  825YOPS   D3B12389   8.022  17.554   6.434  0.1906 -0.1319  0.0270
  825YOPS   C4B12390   7.720  17.249   6.177 -0.4733 -0.2830 -0.1967
  826YOPS   CNO12391   7.156  14.264   4.733  0.0737  0.1759 -0.0220
  826YOPS   PO412392   7.277  14.516   5.026  0.1306 -0.1658 -0.0213
  826YOPS   GL112393   7.262  14.631   5.410 -0.2117 -0.0488  0.0683
  826YOPS   GL212394   7.216  14.300   5.674  0.1761  0.2785  0.0568
  826YOPS   C1A12395   7.343  14.736   5.894  0.1878  0.1959  0.1373
  826YOPS   D2A12396   7.368  14.473   6.157 -0.0211  0.0793  0.0686
  826YOPS   C3A12397   7.431  14.488   6.570  0.3808 -0.0455  0.1265
  826YOPS   C4A12398   7.313  14.829   6.809 -0.2277  0.1765 -0.0655
  826YOPS   C1B12399   6.926  14.200   6.030  0.2079 -0.0330 -0.0887
  826YOPS   C2B12400   6.713  13.805   6.094 -0.0281  0.2365 -0.0094
  826YOPS   D3B12401   6.441  13.555   6.354 -0.0461 -0.1733  0.2482
  826YOPS   C4B12402   6.132  13.364   6.099 -0.2491 -0.1493 -0.0434
  827YOPS   CNO12403  18.025   7.940   5.793  0.0537  0.3998 -0.0617
  827YOPS   PO412404  18.110   7.431   5.721 -0.1284 -0.1827 -0.1157
  827YOPS   GL112405  17.739   7.527   6.058 -0.2266 -0.0104  0.1015
  827YOPS   GL212406  17.825   7.741   6.248  0.1892  0.2683 -0.7647
  827YOPS   C1A12407  17.282   7.611   5.922  0.0595 -0.1820 -0.2916
  827YOPS   D2A12408  16.904   7.670   6.132  0.1833 -0.2212  0.0633
  827YOPS   C3A12409  16.636   7.630   6.496  0.0624  0.1016  0.0211
  827YOPS   C4A12410  16.649   8.048   6.667  0.1916  0.0730 -0.0804
  827YOPS   C1B12411  17.623   7.819   6.622 -0.1838  0.0981 -0.2427
  827YOPS   C2B12412  17.595   7.830   7.050  0.1901 -0.1905  0.2621
  827YOPS   D3B12413  17.310   7.777   7.447  0.0851  0.0082  0.0787
  827YOPS   C4B12414  16.987   7.386   7.522 -0.0101  0.2074 -0.1917
  828YOPS   CNO12415   0.443   9.250   5.286 -0.0934  0.0437  0.4279
  828YOPS   PO412416   0.404   9.248   5.761  0.1823  0.2595  0.0327
  828YOPS   GL112417   0.193   9.254   6.178 -0.0012  0.4026  0.0426
  828YOPS   GL212418   0.173   9.554   6.380 -0.0609 -0.0376 -0.2302
  828YOPS   C1A12419   0.292   9.048   6.572  0.2652 -0.2977 -0.1179
  828YOPS   D2A12420   0.337   8.956   6.989  0.0503  0.1231 -0.1243
  828YOPS   C3A12421   0.460   8.955   7.425  0.1372 -0.4847 -0.1304
  828YOPS   C4A12422   0.446   8.555   7.698  0.1281 -0.0999  0.2213
  828YOPS   C1B12423   0.396   9.704   6.746 -0.2750 -0.1832 -0.2562
  828YOPS   C2B12424   0.294   9.511   6.994 -0.0227  0.2799 -0.0846
  828YOPS   D3B12425  -0.103   9.326   7.196  0.1279 -0.2482  0.1500
  828YOPS   C4B12426  -0.376   9.582   7.144 -0.2748  0.1727 -0.2675
  829YOPS   CNO12427  10.787  15.268   4.412 -0.3037 -0.0263 -0.2579
  829YOPS   PO412428  10.720  15.736   4.448  0.0997  0.3914  0.0630
  829YOPS   GL112429  10.626  15.459   4.880  0.1874 -0.0275 -0.3963
  829YOPS   GL212430  10.623  15.018   4.865  0.0629 -0.0395 -0.1336
  829YOPS   C1A12431  10.371  15.547   5.201  0.0032  0.0662 -0.4234
  829YOPS   D2A12432  10.249  15.453   5.649 -0.0187  0.1061 -0.0760
  829YOPS   C3A12433  10.344  15.212   6.043 -0.1172 -0.1424  0.3454
  829YOPS   C4A12434  10.393  15.293   6.527 -0.0948  0.0017 -0.1444
  829YOPS   C1B12435  10.591  15.122   5.335  0.0521 -0.2960 -0.1944
  829YOPS   C2B12436  10.753  15.314   5.715 -0.0868 -0.1678  0.0789
  829YOPS   D3B12437  10.992  15.590   5.924 -0.3758 -0.0621  0.0781
  829YOPS   C4B12438  10.921  15.854   6.335 -0.0783  0.2580  0.0308
  830YOPS   CNO12439   4.141   9.831   5.372 -0.0098  0.1994 -0.3118
  830YOPS   PO412440   4.662   9.779   5.337 -0.1970  0.0708  0.0873
  830YOPS   GL112441   4.765   9.602   5.648 -0.1419 -0.0013 -0.2253
  830YOPS   GL212442   4.474   9.611   5.872  0.2360 -0.1349  0.2246
  830YOPS   C1A12443   4.923   9.337   5.981 -0.2378  0.2634  0.3739
  830YOPS   D2A12444   4.992   9.362   6.387  0.0191  0.1492  0.1660
  830YOPS   C3A12445   5.053   9.307   6.782  0.0839  0.1514  0.1796
  830YOPS   C4A12446   5.127   9.261   7.206 -0.2627  0.1583 -0.3305
  830YOPS   C1B12447   4.420   9.321   6.155 -0.2031  0.0979 -0.1071
  830YOPS   C2B12448   4.519   9.146   6.563 -0.1603  0.0792 -0.1308
  830YOPS   D3B12449   4.639   9.045   6.885  0.2226  0.1610 -0.0482
  830YOPS   C4B12450   4.381   8.980   7.292 -0.0064  0.2655  0.1877
  831POPE   NH312451  12.822   6.775   5.243  0.0288  0.1830 -0.0469
  831POPE   PO412452  12.356   6.683   5.209 -0.0872  0.3107 -0.0441
  831POPE   GL112453  12.468   6.674   5.749 -0.0530 -0.0824 -0.0564
  831POPE   GL212454  12.744   6.864   6.026 -0.0599 -0.1371 -0.1678
  831POPE   C1A12455  12.285   6.716   6.143  0.0019  0.3173 -0.0120
  831POPE   D2A12456  12.228   6.607   6.547 -0.3038  0.1962 -0.1028
  831POPE   C3A12457  12.592   6.296   6.817  0.2898  0.1076  0.2041
  831POPE   C4A12458  12.855   6.575   7.169 -0.0444  0.2061  0.2826
  831POPE   C1B12459  13.098   6.890   6.309 -0.0613 -0.1327 -0.2039
  831POPE   C2B12460  13.322   7.001   6.840 -0.0880 -0.0655  0.0564
  831POPE   C3B12461  13.470   7.135   7.248 -0.1175 -0.0196  0.2365
  831POPE   C4B12462  13.692   7.267   7.575  0.1798  0.1248 -0.0548
  832POPE   NH312463   8.249   0.396   4.947  0.2690 -0.1205 -0.4600
  832POPE   PO412464   8.335   0.769   5.172  0.1395  0.1067  0.0772
  832POPE   GL112465   8.678   0.575   5.505  0.1739  0.1213 -0.0363
  832POPE   GL212466   9.029   0.648   5.512 -0.0220  0.0958  0.0072
  832POPE   C1A12467   8.839   0.223   5.855 -0.0971  0.1673 -0.0488
  832POPE   D2A12468   9.210   0.085   5.911  0.1442 -0.0051  0.2847
  832POPE   C3A12469   9.255  -0.167   6.241  0.0966 -0.1417  0.0626
  832POPE   C4A12470   9.330  -0.114   6.721 -0.1052  0.2176  0.1843
  832POPE   C1B12471   9.295   0.652   5.851 -0.2882  0.1225 -0.2006
  832POPE   C2B12472   9.501   0.991   6.182  0.2859 -0.1299  0.0878
  832POPE   C3B12473   9.578   1.390   6.324 -0.2601  0.0520 -0.1236
  832POPE   C4B12474   9.907   1.655   6.444 -0.1040 -0.1518 -0.1768
  833POPE   NH312475   6.250  18.621   4.846 -0.3088  0.0383 -0.1001
  833POPE   PO412476   6.504  18.377   4.697  0.3436  0.0414 -0.1582
  833POPE   GL112477   6.544  18.316   5.152 -0.0558  0.1004 -0.4036
  833POPE   GL212478   6.244  18.263   5.366  0.2234  0.0395  0.1577
  833POPE   C1A12479   6.723  17.963   5.428  0.1505 -0.1661 -0.5028
  833POPE   D2A12480   7.082  17.846   5.743  0.2331 -0.7112  0.0905
  833POPE   C3A12481   7.194  17.738   6.156 -0.0811  0.0140  0.1870
  833POPE   C4A12482   7.457  17.588   6.450 -0.1340 -0.0824 -0.2096
  833POPE   C1B12483   5.997  17.971   5.750 -0.0959 -0.2412  0.1539
  833POPE   C2B12484   5.752  17.912   6.094  0.0481 -0.0482  0.2887
  833POPE   C3B12485   5.759  17.496   6.349  0.1788  0.0954  0.0171
  833POPE   C4B12486   5.348  17.354   6.377  0.3611 -0.1148 -0.0172
  834POPE   NH312487   0.945   4.041   5.389 -0.0624 -0.0829  0.0713
  834POPE   PO412488   0.708   4.367   5.457  0.1439 -0.1333 -0.0529
  834POPE   GL112489   0.551   4.154   5.778  0.3576 -0.0021  0.2919
  834POPE   GL212490   0.648   3.823   5.764  0.3077  0.1824  0.0697
  834POPE   C1A12491   0.471   4.217   6.250  0.0290 -0.0347 -0.2603
  834POPE   D2A12492   0.537   4.382   6.648  0.3462 -0.0206  0.3620
  834POPE   C3A12493   0.486   4.119   7.045  0.1196  0.1418 -0.0732
  834POPE   C4A12494   0.601   4.007   7.448 -0.1947  0.0523 -0.2831
  834POPE   C1B12495   0.756   3.782   6.217 -0.1107  0.0582  0.0827
  834POPE   C2B12496   0.478   3.861   6.630  0.2321 -0.0619 -0.2144
  834POPE   C3B12497   0.045   4.046   6.627  0.0983  0.1710 -0.0287
  834POPE   C4B12498  -0.263   4.362   6.796  0.1762 -0.1698 -0.0487
  835POPE   NH312499   8.180  15.961   4.791 -0.2729  0.1720  0.1530
  835POPE   PO412500   7.765  15.591   4.892  0.0882 -0.2707 -0.2834
  835POPE   GL112501   7.588  15.492   5.166  0.2766 -0.1793 -0.3017
  835POPE   GL212502   7.850  15.351   5.396  0.1975  0.2589  0.1998
  835POPE   C1A12503   7.384  15.261   5.547  0.1402  0.1680  0.0368
  835POPE   D2A12504   7.547  15.190   5.855  0.1227  0.1994  0.1972
  835POPE   C3A12505   7.770  14.883   5.667 -0.1984  0.1653  0.1226
  835POPE   C4A12506   7.856  14.442   5.630 -0.0411  0.4145  0.0912
  835POPE   C1B12507   8.052  15.221   5.822 -0.2108 -0.1041 -0.0718
  835POPE   C2B12508   8.212  15.252   6.251  0.1726 -0.1224  0.0556
  835POPE   C3B12509   8.150  15.359   6.674 -0.0040 -0.2553 -0.1404
  835POPE   C4B12510   8.354  15.451   7.013 -0.3138  0.2923  0.0206
  836POPE   NH312511  15.075   0.108   5.464 -0.1964  0.0938  0.0272
  836POPE   PO412512  15.028   0.541   5.568  0.0066 -0.3558  0.1123
  836POPE   GL112513  14.972   0.650   6.117 -0.0281  0.1404  0.2274
  836POPE   GL212514  14.796   0.825   6.161  0.1150  0.2297 -0.0027
  836POPE   C1A12515  14.917   0.495   6.600  0.1929  0.2126  0.3436
  836POPE   D2A12516  14.805   0.257   6.918 -0.0526 -0.2659  0.1427
  836POPE   C3A12517  14.848   0.528   7.315 -0.2321  0.1059 -0.2593
  836POPE   C4A12518  15.173   0.629   7.756  0.2314  0.0317 -0.1472
  836POPE   C1B12519  14.540   0.735   6.506  0.1876 -0.1996  0.0414
  836POPE   C2B12520  14.356   0.730   6.969  0.3333 -0.2184  0.1901
  836POPE   C3B12521  14.355   0.419   7.320 -0.0537  0.0533  0.0773
  836POPE   C4B12522  14.703   0.117   7.509 -0.1677 -0.2503 -0.1353
  837POPE   NH312523   9.979  13.285   4.651 -0.0053 -0.0763  0.0898
  837POPE   PO412524  10.272  13.653   4.588 -0.1069 -0.0299  0.1573
  837POPE   GL112525  10.489  13.745   5.026 -0.0545 -0.1095  0.4769
  837POPE   GL212526  10.621  14.090   5.261 -0.1898  0.2343 -0.1366
  837POPE   C1A12527  10.483  13.620   5.344 -0.3263  0.3371 -0.2135
  837POPE   D2A12528  10.902  13.808   5.543  0.0265 -0.2088  0.2153
  837POPE   C3A12529  10.908  13.939   5.961  0.0233  0.1732 -0.0693
  837POPE   C4A12530  10.939  13.926   6.301  0.3403  0.1192 -0.0165
  837POPE   C1B12531  10.571  14.335   5.694 -0.1538 -0.3140 -0.0949
  837POPE   C2B12532  10.576  14.409   6.101  0.1383  0.2703 -0.0206
  837POPE   C3B12533  10.871  14.427   6.381 -0.0601  0.0428  0.0630
  837POPE   C4B12534  11.204  14.448   6.697 -0.5435 -0.0798  0.2826
  838POPE   NH312535  18.837  10.475   5.727  0.0091  0.0922  0.0411
  838POPE   PO412536  19.219  10.311   5.889 -0.0039 -0.0026 -0.1336
  838POPE   GL112537  19.152  10.478   6.282 -0.2018  0.0280 -0.2015
  838POPE   GL212538  19.459  10.521   6.556  0.1388 -0.2969  0.1612
  838POPE   C1A12539  18.887  10.728   6.462 -0.1998  0.0742  0.3546
  838POPE   D2A12540  18.743  10.899   6.791  0.0518 -0.0922 -0.0021
  838POPE   C3A12541  18.276  10.990   7.017 -0.0078 -0.2241  0.1835
  838POPE   C4A12542  17.769  11.007   7.119 -0.3177 -0.2647  0.3634
  838POPE   C1B12543  19.156  10.537   6.788  0.0693  0.1247  0.1407
  838POPE   C2B12544  19.032  10.207   7.159  0.1500 -0.0913  0.1435
  838POPE   C3B12545  18.909  10.032   7.621  0.2241  0.0494  0.2459
  838POPE   C4B12546  18.843  10.324   7.885 -0.0173  0.1165 -0.2083
  839POPE   NH312547   3.653   4.934   5.376  0.0649 -0.1644  0.1948
  839POPE   PO412548   3.500   5.350   5.420  0.0693  0.0731 -0.1639
  839POPE   GL112549   3.356   5.319   5.893  0.0435  0.2979 -0.0201
  839POPE   GL212550   3.244   4.995   5.731 -0.3653  0.1958 -0.2672
  839POPE   C1A12551   3.362   5.123   6.269 -0.0925 -0.2532 -0.2696
  839POPE   D2A12552   3.103   5.134   6.648  0.0045  0.2837 -0.2154
  839POPE   C3A12553   2.651   5.128   6.571 -0.0839  0.2788  0.0033
  839POPE   C4A12554   2.428   5.067   6.197 -0.1979 -0.0869 -0.2768
  839POPE   C1B12555   3.498   4.683   6.081 -0.2031 -0.0312  0.1575
  839POPE   C2B12556   3.852   4.642   6.369  0.2340  0.5138  0.2235
  839POPE   C3B12557   4.024   4.314   6.619 -0.1864  0.3243 -0.4911
  839POPE   C4B12558   3.859   4.052   7.086  0.1250 -0.1563  0.1303
  840POPE   NH312559   9.869  18.513   5.224  0.2005  0.2784 -0.2290
  840POPE   PO412560   9.939  18.926   5.210  0.1029  0.3036 -0.0949
  840POPE   GL112561  10.078  18.959   5.582 -0.0114 -0.4779 -0.4914
  840POPE   GL212562  10.164  18.711   5.658  0.0074  0.0425 -0.0067
  840POPE   C1A12563   9.920  19.031   5.948  0.4635  0.0757  0.3695
  840POPE   D2A12564   9.781  19.322   6.119 -0.1269 -0.3071 -0.3661
  840POPE   C3A12565   9.845  19.416   6.502  0.0448  0.1742 -0.2854
  840POPE   C4A12566   9.842  19.214   6.882 -0.0429 -0.3401  0.1758
  840POPE   C1B12567  10.422  18.711   6.004  0.0688  0.4058 -0.1635
  840POPE   C2B12568  10.601  18.941   6.238 -0.4448 -0.0247 -0.2168
  840POPE   C3B12569  10.889  19.084   6.578 -0.0895  0.0434  0.1710
  840POPE   C4B12570  11.116  18.695   6.797  0.1425 -0.3883  0.1047
  841POPE   NH312571   8.282   8.223   5.356  0.0027 -0.1408 -0.0623
  841POPE   PO412572   7.996   8.523   5.359  0.0239 -0.1353 -0.1682
  841POPE   GL112573   8.028   8.803   5.678  0.1402 -0.3113 -0.2554
  841POPE   GL212574   8.296   8.968   5.597 -0.0070 -0.2580 -0.0523
  841POPE   C1A12575   7.903   8.740   6.088 -0.1575 -0.2798 -0.1624
  841POPE   D2A12576   8.018   8.408   6.345 -0.1687 -0.3619  0.1329
  841POPE   C3A12577   8.362   8.099   6.299  0.3744  0.1556  0.1729
  841POPE   C4A12578   8.328   7.970   5.989 -0.2327  0.3303 -0.0231
  841POPE   C1B12579   8.310   9.149   6.017 -0.2061  0.3315 -0.2251
  841POPE   C2B12580   8.636   9.340   6.310 -0.1808 -0.1107 -0.0119
  841POPE   C3B12581   8.963   9.437   6.609 -0.2039  0.0068 -0.0252
  841POPE   C4B12582   9.231   9.617   6.865 -0.3015 -0.4868 -0.0694
  842POPE   NH312583  11.462  10.535   4.754  0.2112  0.0905  0.1115
  842POPE   PO412584  11.850  10.325   4.991  0.0901  0.0607  0.1449
  842POPE   GL112585  11.774  10.249   5.520 -0.0075  0.0605 -0.2158
  842POPE   GL212586  11.844  10.576   5.639  0.2426 -0.0137  0.2343
  842POPE   C1A12587  11.646  10.024   5.892 -0.0286  0.1381  0.1376
  842POPE   D2A12588  11.763   9.927   6.327  0.0230  0.3764  0.0563
  842POPE   C3A12589  12.135  10.126   6.603  0.2899 -0.0322 -0.0405
  842POPE   C4A12590  12.355  10.468   6.798  0.0886  0.2665  0.0823
  842POPE   C1B12591  11.591  10.524   5.983 -0.1571  0.1062 -0.1612
  842POPE   C2B12592  11.403  10.259   6.329 -0.1739  0.2359  0.2088
  842POPE   C3B12593  11.559  10.165   6.722 -0.1345  0.0905 -0.0457
  842POPE   C4B12594  11.464  10.097   7.153 -0.2938 -0.0401 -0.1019
  843POPE   NH312595  13.497   6.512   5.611  0.4421 -0.1448 -0.1989
  843POPE   PO412596  13.103   6.388   5.450 -0.0327 -0.1341 -0.0395
  843POPE   GL112597  13.037   6.223   5.769  0.4593 -0.1739 -0.2773
  843POPE   GL212598  13.056   6.535   5.959 -0.0992 -0.1890  0.0473
  843POPE   C1A12599  13.011   6.062   6.182  0.0974 -0.2524  0.1543
  843POPE   D2A12600  12.821   5.962   6.536  0.5228  0.0093 -0.2876
  843POPE   C3A12601  13.052   5.961   6.851 -0.3360 -0.1041 -0.0995
  843POPE   C4A12602  13.279   5.950   7.140 -0.0799  0.0416 -0.2831
  843POPE   C1B12603  12.828   6.489   6.416 -0.3190 -0.0335 -0.0697
  843POPE   C2B12604  12.787   6.766   6.694 -0.0366  0.0191 -0.0877
  843POPE   C3B12605  12.403   6.917   6.967 -0.2126  0.1237  0.1845
  843POPE   C4B12606  12.473   7.271   7.236 -0.0202 -0.0311 -0.0466
  844POPE   NH312607   0.438   0.009   5.323  0.1671 -0.0919 -0.0616
  844POPE   PO412608   0.629   0.416   5.326  0.1276 -0.1974  0.1003
  844POPE   GL112609   0.631   0.752   5.731 -0.0115 -0.3144 -0.0097
  844POPE   GL212610   0.308   1.104   5.645 -0.2207  0.0102  0.2306
  844POPE   C1A12611   0.450   0.842   6.169  0.2676 -0.2176  0.2038
  844POPE   D2A12612   0.309   0.876   6.620  0.0733  0.1490  0.1810
  844POPE   C3A12613   0.606   0.618   6.872  0.3117  0.3559  0.4452
  844POPE   C4A12614   1.051   0.854   6.966 -0.0889  0.0523 -0.2860
  844POPE   C1B12615   0.441   1.462   5.994  0.1356 -0.2999 -0.1644
  844POPE   C2B12616   0.821   1.726   6.181 -0.1697 -0.0284  0.2060
  844POPE   C3B12617   1.047   1.881   6.573 -0.1057  0.1799  0.3003
  844POPE   C4B12618   1.080   2.338   6.727  0.3308  0.0137 -0.3727
  845POPE   NH312619  16.497   2.658   5.439  0.4109  0.1232 -0.1249
  845POPE   PO412620  16.923   2.685   5.359 -0.1294 -0.0294  0.1920
  845POPE   GL112621  16.822   2.640   5.859  0.1267 -0.0556  0.0389
  845POPE   GL212622  16.615   2.401   5.978 -0.1117  0.4514  0.0196
  845POPE   C1A12623  16.670   2.869   6.239 -0.0901  0.2944  0.0314
  845POPE   D2A12624  16.493   2.878   6.663  0.0677 -0.2052 -0.3174
  845POPE   C3A12625  16.777   2.857   7.098  0.1751  0.0495 -0.2958
  845POPE   C4A12626  17.224   2.779   7.180  0.0929 -0.0585  0.0465
  845POPE   C1B12627  16.863   2.172   6.204  0.0535  0.1470 -0.1672
  845POPE   C2B12628  17.095   2.137   6.710 -0.0420  0.0679  0.2312
  845POPE   C3B12629  17.290   2.280   6.861  0.3038  0.0819 -0.1356
  845POPE   C4B12630  17.486   2.680   6.784  0.1097  0.0023  0.0396
  846POPE   NH312631  18.890   5.792   5.681  0.0402  0.0058  0.0193
  846POPE   PO412632  18.622   6.053   5.501  0.0766  0.0689 -0.0270
  846POPE   GL112633  18.392   5.857   5.806  0.1173 -0.1583  0.1688
  846POPE   GL212634  18.535   6.044   6.030 -0.0404  0.0663  0.0200
  846POPE   C1A12635  18.434   5.603   6.222 -0.2578  0.1260  0.0511
  846POPE   D2A12636  18.795   5.400   6.264 -0.1350  0.1270  0.4398
  846POPE   C3A12637  19.051   5.156   6.533 -0.0157 -0.0711 -0.1402
  846POPE   C4A12638  19.072   4.906   6.895 -0.0884  0.2846  0.5103
  846POPE   C1B12639  18.779   6.381   6.378  0.0853 -0.1167  0.2759
  846POPE   C2B12640  18.692   6.760   6.520 -0.2518 -0.1018  0.3237
  846POPE   C3B12641  18.677   6.908   6.914 -0.1587 -0.3330  0.0313
  846POPE   C4B12642  18.872   7.113   7.260  0.2981  0.1864  0.2015
  847POPE   NH312643   0.120   6.482   5.507 -0.0762  0.4139  0.2022
  847POPE   PO412644  -0.032   6.851   5.887  0.0320 -0.0865  0.1375
  847POPE   GL112645  -0.182   6.978   6.235  0.1495  0.1500  0.0478
  847POPE   GL212646  -0.269   7.210   6.281 -0.0860  0.2263  0.0906
  847POPE   C1A12647  -0.116   6.790   6.736  0.2544 -0.0412 -0.0264
  847POPE   D2A12648   0.297   6.547   6.797 -0.0860  0.0341 -0.0141
  847POPE   C3A12649   0.131   6.149   7.030  0.2071 -0.1882  0.0501
  847POPE   C4A12650   0.070   5.756   7.214 -0.1036  0.4365 -0.1043
  847POPE   C1B12651  -0.370   7.275   6.758  0.0712 -0.1064  0.2976
  847POPE   C2B12652  -0.558   7.679   6.993 -0.1128  0.0049  0.3380
  847POPE   C3B12653  -0.682   8.054   7.121 -0.0534  0.0336  0.0792
  847POPE   C4B12654  -0.635   8.140   7.508 -0.1279 -0.1930  0.2198
  848POPE   NH312655   7.403   0.840   4.930 -0.0100  0.0193  0.0017
  848POPE   PO412656   7.126   0.518   5.004 -0.3184  0.0831 -0.1258
  848POPE   GL112657   7.330   0.364   5.229  0.0442  0.2237 -0.2408
  848POPE   GL212658   7.058   0.148   5.393  0.1118 -0.0269  0.1142
  848POPE   C1A12659   7.475   0.396   5.634  0.1253 -0.0916  0.0460
  848POPE   D2A12660   7.812   0.585   5.820  0.0088  0.1695 -0.2869
  848POPE   C3A12661   8.161   0.409   6.027 -0.0320 -0.2856 -0.2354
  848POPE   C4A12662   8.298   0.014   6.027  0.0870 -0.0485 -0.1567
  848POPE   C1B12663   7.002   0.399   5.752 -0.2407  0.0593  0.1176
  848POPE   C2B12664   7.194   0.278   6.137 -0.2371  0.0351  0.0428
  848POPE   C3B12665   7.670   0.552   6.273  0.1626  0.1912 -0.4019
  848POPE   C4B12666   7.922   0.373   6.451  0.1082 -0.0138 -0.0876
  849POPE   NH312667   9.007  10.140   4.898  0.1657 -0.1560 -0.0762
  849POPE   PO412668   8.824   9.680   5.139 -0.0419 -0.0227 -0.2535
  849POPE   GL112669   8.475   9.902   5.441 -0.3918  0.1037  0.1458
  849POPE   GL212670   8.191   9.738   5.562  0.2380 -0.2390  0.0677
  849POPE   C1A12671   8.583  10.089   5.847 -0.2592 -0.1593  0.0328
  849POPE   D2A12672   8.471  10.485   6.144 -0.0141 -0.0039 -0.1121
  849POPE   C3A12673   8.162  10.697   6.048 -0.4146  0.1441 -0.1978
  849POPE   C4A12674   7.902  10.813   5.733 -0.6036 -0.1816  0.0836
  849POPE   C1B12675   7.966   9.471   5.864  0.0671 -0.1435 -0.4643
  849POPE   C2B12676   7.892   9.284   6.258  0.0490 -0.0004 -0.0772
  849POPE   C3B12677   8.139   9.018   6.510 -0.2274 -0.0714  0.0294
  849POPE   C4B12678   8.077   8.946   7.015 -0.1005 -0.4892 -0.1006
  850POPE   NH312679  18.758   8.560   5.872 -0.0605 -0.0334 -0.0596
  850POPE   PO412680  18.732   9.054   5.997 -0.1589  0.0597  0.0060
  850POPE   GL112681  18.727   9.269   6.444  0.0780  0.1475 -0.1692
  850POPE   GL212682  19.076   9.125   6.530 -0.0306 -0.1097  0.7420
  850POPE   C1A12683  19.079   9.620   6.631 -0.1378  0.0914 -0.1085
  850POPE   D2A12684  19.297   9.927   6.880  0.1072  0.3113 -0.1225
  850POPE   C3A12685  19.334   9.809   7.386  0.1312  0.2322  0.0609
  850POPE   C4A12686  19.644   9.461   7.581 -0.2874 -0.1498 -0.2834
  850POPE   C1B12687  18.796   8.974   6.846  0.0489  0.0253 -0.3701
  850POPE   C2B12688  18.902   8.759   7.185  0.1408  0.0852  0.0062
  850POPE   C3B12689  19.135   8.462   7.059  0.1885 -0.1235 -0.3198
  850POPE   C4B12690  19.405   8.545   6.632 -0.0664  0.0241 -0.1251
  851POPE   NH312691  14.493  14.514   5.288 -0.1574  0.0551  0.1086
  851POPE   PO412692  14.883  14.588   5.120 -0.0968 -0.1057 -0.1883
  851POPE   GL112693  14.948  14.715   5.510  0.0184 -0.1533  0.0831
  851POPE   GL212694  14.812  14.955   5.602  0.1706 -0.0266 -0.0132
  851POPE   C1A12695  15.045  14.679   5.922  0.1517  0.0373  0.3144
  851POPE   D2A12696  15.372  14.726   6.238  0.1302  0.0656  0.2770
  851POPE   C3A12697  15.428  14.588   6.646 -0.1794  0.2297 -0.1622
  851POPE   C4A12698  15.251  14.363   7.096  0.2743  0.2192  0.3033
  851POPE   C1B12699  14.730  15.112   6.026  0.0392 -0.2609 -0.1646
  851POPE   C2B12700  14.824  14.942   6.278 -0.1570 -0.1015  0.1671
  851POPE   C3B12701  14.949  14.912   6.712 -0.2643 -0.2755 -0.0516
  851POPE   C4B12702  14.890  14.724   7.094  0.0927  0.1953 -0.1780
  852POPE   NH312703  12.206   3.297   5.187 -0.0873 -0.5956  0.4098
  852POPE   PO412704  11.844   3.508   5.145  0.0043 -0.1766 -0.1624
  852POPE   GL112705  11.724   3.653   5.468 -0.0645 -0.1434 -0.0399
  852POPE   GL212706  11.824   3.897   5.605  0.0438 -0.2666 -0.2330
  852POPE   C1A12707  11.631   3.407   5.890 -0.0495 -0.1150  0.0239
  852POPE   D2A12708  11.322   3.194   6.104 -0.2759 -0.0095  0.1817
  852POPE   C3A12709  10.931   3.056   6.046 -0.0513  0.3720 -0.1667
  852POPE   C4A12710  10.699   2.877   6.352  0.2274 -0.0469  0.0515
  852POPE   C1B12711  11.370   4.052   5.699 -0.4866  0.0693  0.2491
  852POPE   C2B12712  11.153   4.141   6.038 -0.4758  0.0871  0.1706
  852POPE   C3B12713  10.905   4.429   6.217 -0.1001  0.1114  0.1194
  852POPE   C4B12714  10.813   4.825   6.270 -0.1658 -0.2858 -0.1994
  853POPE   NH312715  12.218   6.215   5.156  0.0270 -0.1254 -0.1223
  853POPE   PO412716  11.969   6.002   5.424 -0.2243 -0.1899 -0.0267
  853POPE   GL112717  11.812   6.194   5.868  0.3514  0.2487  0.0217
  853POPE   GL212718  12.099   6.212   6.039 -0.1325 -0.1209  0.1683
  853POPE   C1A12719  11.647   6.306   6.224  0.0988  0.1568  0.2283
  853POPE   D2A12720  11.684   6.448   6.688  0.0205 -0.2986 -0.1802
  853POPE   C3A12721  11.390   6.606   6.990 -0.0522 -0.1094 -0.1055
  853POPE   C4A12722  11.152   6.472   7.206  0.1115  0.0318 -0.1387
  853POPE   C1B12723  12.085   6.163   6.365  0.0436  0.0046 -0.2400
  853POPE   C2B12724  12.063   6.102   6.743  0.0848 -0.1210  0.2057
  853POPE   C3B12725  11.606   6.126   7.026 -0.0073  0.1469 -0.2284
  853POPE   C4B12726  11.228   5.968   7.144 -0.0647 -0.0044  0.1343
  854POPE   NH312727  17.743  18.009   5.804  0.3435  0.1117 -0.1660
  854POPE   PO412728  18.132  17.653   5.680 -0.4022  0.1380  0.2328
  854POPE   GL112729  18.083  17.674   6.094  0.1212  0.1449 -0.2692
  854POPE   GL212730  18.047  17.909   6.153  0.1352  0.2224 -0.0745
  854POPE   C1A12731  17.820  17.459   6.335  0.1932 -0.2750  0.1796
  854POPE   D2A12732  18.076  17.464   6.723 -0.0385  0.0524  0.2309
  854POPE   C3A12733  18.034  17.297   6.904  0.3507 -0.1849  0.1948
  854POPE   C4A12734  18.113  16.837   7.206 -0.2249  0.1507  0.0092
  854POPE   C1B12735  17.794  17.994   6.505 -0.0887  0.0170  0.0389
  854POPE   C2B12736  17.466  17.951   6.878 -0.1281  0.0774  0.0937
  854POPE   C3B12737  17.099  17.692   6.953 -0.1839  0.1619  0.1436
  854POPE   C4B12738  16.716  17.604   7.071  0.0429  0.0345  0.1452
  855POPE   NH312739   5.704   5.823   5.274 -0.2851 -0.1999  0.3316
  855POPE   PO412740   6.252   5.982   5.372 -0.2077  0.2082 -0.2186
  855POPE   GL112741   6.329   5.898   5.730 -0.0857 -0.5368  0.1026
  855POPE   GL212742   6.398   6.099   5.892  0.1624 -0.0906  0.3015
  855POPE   C1A12743   6.280   5.638   6.085  0.1329 -0.2164 -0.1602
  855POPE   D2A12744   6.618   5.405   6.311  0.0897 -0.0259 -0.2840
  855POPE   C3A12745   6.657   5.015   6.344 -0.1293 -0.2191  0.1891
  855POPE   C4A12746   6.359   4.888   6.738  0.1194  0.0997 -0.4101
  855POPE   C1B12747   6.831   5.843   6.127  0.1074  0.2815  0.0571
  855POPE   C2B12748   6.995   5.777   6.512 -0.0452  0.1475  0.0021
  855POPE   C3B12749   6.827   5.681   6.962 -0.1940 -0.1665 -0.0338
  855POPE   C4B12750   6.531   5.747   7.368  0.0217 -0.0662 -0.2686
  856POPE   NH312751  14.400  11.878   5.474  0.0195 -0.0980  0.2470
  856POPE   PO412752  14.001  12.068   5.327  0.0055 -0.1158  0.3676
  856POPE   GL112753  13.791  12.308   5.674  0.1079 -0.0781  0.1576
  856POPE   GL212754  13.432  12.133   5.877  0.2046  0.0790 -0.2602
  856POPE   C1A12755  13.798  12.312   6.118 -0.1584  0.1646 -0.0892
  856POPE   D2A12756  13.886  12.262   6.572 -0.2527  0.4321  0.4208
  856POPE   C3A12757  13.489  12.396   6.755  0.4721 -0.2038  0.1293
  856POPE   C4A12758  13.069  12.257   6.761 -0.0187  0.0101  0.0455
  856POPE   C1B12759  13.481  12.034   6.385 -0.2685  0.0622 -0.0775
  856POPE   C2B12760  13.510  11.883   6.760  0.3511  0.1040 -0.0125
  856POPE   C3B12761  13.406  12.080   7.198  0.2883  0.1893  0.4388
  856POPE   C4B12762  13.216  12.138   7.515 -0.0145  0.0519 -0.0370
  857POPE   NH312763   3.792   1.782   4.787  0.1613 -0.0303 -0.1489
  857POPE   PO412764   3.343   1.893   4.836  0.1328  0.3032  0.1814
  857POPE   GL112765   3.469   1.994   5.175 -0.0322 -0.0289  0.0807
  857POPE   GL212766   3.072   2.095   5.424 -0.3563  0.0357  0.3903
  857POPE   C1A12767   3.572   2.061   5.672 -0.0666 -0.0349 -0.2110
  857POPE   D2A12768   3.362   2.015   6.063  0.2935 -0.1784  0.1797
  857POPE   C3A12769   3.562   2.174   6.384  0.1929 -0.3770 -0.3490
  857POPE   C4A12770   3.482   2.457   6.745  0.1418 -0.0515  0.0407
  857POPE   C1B12771   3.070   1.795   5.718  0.3186  0.4176  0.1526
  857POPE   C2B12772   2.779   1.534   6.064  0.1125 -0.1629 -0.2196
  857POPE   C3B12773   2.519   1.678   6.399 -0.0712 -0.3848  0.0952
  857POPE   C4B12774   2.338   2.132   6.310 -0.1487 -0.1018  0.0025
  858POPE   NH312775  18.613  17.385   4.954 -0.1126 -0.0388  0.0080
  858POPE   PO412776  18.888  17.574   5.330  0.6447 -0.0622 -0.4921
  858POPE   GL112777  18.777  17.714   5.757 -0.0264  0.0843 -0.0310
  858POPE   GL212778  19.034  17.612   5.979  0.4305  0.3110  0.3016
  858POPE   C1A12779  18.649  18.005   6.127  0.0584 -0.3016  0.1546
  858POPE   D2A12780  18.340  18.184   6.493  0.1584  0.2168 -0.0117
  858POPE   C3A12781  18.179  17.920   6.800  0.0495 -0.1433  0.2520
  858POPE   C4A12782  17.877  17.777   7.081 -0.0187  0.1834  0.0733
  858POPE   C1B12783  19.160  17.748   6.368 -0.3207 -0.1326 -0.0361
  858POPE   C2B12784  19.195  17.759   6.809  0.1659 -0.1522 -0.3067
  858POPE   C3B12785  18.873  17.526   7.095 -0.1102  0.0667 -0.0632
  858POPE   C4B12786  18.748  17.659   7.503  0.3931  0.0750  0.0209
  859YOPE   NH312787   1.827   3.864   4.953 -0.2523  0.2991 -0.1428
  859YOPE   PO412788   1.842   3.856   5.354  0.2019 -0.1036 -0.0337
  859YOPE   GL112789   1.914   3.695   5.692 -0.1714 -0.0191 -0.2036
  859YOPE   GL212790   2.257   3.967   5.638  0.0460  0.0608 -0.0368
  859YOPE   C1A12791   2.069   3.522   5.979 -0.1549 -0.0557  0.0390
  859YOPE   D2A12792   2.272   3.703   6.287  0.0125  0.0214  0.3942
  859YOPE   C3A12793   2.392   3.707   6.680  0.0054 -0.3413  0.0239
  859YOPE   C4A12794   2.356   3.576   7.019 -0.1805 -0.1975  0.0598
  859YOPE   C1B12795   2.639   4.007   6.100  0.1831 -0.1635 -0.0936
  859YOPE   C2B12796   2.777   3.695   6.355 -0.2904  0.0446  0.0097
  859YOPE   D3B12797   2.802   3.238   6.244  0.1688  0.2173 -0.2958
  859YOPE   C4B12798   2.877   2.921   5.973 -0.2684  0.0195 -0.0100
  860YOPE   NH312799  14.431   3.602   5.308  0.0045 -0.2012 -0.0923
  860YOPE   PO412800  14.591   3.648   5.656 -0.0643 -0.0192  0.1499
  860YOPE   GL112801  14.691   3.607   6.123  0.2564  0.0151  0.2142
  860YOPE   GL212802  14.835   3.320   6.272  0.0425  0.0479 -0.2498
  860YOPE   C1A12803  14.493   3.777   6.587 -0.0263  0.1865  0.2356
  860YOPE   D2A12804  14.545   3.876   7.002 -0.1579 -0.1907  0.1419
  860YOPE   C3A12805  14.347   3.851   7.284 -0.0005  0.0819  0.1899
  860YOPE   C4A12806  13.957   3.645   7.574 -0.0270 -0.0703  0.2223
  860YOPE   C1B12807  15.030   3.032   6.554  0.5122 -0.3899  0.3011
  860YOPE   C2B12808  15.179   3.127   6.907 -0.0743  0.0982  0.2428
  860YOPE   D3B12809  15.048   3.268   7.215 -0.1678 -0.0018 -0.0854
  860YOPE   C4B12810  15.082   3.767   7.142  0.1561  0.1594 -0.1353
  861YOPE   NH312811   0.674  12.662   5.861 -0.1130  0.1410 -0.2126
  861YOPE   PO412812   0.460  12.626   6.156  0.1730 -0.0913  0.2034
  861YOPE   GL112813   0.042  12.696   6.161 -0.2755  0.4221 -0.0652
  861YOPE   GL212814   0.214  12.885   6.469  0.0958  0.2413  0.0408
  861YOPE   C1A12815  -0.285  12.926   6.345  0.1433  0.1355  0.3393
  861YOPE   D2A12816  -0.300  13.269   6.643  0.1051  0.0436  0.0790
  861YOPE   C3A12817  -0.624  13.224   7.049  0.0352  0.0312 -0.0082
  861YOPE   C4A12818  -1.042  13.108   7.048 -0.0380 -0.0821 -0.1530
  861YOPE   C1B12819  -0.053  12.549   6.646 -0.0661 -0.0578  0.3673
  861YOPE   C2B12820  -0.045  12.281   7.054 -0.1604  0.1692  0.1626
  861YOPE   D3B12821  -0.068  12.503   7.432  0.4103  0.2500  0.2601
  861YOPE   C4B12822   0.100  12.694   7.849 -0.0493 -0.0477 -0.2073
  862YOPE   NH312823   7.737  16.861   4.796  0.0478 -0.1462 -0.2100
  862YOPE   PO412824   7.396  16.629   4.837  0.0036  0.3448  0.0546
  862YOPE   GL112825   7.292  16.664   5.301 -0.1300  0.2545 -0.0114
  862YOPE   GL212826   7.033  16.534   5.497  0.3459  0.3657 -0.1045
  862YOPE   C1A12827   7.619  16.778   5.610  0.1425 -0.4733 -0.0002
  862YOPE   D2A12828   8.097  16.984   5.803  0.3111  0.0437  0.0157
  862YOPE   C3A12829   8.075  16.998   6.376 -0.1166 -0.0241  0.1165
  862YOPE   C4A12830   7.669  16.994   6.622 -0.0739  0.0015 -0.0529
  862YOPE   C1B12831   7.169  16.691   5.909  0.1480 -0.0167 -0.2393
  862YOPE   C2B12832   7.504  16.747   6.183  0.2879  0.2877 -0.1310
  862YOPE   D3B12833   7.914  16.583   6.026  0.0192 -0.1232 -0.0576
  862YOPE   C4B12834   8.285  16.304   6.116 -0.3019  0.1633 -0.3008
  863YOPE   NH312835   0.310  15.914   5.587 -0.0879  0.1730 -0.1689
  863YOPE   PO412836   0.019  16.158   5.386 -0.0182  0.2817  0.2871
  863YOPE   GL112837   0.290  16.399   5.819  0.2062  0.3665  0.0051
  863YOPE   GL212838  -0.035  16.339   6.022 -0.0509 -0.0076 -0.1798
  863YOPE   C1A12839   0.449  16.583   6.169 -0.0250 -0.2944 -0.0548
  863YOPE   D2A12840   0.326  16.946   6.387 -0.0370  0.1461 -0.0421
  863YOPE   C3A12841   0.273  16.975   6.867 -0.1996  0.0035  0.0305
  863YOPE   C4A12842   0.050  16.727   7.154 -0.1764  0.1875 -0.2960
  863YOPE   C1B12843  -0.099  16.715   6.223  0.0248 -0.3405  0.2905
  863YOPE   C2B12844  -0.191  16.815   6.572 -0.0635 -0.0170  0.3471
  863YOPE   D3B12845  -0.427  16.992   6.893  0.3070  0.2186  0.0703
  863YOPE   C4B12846  -0.405  16.956   7.274 -0.0078  0.0478 -0.0840
  864YOPE   NH312847   6.193   1.054   5.139 -0.0955 -0.1033  0.0627
  864YOPE   PO412848   6.501   1.265   4.811  0.0542  0.1788  0.0320
  864YOPE   GL112849   6.648   1.429   5.200  0.1762  0.0833  0.0838
  864YOPE   GL212850   6.587   1.131   5.460  0.2634 -0.1759  0.1287
  864YOPE   C1A12851   6.588   1.608   5.589  0.0542  0.0420  0.1227
  864YOPE   D2A12852   6.434   1.805   5.895  0.0485  0.0584 -0.0908
  864YOPE   C3A12853   6.055   2.098   5.697  0.0588  0.0652 -0.0722
  864YOPE   C4A12854   5.572   2.210   5.624  0.1247  0.2502  0.1274
  864YOPE   C1B12855   6.427   1.301   5.931 -0.1375  0.0879 -0.3509
  864YOPE   C2B12856   6.172   1.316   6.218  0.1092 -0.0959 -0.1550
  864YOPE   D3B12857   5.969   1.503   6.473  0.0845  0.1867 -0.1202
  864YOPE   C4B12858   5.839   1.639   6.882 -0.0559 -0.1229 -0.0635
  865YOPE   NH312859   9.208  13.003   4.809 -0.2768  0.1094 -0.2223
  865YOPE   PO412860   9.616  13.117   4.886 -0.1241  0.1300  0.1879
  865YOPE   GL112861   9.435  12.934   5.294  0.2541 -0.3091 -0.1630
  865YOPE   GL212862   9.622  12.720   5.258  0.3195  0.0037  0.1299
  865YOPE   C1A12863   9.349  13.083   5.655 -0.1004 -0.0702  0.0834
  865YOPE   D2A12864   9.378  13.355   5.919 -0.0878 -0.1913  0.4300
  865YOPE   C3A12865   9.558  13.279   6.326 -0.1184 -0.2341 -0.1294
  865YOPE   C4A12866   9.516  13.284   6.802 -0.2151 -0.1094  0.2421
  865YOPE   C1B12867   9.881  13.124   5.485  0.0943  0.0209  0.0554
  865YOPE   C2B12868   9.765  13.498   5.749  0.0710 -0.1809  0.0396
  865YOPE   D3B12869   9.772  13.705   6.130  0.1310 -0.3855  0.0267
  865YOPE   C4B12870   9.787  13.738   6.524  0.0384  0.0278  0.2980
  866YOPE   NH312871  18.722  12.086   5.863  0.1606  0.4222 -0.2415
  866YOPE   PO412872  18.736  12.439   5.461  0.0631  0.0482  0.0544
  866YOPE   GL112873  18.693  12.727   5.861  0.0848  0.2014  0.4115
  866YOPE   GL212874  18.525  12.522   6.026 -0.2614  0.0550  0.0663
  866YOPE   C1A12875  18.539  12.896   6.319  0.3120  0.0588  0.1690
  866YOPE   D2A12876  18.252  12.919   6.584 -0.0457  0.2370 -0.1002
  866YOPE   C3A12877  17.947  12.728   6.761  0.0962 -0.1676  0.0808
  866YOPE   C4A12878  17.556  12.734   6.915 -0.1709 -0.2150 -0.1631
  866YOPE   C1B12879  18.345  12.425   6.412  0.2235  0.1417 -0.0126
  866YOPE   C2B12880  18.233  12.322   6.840 -0.1588 -0.4733 -0.3337
  866YOPE   D3B12881  17.885  12.400   7.183  0.1741  0.1400  0.0023
  866YOPE   C4B12882  17.850  12.291   7.656  0.2609  0.1947 -0.4472
  867YOPE   NH312883  16.935  18.214   5.508  0.0264  0.0388 -0.1927
  867YOPE   PO412884  17.175  17.834   5.737  0.2070 -0.3382 -0.1360
  867YOPE   GL112885  17.328  18.182   6.081 -0.0226 -0.0799  0.1823
  867YOPE   GL212886  17.375  17.969   6.236  0.0632 -0.1053 -0.2577
  867YOPE   C1A12887  17.285  18.445   6.416  0.1645  0.1160 -0.1625
  867YOPE   D2A12888  17.158  18.550   6.836  0.4894 -0.0403  0.2696
  867YOPE   C3A12889  17.273  18.361   7.154  0.0548 -0.4087  0.1900
  867YOPE   C4A12890  17.267  18.168   7.540 -0.1288 -0.1145 -0.3134
  867YOPE   C1B12891  16.958  17.962   6.432  0.0212  0.0446 -0.0480
  867YOPE   C2B12892  16.857  18.088   6.867 -0.0302  0.1374  0.1116
  867YOPE   D3B12893  16.472  18.050   7.179  0.0622  0.1044 -0.1753
  867YOPE   C4B12894  16.034  18.171   7.160  0.1945  0.0198  0.0894
  868YOPE   NH312895   1.107  17.976   5.508 -0.0957 -0.3586 -0.0354
  868YOPE   PO412896   0.889  17.652   5.417  0.1884  0.0067  0.0336
  868YOPE   GL112897   1.026  17.589   5.762 -0.0894 -0.0901 -0.0444
  868YOPE   GL212898   0.839  17.857   5.924 -0.2386 -0.1628  0.2006
  868YOPE   C1A12899   1.190  17.245   6.062  0.1040  0.1950 -0.3639
  868YOPE   D2A12900   1.601  17.148   6.074  0.4645  0.1204 -0.1387
  868YOPE   C3A12901   1.760  17.268   6.467  0.2393 -0.1334 -0.0272
  868YOPE   C4A12902   2.051  17.391   6.855 -0.2419  0.0798 -0.1079
  868YOPE   C1B12903   0.695  17.570   6.177 -0.2390 -0.1424  0.0973
  868YOPE   C2B12904   1.020  17.499   6.523 -0.0830 -0.0596  0.1099
  868YOPE   D3B12905   1.284  17.255   6.716  0.1010  0.1449  0.0477
  868YOPE   C4B12906   1.617  16.963   6.997  0.2536 -0.3518 -0.0751
  869YOPE   NH312907  16.053   8.461   5.749  0.0092  0.3147 -0.0236
  869YOPE   PO412908  16.305   8.730   5.585 -0.0479  0.0630  0.0832
  869YOPE   GL112909  16.400   8.732   6.048  0.0221  0.1638 -0.0922
  869YOPE   GL212910  16.588   9.048   6.162 -0.1290  0.0443  0.1119
  869YOPE   C1A12911  16.662   8.602   6.414  0.0019  0.0444  0.1376
  869YOPE   D2A12912  16.976   8.427   6.759  0.3521 -0.1704  0.2556
  869YOPE   C3A12913  17.276   8.324   6.778  0.1848 -0.0308  0.2216
  869YOPE   C4A12914  17.659   8.294   6.797 -0.2775  0.0985 -0.2415
  869YOPE   C1B12915  16.299   9.014   6.430 -0.0324  0.0849 -0.0405
  869YOPE   C2B12916  16.259   9.418   6.683 -0.1063  0.1886  0.2093
  869YOPE   D3B12917  16.118   9.687   6.947 -0.2151  0.1357 -0.0862
  869YOPE   C4B12918  15.771   9.886   6.925  0.3540  0.0483  0.2573
  870YOPE   NH312919   3.811  14.087   5.096  0.2281 -0.0348 -0.1721
  870YOPE   PO412920   3.357  14.146   5.081 -0.0897 -0.1450  0.1343
  870YOPE   GL112921   3.554  14.236   5.522 -0.0925  0.0293  0.0449
  870YOPE   GL212922   3.734  13.913   5.576  0.0690 -0.0648  0.2316
  870YOPE   C1A12923   3.769  14.302   5.888  0.0114 -0.2008 -0.0487
  870YOPE   D2A12924   3.634  14.634   6.258  0.1450 -0.2821  0.0505
  870YOPE   C3A12925   3.374  14.511   6.522  0.2678 -0.0806 -0.0720
  870YOPE   C4A12926   3.245  14.075   6.546 -0.0584 -0.1533 -0.5826
  870YOPE   C1B12927   3.634  13.852   5.979 -0.2054  0.0990  0.0161
  870YOPE   C2B12928   3.542  13.677   6.391  0.1810  0.0898 -0.2515
  870YOPE   D3B12929   3.108  13.420   6.445 -0.1105  0.0899 -0.1042
  870YOPE   C4B12930   3.093  12.938   6.533 -0.0811  0.1369 -0.1042
  871YOPE   NH312931  12.705   2.036   5.527 -0.1562  0.1046 -0.3036
  871YOPE   PO412932  13.181   2.176   5.557  0.0285  0.1852  0.1131
  871YOPE   GL112933  13.015   2.134   5.888 -0.0871  0.1207  0.0249
  871YOPE   GL212934  12.808   1.852   6.008  0.0043 -0.1219 -0.2551
  871YOPE   C1A12935  12.856   2.310   6.290  0.2754  0.1563  0.0342
  871YOPE   D2A12936  12.425   2.271   6.462 -0.1565  0.0881 -0.0434
  871YOPE   C3A12937  12.188   2.262   6.760 -0.0643 -0.1542 -0.1462
  871YOPE   C4A12938  11.858   2.015   6.891  0.0571  0.0459  0.1811
  871YOPE   C1B12939  12.894   1.802   6.473 -0.0022  0.1002 -0.0091
  871YOPE   C2B12940  12.834   2.105   6.780 -0.1377 -0.0620 -0.2169
  871YOPE   D3B12941  12.643   2.395   6.976  0.1686 -0.2046  0.0575
  871YOPE   C4B12942  12.264   2.709   6.938 -0.0410 -0.1163 -0.0890
  872YOPE   NH312943   8.245   6.518   5.394  0.1543 -0.3118  0.0416
  872YOPE   PO412944   8.397   6.861   5.275 -0.0739  0.0690 -0.0694
  872YOPE   GL112945   8.487   6.902   5.772  0.3122  0.3324 -0.1065
  872YOPE   GL212946   8.709   6.551   5.771  0.1394 -0.4683 -0.0210
  872YOPE   C1A12947   8.609   7.299   6.143 -0.1199  0.3238  0.1200
  872YOPE   D2A12948   8.329   7.562   6.367 -0.2840 -0.1642  0.1248
  872YOPE   C3A12949   8.174   7.823   6.693 -0.4956 -0.3381 -0.2426
  872YOPE   C4A12950   7.879   7.783   7.058 -0.1400  0.1002 -0.1127
  872YOPE   C1B12951   8.907   6.916   5.987  0.2323  0.3408 -0.1811
  872YOPE   C2B12952   9.187   7.244   6.066 -0.1076 -0.1628  0.0971
  872YOPE   D3B12953   9.435   7.542   6.191 -0.0112  0.0614  0.0782
  872YOPE   C4B12954   9.492   7.673   6.608  0.1683  0.2475  0.2016
  873YOPE   NH312955   0.929   6.159   5.515 -0.2876  0.6061  0.0818
  873YOPE   PO412956   1.112   5.810   5.662  0.1586 -0.2855 -0.0864
  873YOPE   GL112957   1.278   5.628   6.004  0.2445  0.3243  0.1422
  873YOPE   GL212958   1.170   5.691   6.330  0.2559 -0.0062  0.1597
  873YOPE   C1A12959   1.196   5.189   6.252  0.2027 -0.1083 -0.0510
  873YOPE   D2A12960   0.959   4.923   6.471 -0.0603  0.0503  0.0145
  873YOPE   C3A12961   0.627   4.840   6.784 -0.0378 -0.1418  0.0832
  873YOPE   C4A12962   0.200   4.652   6.959  0.0765 -0.0538  0.2552
  873YOPE   C1B12963   1.395   5.538   6.634 -0.0094 -0.0502 -0.0867
  873YOPE   C2B12964   1.848   5.441   6.721  0.1419 -0.2626  0.3208
  873YOPE   D3B12965   2.116   5.148   6.620 -0.1089  0.1121 -0.1971
  873YOPE   C4B12966   2.302   4.989   6.957  0.2385 -0.0408 -0.1045
  874YOPE   NH312967  18.283  15.171   5.196 -0.0697 -0.2394 -0.1222
  874YOPE   PO412968  18.306  14.730   5.124  0.1430  0.0910  0.0070
  874YOPE   GL112969  18.585  14.749   5.414 -0.2257  0.1817  0.0826
  874YOPE   GL212970  18.712  14.518   5.448  0.0576 -0.1692  0.1579
  874YOPE   C1A12971  18.751  14.844   5.841 -0.0208 -0.1896 -0.1579
  874YOPE   D2A12972  18.652  15.094   6.170 -0.0987 -0.1076  0.2683
  874YOPE   C3A12973  18.649  15.067   6.622  0.0886  0.0763 -0.0519
  874YOPE   C4A12974  18.714  15.088   7.097 -0.2210 -0.3331  0.3699
  874YOPE   C1B12975  18.515  14.318   5.802  0.0636  0.0352 -0.2161
  874YOPE   C2B12976  18.686  14.200   6.222 -0.1428 -0.1571  0.0661
  874YOPE   D3B12977  18.563  14.183   6.587  0.1169 -0.1064 -0.4231
  874YOPE   C4B12978  18.404  14.038   6.956  0.1327 -0.1084 -0.2190
  875YOPE   NH312979   2.385   9.322   5.624 -0.0630 -0.1086 -0.0924
  875YOPE   PO412980   2.435   9.651   5.860  0.1325  0.1064 -0.0140
  875YOPE   GL112981   2.465   9.359   6.182  0.1006 -0.0854 -0.0510
  875YOPE   GL212982   2.746   9.197   6.167  0.1646  0.0899  0.0192
  875YOPE   C1A12983   2.585   9.387   6.626 -0.3807  0.2702 -0.3175
  875YOPE   D2A12984   2.752   9.275   7.000 -0.0584  0.0276 -0.2629
  875YOPE   C3A12985   2.870   8.849   7.108  0.1129 -0.2027 -0.0368
  875YOPE   C4A12986   3.093   8.492   7.344  0.0152  0.2402  0.1413
  875YOPE   C1B12987   3.024   8.881   6.441 -0.3959 -0.1712 -0.0225
  875YOPE   C2B12988   3.395   9.032   6.684 -0.1872 -0.2001 -0.0301
  875YOPE   D3B12989   3.679   9.035   6.886 -0.1521  0.0849  0.0085
  875YOPE   C4B12990   4.106   9.054   6.818 -0.0817 -0.0911 -0.0211
  876YOPE   NH312991   5.624  12.949   5.372 -0.2490  0.1849 -0.1961
  876YOPE   PO412992   5.839  13.291   5.333  0.1481 -0.1490 -0.2360
  876YOPE   GL112993   5.713  13.362   5.630 -0.0859  0.0178 -0.0679
  876YOPE   GL212994   5.449  13.298   5.679  0.0757  0.2527 -0.2250
  876YOPE   C1A12995   5.627  13.639   6.038  0.1210 -0.0439  0.0706
  876YOPE   D2A12996   5.802  13.764   6.411  0.2111 -0.1371 -0.1024
  876YOPE   C3A12997   5.742  13.883   6.701  0.0682 -0.1031  0.0841
  876YOPE   C4A12998   5.431  13.964   6.895 -0.2465 -0.0730  0.4805
  876YOPE   C1B12999   5.215  13.345   5.971 -0.3555 -0.2515 -0.1722
  876YOPE   C2B13000   5.161  13.163   6.294 -0.1108  0.5110  0.2163
  876YOPE   D3B13001   4.951  13.189   6.626 -0.2067 -0.2088  0.0782
  876YOPE   C4B13002   4.795  13.021   6.896 -0.1237 -0.1499 -0.2824
  877YOPE   NH313003  13.518   3.374   5.468 -0.1789 -0.0012 -0.0072
  877YOPE   PO413004  13.837   3.513   5.539  0.1193  0.1286 -0.1580
  877YOPE   GL113005  13.695   3.546   5.891 -0.4479  0.0118 -0.2986
  877YOPE   GL213006  13.815   3.334   6.117 -0.2076 -0.3382 -0.0270
  877YOPE   C1A13007  13.667   3.733   6.362  0.0564  0.2990 -0.0572
  877YOPE   D2A13008  14.009   3.714   6.512 -0.4131  0.2486 -0.0891
  877YOPE   C3A13009  14.146   3.474   6.816  0.1615 -0.2176 -0.3277
  877YOPE   C4A13010  14.229   3.339   7.186  0.2396  0.0243  0.2051
  877YOPE   C1B13011  13.687   3.268   6.559  0.1689 -0.2258  0.3149
  877YOPE   C2B13012  13.631   3.547   6.841  0.2577 -0.2995  0.1925
  877YOPE   D3B13013  13.851   3.729   7.086  0.1572  0.2029  0.3560
  877YOPE   C4B13014  13.730   4.184   7.214  0.0775 -0.0927 -0.3467
  878YOPE   NH313015  11.699   9.886   5.202  0.1919 -0.2112 -0.1419
  878YOPE   PO413016  12.153   9.785   5.038 -0.0132  0.1480 -0.2598
  878YOPE   GL113017  12.201   9.830   5.483 -0.0366 -0.0738  0.0120
  878YOPE   GL213018  11.979   9.537   5.488  0.1779 -0.4242 -0.1715
  878YOPE   C1A13019  12.439  10.124   5.773 -0.2464  0.2399  0.1113
  878YOPE   D2A13020  12.811  10.329   5.918  0.1369  0.2891  0.2370
  878YOPE   C3A13021  12.975  10.091   6.333  0.0348 -0.0982  0.0272
  878YOPE   C4A13022  13.115   9.893   6.572  0.2676  0.1316 -0.3490
  878YOPE   C1B13023  12.343   9.355   5.590 -0.1198  0.1810  0.0404
  878YOPE   C2B13024  12.633   9.260   5.945  0.3927  0.2746 -0.1215
  878YOPE   D3B13025  12.490   9.151   6.368 -0.4968  0.2529  0.3214
  878YOPE   C4B13026  12.440   9.242   6.803 -0.3184  0.1395  0.2253
  879YOPE   NH313027  13.731  14.951   5.480  0.2619 -0.0030 -0.0817
  879YOPE   PO413028  14.086  14.652   5.456  0.1077 -0.0737 -0.3722
  879YOPE   GL113029  14.474  14.585   5.767 -0.1322  0.0038  0.3203
  879YOPE   GL213030  14.317  14.807   5.889 -0.0345 -0.0503  0.3737
  879YOPE   C1A13031  14.650  14.505   6.173  0.0368 -0.2107  0.1625
  879YOPE   D2A13032  14.575  14.600   6.568 -0.2201 -0.2284  0.0636
  879YOPE   C3A13033  14.823  14.179   6.860  0.2976 -0.2443 -0.0175
  879YOPE   C4A13034  14.830  13.699   6.877 -0.1287 -0.0141 -0.0690
  879YOPE   C1B13035  14.208  14.892   6.359  0.1052  0.1877  0.1900
  879YOPE   C2B13036  14.168  14.672   6.835  0.1751 -0.0762  0.2697
  879YOPE   D3B13037  14.400  14.537   7.126 -0.1531  0.0504 -0.2682
  879YOPE   C4B13038  14.713  14.239   7.302 -0.1404 -0.0002  0.0628
  880YOPE   NH313039   8.215   8.993   5.102 -0.0203  0.2673 -0.0147
  880YOPE   PO413040   8.515   8.634   5.102 -0.2896  0.1292 -0.2926
  880YOPE   GL113041   8.662   8.594   5.527  0.4246  0.3171  0.0277
  880YOPE   GL213042   8.377   8.418   5.780 -0.2739  0.1396  0.0509
  880YOPE   C1A13043   8.991   8.585   5.869 -0.0465 -0.1370  0.1588
  880YOPE   D2A13044   9.217   8.606   6.049  0.3165 -0.1246 -0.3035
  880YOPE   C3A13045   9.368   8.791   6.435 -0.1848  0.1494  0.2273
  880YOPE   C4A13046   9.476   8.946   6.783 -0.0782  0.0922 -0.1604
  880YOPE   C1B13047   8.391   8.669   6.028 -0.1813  0.1130 -0.0099
  880YOPE   C2B13048   8.427   8.578   6.554 -0.0745  0.0978  0.1098
  880YOPE   D3B13049   8.363   8.585   6.913 -0.3468  0.1125 -0.2328
  880YOPE   C4B13050   8.371   8.620   7.264  0.2320 -0.2810 -0.1690
  881YOPE   NH313051   4.616   6.810   5.351  0.1889 -0.1068 -0.0724
  881YOPE   PO413052   4.582   6.375   5.599 -0.2098  0.1510  0.0748
  881YOPE   GL113053   4.671   6.235   6.018  0.2394 -0.2366  0.5105
  881YOPE   GL213054   4.548   5.923   5.931 -0.1261  0.2829  0.0354
  881YOPE   C1A13055   4.624   6.172   6.432 -0.0738  0.4798 -0.0565
  881YOPE   D2A13056   4.584   5.794   6.647 -0.4298  0.1980  0.2531
  881YOPE   C3A13057   4.734   5.664   7.037  0.1227  0.2075  0.2213
  881YOPE   C4A13058   4.601   5.617   7.497  0.0538  0.2412 -0.0523
  881YOPE   C1B13059   4.904   5.713   6.220 -0.0812  0.1294 -0.1769
  881YOPE   C2B13060   5.122   5.718   6.616  0.2533 -0.1592 -0.0182
  881YOPE   D3B13061   5.334   5.566   7.129 -0.0604 -0.0429 -0.3078
  881YOPE   C4B13062   5.184   5.455   7.586 -0.1973  0.0438 -0.3471
  882YOPE   NH313063  15.506   1.910   5.869  0.2124 -0.0920  0.4231
  882YOPE   PO413064  15.396   2.485   5.935  0.0788  0.0528  0.1584
  882YOPE   GL113065  15.608   2.332   6.186 -0.0176  0.0505 -0.1630
  882YOPE   GL213066  15.393   2.546   6.475 -0.0301 -0.0760 -0.1525
  882YOPE   C1A13067  15.743   2.202   6.589  0.0952  0.0064 -0.2295
  882YOPE   D2A13068  15.902   2.436   7.014  0.2652 -0.0419  0.3942
  882YOPE   C3A13069  16.313   2.564   7.025 -0.0617  0.1546  0.1093
  882YOPE   C4A13070  16.762   2.305   6.983 -0.1191  0.0951  0.2698
  882YOPE   C1B13071  15.451   2.513   6.884 -0.1800  0.1386  0.0532
  882YOPE   C2B13072  15.253   2.533   7.252 -0.1239  0.2216 -0.0870
  882YOPE   D3B13073  14.943   2.746   7.395  0.2804 -0.2164 -0.1482
  882YOPE   C4B13074  14.927   3.044   7.791  0.0447  0.4424  0.1183
  883YOPE   NH313075   6.715  13.658   5.027  0.0089 -0.0597 -0.2360
  883YOPE   PO413076   6.329  13.480   5.153 -0.2694 -0.3010 -0.1164
  883YOPE   GL113077   6.488  13.705   5.538  0.2103  0.1346  0.0290
  883YOPE   GL213078   6.301  13.929   5.663  0.1724 -0.0365  0.2422
  883YOPE   C1A13079   6.917  13.907   5.639  0.3679  0.0853  0.1729
  883YOPE   D2A13080   7.287  13.874   5.918 -0.2313  0.0889 -0.1994
  883YOPE   C3A13081   7.258  14.027   6.414 -0.0821 -0.1279  0.3609
  883YOPE   C4A13082   7.692  13.933   6.605 -0.1413  0.3693  0.0223
  883YOPE   C1B13083   6.432  14.248   5.966  0.3362 -0.1121  0.2895
  883YOPE   C2B13084   6.412  14.495   6.320 -0.3131 -0.0051 -0.3537
  883YOPE   D3B13085   6.379  14.360   6.743  0.1132  0.2654  0.1976
  883YOPE   C4B13086   6.624  14.266   7.047 -0.0707  0.0687  0.0673
  884YOPE   NH313087   6.181  11.462   5.103 -0.3962  0.0689  0.1866
  884YOPE   PO413088   6.597  11.203   5.024 -0.3182 -0.1217  0.0712
  884YOPE   GL113089   6.932  11.388   5.385 -0.2664  0.2666  0.0007
  884YOPE   GL213090   7.043  11.787   5.431 -0.0043  0.2385  0.3723
  884YOPE   C1A13091   6.815  11.357   5.771 -0.2365  0.3156  0.0460
  884YOPE   D2A13092   6.509  11.220   5.930 -0.1149  0.1943  0.3873
  884YOPE   C3A13093   6.378  11.402   6.326  0.2120 -0.0797 -0.2344
  884YOPE   C4A13094   6.446  11.717   6.466  0.0639  0.3404  0.1621
  884YOPE   C1B13095   7.072  11.829   5.807  0.0642  0.2712  0.0710
  884YOPE   C2B13096   7.313  11.796   6.183  0.0962  0.2295  0.1342
  884YOPE   D3B13097   7.774  11.806   6.362 -0.3268 -0.1233  0.0317
  884YOPE   C4B13098   8.096  12.136   6.464  0.0086  0.1123 -0.1107
  885YOPE   NH313099  10.369   9.887   5.179  0.0264  0.0152 -0.1801
  885YOPE   PO413100  10.565  10.269   5.163 -0.2670 -0.0933  0.1016
  885YOPE   GL113101  10.184  10.340   5.459 -0.1536 -0.3757  0.1693
  885YOPE   GL213102  10.117  10.658   5.488 -0.1725  0.0453 -0.0168
  885YOPE   C1A13103  10.111  10.403   5.901  0.2891 -0.0533  0.1626
  885YOPE   D2A13104  10.043  10.892   5.937 -0.2501  0.4552  0.1878
  885YOPE   C3A13105  10.186  11.220   6.137 -0.0540  0.2794 -0.3808
  885YOPE   C4A13106  10.539  11.347   6.322 -0.0311 -0.1795 -0.0204
  885YOPE   C1B13107   9.744  10.517   5.501 -0.1209 -0.0020  0.2466
  885YOPE   C2B13108   9.410  10.575   5.788 -0.0446  0.2282  0.0841
  885YOPE   D3B13109   9.447  10.531   6.209  0.0738  0.2846 -0.0730
  885YOPE   C4B13110   9.491  10.306   6.631 -0.2140  0.1099  0.1193
  886YOPE   NH313111  17.445  16.442   5.705  0.0094  0.1058  0.0117
  886YOPE   PO413112  17.061  16.517   5.499 -0.0709 -0.4230  0.1452
  886YOPE   GL113113  16.964  16.393   5.919  0.0579 -0.0101  0.0246
  886YOPE   GL213114  17.011  16.053   5.909 -0.0544  0.1992  0.0749
  886YOPE   C1A13115  16.746  16.624   6.285  0.1483 -0.2897 -0.1337
  886YOPE   D2A13116  16.458  16.870   6.554  0.1921  0.0763  0.1201
  886YOPE   C3A13117  16.290  16.846   6.968 -0.0678 -0.1246 -0.4718
  886YOPE   C4A13118  16.041  16.482   7.270 -0.7328  0.2641 -0.0286
  886YOPE   C1B13119  16.979  16.057   6.371  0.1904 -0.2276 -0.1702
  886YOPE   C2B13120  16.776  16.014   6.807  0.0976  0.0452 -0.1098
  886YOPE   D3B13121  16.875  15.704   7.039 -0.0343  0.0231 -0.0736
  886YOPE   C4B13122  17.226  15.647   7.200 -0.2098  0.2157  0.0556
  887YOPE   NH313123  14.644  18.804   5.100  0.2763 -0.1396  0.1445
  887YOPE   PO413124  14.252  19.012   5.283 -0.3997 -0.3093  0.1759
  887YOPE   GL113125  13.985  18.873   5.606 -0.2046  0.1464  0.0526
  887YOPE   GL213126  13.868  18.539   5.808  0.0375 -0.0078  0.0014
  887YOPE   C1A13127  13.791  19.058   5.962  0.3280  0.0766 -0.0002
  887YOPE   D2A13128  13.838  18.929   6.330  0.4101 -0.0308  0.2415
  887YOPE   C3A13129  13.953  18.537   6.384 -0.0649 -0.0021 -0.0367
  887YOPE   C4A13130  14.043  18.095   6.478  0.0832  0.2380  0.3744
  887YOPE   C1B13131  13.529  18.526   6.146 -0.1981  0.2681  0.0367
  887YOPE   C2B13132  13.551  18.321   6.553  0.3151 -0.0737 -0.1455
  887YOPE   D3B13133  13.714  18.095   6.854 -0.3176  0.2345 -0.2326
  887YOPE   C4B13134  14.115  17.852   6.902  0.0911 -0.1740 -0.2403
  888YOPE   NH313135  13.476  12.484   5.255  0.0265 -0.0532  0.0934
  888YOPE   PO413136  13.199  12.226   5.421  0.4474  0.0919 -0.3442
  888YOPE   GL113137  12.900  11.952   5.825 -0.0627  0.1417 -0.1181
  888YOPE   GL213138  12.759  11.589   5.864 -0.0308 -0.0567  0.3371
  888YOPE   C1A13139  12.970  11.944   6.259  0.1778 -0.1301 -0.0244
  888YOPE   D2A13140  13.053  11.743   6.582  0.0163  0.1015 -0.1038
  888YOPE   C3A13141  13.021  11.778   7.075 -0.1532  0.3638  0.1055
  888YOPE   C4A13142  12.992  11.750   7.439 -0.1012 -0.0082  0.1455
  888YOPE   C1B13143  12.539  11.253   5.915 -0.0384  0.0612 -0.4521
  888YOPE   C2B13144  12.375  10.966   6.196 -0.1634 -0.4478 -0.0455
  888YOPE   D3B13145  12.534  10.881   6.599 -0.3945 -0.1023 -0.3500
  888YOPE   C4B13146  12.896  10.621   6.823  0.0841  0.0540 -0.0353
  889YOPE   NH313147  10.532   6.036   5.489 -0.0350 -0.2894 -0.1739
  889YOPE   PO413148  10.046   6.224   5.497  0.1314 -0.2527  0.2487
  889YOPE   GL113149  10.018   5.994   5.793 -0.0545 -0.3788 -0.1229
  889YOPE   GL213150   9.960   6.227   6.008 -0.1289  0.1060 -0.1625
  889YOPE   C1A13151  10.163   5.817   6.126 -0.2262 -0.0815  0.0157
  889YOPE   D2A13152  10.370   6.039   6.511 -0.2246 -0.4521 -0.0973
  889YOPE   C3A13153  10.048   6.125   6.862 -0.3675 -0.3019  0.0163
  889YOPE   C4A13154  10.268   6.277   7.314  0.2805  0.1790  0.1855
  889YOPE   C1B13155   9.920   6.215   6.357 -0.0669 -0.2051  0.0023
  889YOPE   C2B13156   9.588   6.141   6.610  0.0662 -0.0239 -0.0895
  889YOPE   D3B13157   9.578   5.830   6.936  0.1132  0.3185  0.0779
  889YOPE   C4B13158   9.327   5.665   7.211  0.2076 -0.0245  0.2977
  890YOPE   NH313159   5.680   8.482   5.182  0.1259 -0.3206  0.2540
  890YOPE   PO413160   5.267   8.672   5.103 -0.5803 -0.2275  0.1439
  890YOPE   GL113161   5.325   8.755   5.435 -0.1867  0.2585 -0.2127
  890YOPE   GL213162   5.464   8.404   5.602  0.1724  0.1275  0.1232
  890YOPE   C1A13163   5.277   8.952   5.802  0.1818  0.0410  0.2374
  890YOPE   D2A13164   5.321   9.007   6.214  0.1090  0.1274 -0.0738
  890YOPE   C3A13165   5.379   8.891   6.623 -0.0970 -0.3185 -0.2993
  890YOPE   C4A13166   5.315   8.422   6.813  0.0528 -0.3133  0.0284
  890YOPE   C1B13167   5.659   8.165   5.974  0.1692 -0.0047  0.1285
  890YOPE   C2B13168   5.806   7.919   6.225 -0.2329  0.2167 -0.0650
  890YOPE   D3B13169   6.169   7.965   6.562  0.1576  0.1898 -0.2242
  890YOPE   C4B13170   6.556   8.160   6.745 -0.0022 -0.0659 -0.0380
  891YOPE   NH313171  13.002  14.126   5.178  0.3860 -0.0714 -0.4195
  891YOPE   PO413172  12.985  13.683   5.384  0.0901 -0.0114 -0.1738
  891YOPE   GL113173  13.216  13.852   5.680 -0.0933 -0.0848 -0.0150
  891YOPE   GL213174  13.531  13.828   5.710 -0.1273 -0.1055 -0.1441
  891YOPE   C1A13175  13.434  14.219   5.946 -0.0189 -0.2289 -0.2289
  891YOPE   D2A13176  13.513  14.301   6.333  0.1704  0.1651 -0.1850
  891YOPE   C3A13177  13.304  14.559   6.465 -0.1442  0.0011  0.2375
  891YOPE   C4A13178  13.172  14.877   6.798 -0.1121  0.3609  0.1319
  891YOPE   C1B13179  13.207  13.804   6.142 -0.2335  0.0002 -0.0272
  891YOPE   C2B13180  13.209  13.733   6.552 -0.0169  0.0761  0.0074
  891YOPE   D3B13181  13.236  13.920   6.954 -0.0272 -0.0754  0.2568
  891YOPE   C4B13182  13.044  13.863   7.361 -0.0933  0.0309 -0.0973
  892YOPE   NH313183   1.406   2.175   5.232 -0.0288 -0.0232 -0.1124
  892YOPE   PO413184   1.348   2.596   5.305  0.3650 -0.3165 -0.0409
  892YOPE   GL113185   1.349   2.925   5.644  0.0073  0.1985 -0.1283
  892YOPE   GL213186   1.644   2.992   5.760  0.2474  0.2162  0.1307
  892YOPE   C1A13187   1.217   3.096   5.991 -0.0752 -0.0946 -0.0371
  892YOPE   D2A13188   1.079   3.223   6.311 -0.0919  0.1508 -0.1948
  892YOPE   C3A13189   1.250   3.153   6.709  0.0176 -0.0232 -0.1615
  892YOPE   C4A13190   1.284   3.461   6.968  0.3607 -0.2641 -0.0295
  892YOPE   C1B13191   1.952   3.014   6.048 -0.2031 -0.2299 -0.0599
  892YOPE   C2B13192   2.273   3.211   6.328 -0.4094 -0.1188 -0.0027
  892YOPE   D3B13193   2.410   3.194   6.626 -0.2885 -0.3514  0.1821
  892YOPE   C4B13194   2.787   3.290   6.821 -0.1282 -0.0579 -0.0817
  893YOPE   NH313195   0.821   7.290   5.762 -0.3454  0.0714  0.2104
  893YOPE   PO413196   0.581   6.894   5.738 -0.0990  0.0966 -0.1340
  893YOPE   GL113197   0.392   7.050   6.091  0.0205 -0.0893  0.0935
  893YOPE   GL213198   0.374   6.704   6.144  0.1861  0.1221  0.2200
  893YOPE   C1A13199   0.222   7.020   6.479  0.1919  0.1008 -0.0870
  893YOPE   D2A13200   0.112   7.195   6.903  0.1790  0.1587  0.2123
  893YOPE   C3A13201   0.114   6.831   7.284 -0.3158 -0.2288  0.0211
  893YOPE   C4A13202   0.011   6.452   7.509 -0.2299 -0.2496 -0.3362
  893YOPE   C1B13203   0.062   6.401   6.365 -0.0284 -0.1768  0.1321
  893YOPE   C2B13204  -0.230   6.318   6.748  0.1567 -0.2530 -0.2865
  893YOPE   D3B13205  -0.396   6.054   7.134 -0.3415  0.0367  0.1789
  893YOPE   C4B13206  -0.616   6.130   7.473 -0.1544  0.3664 -0.4786
  894YOPE   NH313207  13.997   9.759   5.232  0.0496 -0.1198 -0.0453
  894YOPE   PO413208  14.266  10.156   5.050  0.1234  0.2285 -0.0949
  894YOPE   GL113209  14.122  10.201   5.481 -0.1731  0.0466 -0.3474
  894YOPE   GL213210  14.291  10.464   5.672 -0.0916 -0.3494 -0.1893
  894YOPE   C1A13211  14.026  10.050   5.892  0.2481 -0.1503 -0.1695
  894YOPE   D2A13212  14.050   9.833   6.363  0.0456 -0.0455  0.0691
  894YOPE   C3A13213  14.033  10.072   6.784 -0.2407 -0.0259 -0.0585
  894YOPE   C4A13214  14.165  10.217   7.141  0.1181  0.1311  0.0221
  894YOPE   C1B13215  14.492  10.193   6.008  0.1260 -0.0043  0.2062
  894YOPE   C2B13216  14.523   9.949   6.447  0.2284  0.1726 -0.1722
  894YOPE   D3B13217  14.881   9.705   6.415 -0.0527 -0.3239 -0.0378
  894YOPE   C4B13218  15.215   9.361   6.451  0.2309 -0.2561 -0.0042
  895YOPE   NH313219  16.786   4.244   5.070 -0.1791  0.1738  0.1962
  895YOPE   PO413220  16.976   3.966   5.290 -0.1475 -0.2833 -0.0377
  895YOPE   GL113221  17.083   3.919   5.721 -0.0244 -0.1761  0.2186
  895YOPE   GL213222  16.807   3.978   5.820 -0.0877 -0.0494  0.2318
  895YOPE   C1A13223  17.482   4.024   6.033 -0.3841  0.0006 -0.0220
  895YOPE   D2A13224  17.604   4.236   6.384  0.2038  0.1849  0.1364
  895YOPE   C3A13225  17.424   4.585   6.654 -0.2594  0.2343 -0.0620
  895YOPE   C4A13226  17.599   4.661   6.985  0.1735 -0.3759  0.0642
  895YOPE   C1B13227  16.932   3.824   6.167 -0.4056  0.1988 -0.1121
  895YOPE   C2B13228  17.138   4.001   6.483  0.0753  0.0096  0.0112
  895YOPE   D3B13229  17.059   4.297   6.870 -0.0618  0.2156 -0.1230
  895YOPE   C4B13230  17.147   4.676   7.084  0.0543 -0.1350 -0.3130
  896YOPE   NH313231   7.630   6.666   5.265 -0.1868  0.3862  0.1387
  896YOPE   PO413232   7.761   6.551   5.625 -0.0540  0.1257 -0.4281
  896YOPE   GL113233   8.026   6.704   5.864 -0.1854 -0.1431 -0.0107
  896YOPE   GL213234   7.931   6.569   6.114  0.0745 -0.0238 -0.3488
  896YOPE   C1A13235   8.408   6.629   6.203 -0.2705  0.1497  0.2599
  896YOPE   D2A13236   8.718   6.752   6.454  0.2587 -0.0671  0.1656
  896YOPE   C3A13237   8.838   7.110   6.520  0.3170  0.3966  0.1740
  896YOPE   C4A13238   9.188   7.250   6.601 -0.1391  0.0573  0.1749
  896YOPE   C1B13239   7.616   6.538   6.400 -0.1927 -0.2782 -0.0261
  896YOPE   C2B13240   7.522   6.637   6.805 -0.2319  0.0007  0.1001
  896YOPE   D3B13241   7.590   6.291   7.090  0.3594  0.0647 -0.2532
  896YOPE   C4B13242   7.754   5.952   6.982  0.3872 -0.0380  0.1314
  897YOPE   NH313243  13.985   5.914   5.770 -0.3022 -0.2322 -0.1228
  897YOPE   PO413244  13.632   6.072   5.768  0.1668 -0.0273 -0.1428
  897YOPE   GL113245  13.465   6.009   6.096 -0.3367 -0.1242  0.1310
  897YOPE   GL213246  13.374   5.741   6.000 -0.0848  0.1876 -0.2569
  897YOPE   C1A13247  13.420   5.937   6.462  0.0790  0.0264 -0.0993
  897YOPE   D2A13248  13.741   6.335   6.719  0.0371  0.1342  0.0318
  897YOPE   C3A13249  14.160   6.137   6.774  0.3479 -0.0028  0.0310
  897YOPE   C4A13250  14.443   6.084   6.564 -0.2692  0.1160  0.1292
  897YOPE   C1B13251  12.985   5.562   6.230 -0.3875 -0.1098  0.1826
  897YOPE   C2B13252  12.911   5.365   6.609  0.0222 -0.0483 -0.0221
  897YOPE   D3B13253  12.910   5.446   6.989 -0.0985 -0.2699 -0.2050
  897YOPE   C4B13254  13.180   5.581   7.421  0.0537 -0.0294  0.2725
  898YOPE   NH313255   9.503   2.034   5.239  0.0356  0.2525 -0.0963
  898YOPE   PO413256   9.541   2.433   5.063  0.0865 -0.0530  0.2457
  898YOPE   GL113257   9.843   2.521   5.386 -0.1174  0.3486  0.4004
  898YOPE   GL213258   9.879   2.254   5.433 -0.0637  0.0559 -0.3443
  898YOPE   C1A13259  10.245   2.689   5.671 -0.2751 -0.1822  0.3048
  898YOPE   D2A13260  10.577   3.067   5.711 -0.1312  0.2090 -0.3886
  898YOPE   C3A13261  10.449   3.326   6.034 -0.1848 -0.1472 -0.2144
  898YOPE   C4A13262  10.605   3.348   6.406  0.1270 -0.1928 -0.2251
  898YOPE   C1B13263   9.826   2.479   5.921 -0.3521  0.1902  0.0970
  898YOPE   C2B13264   9.556   2.415   6.282  0.0566  0.2458 -0.0695
  898YOPE   D3B13265   9.844   2.130   6.488 -0.0271 -0.0908  0.3221
  898YOPE   C4B13266  10.227   2.324   6.423  0.2658 -0.0867  0.2305
  899YOPE   NH313267  18.306  11.198   5.796 -0.0440 -0.0401 -0.2166
  899YOPE   PO413268  18.498  10.911   5.534 -0.0701 -0.2710 -0.1744
  899YOPE   GL113269  18.627  10.810   6.029  0.2771 -0.1193 -0.1986
  899YOPE   GL213270  18.800  11.109   6.162  0.0929  0.2428  0.2134
  899YOPE   C1A13271  18.417  10.967   6.429  0.0606  0.1291  0.0518
  899YOPE   D2A13272  18.069  10.824   6.632 -0.1999  0.1187 -0.2139
  899YOPE   C3A13273  17.692  11.002   6.537  0.1798  0.1344 -0.2880
  899YOPE   C4A13274  17.287  11.162   6.782 -0.3998  0.1285  0.2413
  899YOPE   C1B13275  18.953  11.286   6.481  0.2233  0.0693  0.0565
  899YOPE   C2B13276  19.020  11.298   6.916  0.1939  0.1546 -0.0841
  899YOPE   D3B13277  19.099  10.965   7.233 -0.2436 -0.0057  0.3071
  899YOPE   C4B13278  19.213  10.975   7.686 -0.1691 -0.1544  0.1008
  900YOPE   NH313279   8.317   6.107   5.048  0.1834  0.1882 -0.0560
  900YOPE   PO413280   8.444   5.634   5.178 -0.0348  0.0227 -0.0017
  900YOPE   GL113281   8.507   5.782   5.616  0.0714  0.0218  0.1664
  900YOPE   GL213282   8.620   6.112   5.676 -0.0324  0.0467 -0.0195
  900YOPE   C1A13283   8.330   5.699   6.071 -0.1852  0.0757  0.1336
  900YOPE   D2A13284   8.211   5.738   6.585 -0.1148  0.2331 -0.2184
  900YOPE   C3A13285   8.357   6.127   6.816  0.2855 -0.1722 -0.3504
  900YOPE   C4A13286   8.344   6.358   7.234 -0.2615  0.2118 -0.3485
  900YOPE   C1B13287   8.440   6.180   5.999  0.0366  0.1850 -0.1273
  900YOPE   C2B13288   8.572   6.184   6.395  0.1010  0.1922 -0.1464
  900YOPE   D3B13289   8.807   6.378   6.807  0.5173  0.0553 -0.0101
  900YOPE   C4B13290   8.744   6.762   6.974  0.1449  0.0685 -0.2575
  901YOPE   NH313291   6.536   9.414   5.078 -0.0168  0.0770 -0.0974
  901YOPE   PO413292   6.540   9.359   5.527 -0.0061  0.0299  0.1914
  901YOPE   GL113293   6.681   9.313   5.928  0.0086 -0.2790 -0.1124
  901YOPE   GL213294   6.492   9.194   6.054  0.0655 -0.0120  0.0336
  901YOPE   C1A13295   6.944   9.091   6.334  0.4552 -0.1319 -0.0731
  901YOPE   D2A13296   6.990   9.165   6.778  0.0189 -0.1489  0.0304
  901YOPE   C3A13297   6.938   8.828   7.150 -0.3345  0.0314 -0.0980
  901YOPE   C4A13298   6.860   8.409   7.054 -0.0663 -0.1090 -0.1417
  901YOPE   C1B13299   6.174   9.113   6.396  0.0965  0.0714  0.1580
  901YOPE   C2B13300   5.871   8.873   6.660 -0.2944 -0.2181 -0.2786
  901YOPE   D3B13301   5.753   8.666   6.962  0.0356  0.1293 -0.1417
  901YOPE   C4B13302   5.681   8.416   7.320 -0.1109 -0.1630 -0.1799
  902YOPE   NH313303  18.417   7.048   5.558  0.1583 -0.2726  0.3884
  902YOPE   PO413304  18.753   7.012   5.916 -0.0531 -0.2785  0.0766
  902YOPE   GL113305  18.451   7.214   6.148  0.0444 -0.2169 -0.0824
  902YOPE   GL213306  18.085   7.248   6.259  0.1927 -0.0576  0.4794
  902YOPE   C1A13307  18.487   7.426   6.484 -0.0756 -0.0861 -0.3805
  902YOPE   D2A13308  18.383   7.257   6.775 -0.0657 -0.1576 -0.2295
  902YOPE   C3A13309  18.371   7.538   7.147 -0.3213  0.1190 -0.0453
  902YOPE   C4A13310  18.372   7.465   7.569 -0.1124 -0.0230 -0.1380
  902YOPE   C1B13311  18.035   7.605   6.653  0.0046  0.2282 -0.2540
  902YOPE   C2B13312  18.087   7.932   6.947  0.0374  0.5283 -0.0901
  902YOPE   D3B13313  18.207   7.971   7.382 -0.1506 -0.2039  0.1012
  902YOPE   C4B13314  18.151   7.914   7.737  0.1022 -0.1431 -0.5836
  903YOPE   NH313315  16.781  12.701   5.813 -0.0025 -0.1093  0.1684
  903YOPE   PO413316  16.467  12.880   5.536  0.2895 -0.1693 -0.1709
  903YOPE   GL113317  16.617  13.175   5.876  0.0626 -0.2696  0.0176
  903YOPE   GL213318  16.881  13.150   5.984 -0.0528 -0.2816  0.0055
  903YOPE   C1A13319  16.480  13.154   6.356  0.3407 -0.1963 -0.1055
  903YOPE   D2A13320  16.260  13.343   6.610 -0.3683 -0.0283 -0.1303
  903YOPE   C3A13321  16.177  13.376   7.106 -0.0145 -0.1173 -0.0688
  903YOPE   C4A13322  16.197  13.228   7.487 -0.2997 -0.1669  0.3015
  903YOPE   C1B13323  17.130  13.062   6.344  0.1470 -0.0005 -0.0781
  903YOPE   C2B13324  17.606  12.987   6.468  0.1643 -0.1841 -0.3409
  903YOPE   D3B13325  17.764  13.251   6.803 -0.1666  0.1043 -0.0720
  903YOPE   C4B13326  17.586  13.229   7.309 -0.1389 -0.0032 -0.2249
  904YOPE   NH313327  10.208  16.744   4.949  0.1520  0.1260  0.1867
  904YOPE   PO413328  10.527  16.483   4.997  0.0063 -0.2112  0.0668
  904YOPE   GL113329  10.483  16.212   5.370 -0.2499  0.0501  0.2203
  904YOPE   GL213330  10.412  16.284   5.649 -0.0478 -0.1408 -0.1652
  904YOPE   C1A13331  10.586  15.831   5.659 -0.1186 -0.0591  0.2101
  904YOPE   D2A13332  10.551  15.636   6.080  0.0259 -0.0136 -0.4152
  904YOPE   C3A13333  10.850  15.353   6.318 -0.1120  0.1879  0.3643
  904YOPE   C4A13334  10.660  14.867   6.455  0.0737 -0.1006  0.1590
  904YOPE   C1B13335  10.726  16.233   5.976  0.1172  0.0113  0.3727
  904YOPE   C2B13336  10.711  16.320   6.375 -0.2621  0.2800 -0.1402
  904YOPE   D3B13337  10.441  16.602   6.673 -0.0259 -0.0140 -0.0615
  904YOPE   C4B13338  10.060  16.884   6.595  0.0291 -0.0310  0.2201
  905YOPE   NH313339   6.430   2.368   5.146  0.2035  0.1598 -0.0940
  905YOPE   PO413340   6.797   2.043   5.017 -0.0545  0.0516  0.0949
  905YOPE   GL113341   6.730   2.133   5.440 -0.1213 -0.5046 -0.0842
  905YOPE   GL213342   6.852   2.500   5.430  0.2761 -0.1015 -0.3767
  905YOPE   C1A13343   6.645   2.269   5.811  0.0588  0.0306  0.0567
  905YOPE   D2A13344   6.407   2.255   6.095  0.0799  0.1524 -0.1932
  905YOPE   C3A13345   6.527   2.335   6.466  0.4125  0.0318 -0.0499
  905YOPE   C4A13346   6.649   2.466   6.789 -0.0771 -0.2791  0.1912
  905YOPE   C1B13347   7.131   2.419   5.712 -0.2411 -0.0693 -0.1716
  905YOPE   C2B13348   7.335   2.512   5.943 -0.0130  0.0851 -0.0905
  905YOPE   D3B13349   7.279   2.861   6.196 -0.0562  0.0131 -0.1795
  905YOPE   C4B13350   7.057   3.193   6.017 -0.0527 -0.2309  0.0657
  906YOPE   NH313351   4.261  18.875   5.011  0.0336 -0.0650  0.1227
  906YOPE   PO413352   4.214  19.245   5.069  0.1953 -0.0294 -0.1353
  906YOPE   GL113353   4.004  19.234   5.456  0.0497 -0.0230 -0.3002
  906YOPE   GL213354   3.838  19.515   5.429 -0.1907  0.1098  0.2668
  906YOPE   C1A13355   3.841  19.017   5.787  0.1139 -0.3277  0.0830
  906YOPE   D2A13356   3.873  19.153   6.255  0.0434 -0.1664 -0.0217
  906YOPE   C3A13357   4.002  18.911   6.489  0.0825  0.1611  0.0975
  906YOPE   C4A13358   4.321  18.515   6.551 -0.1727  0.2360 -0.0370
  906YOPE   C1B13359   3.763  19.648   5.908  0.0505  0.3335 -0.0910
  906YOPE   C2B13360   3.537  19.761   6.253  0.0272  0.0463  0.1600
  906YOPE   D3B13361   3.548  19.830   6.702  0.1231  0.3365 -0.0490
  906YOPE   C4B13362   3.507  19.992   7.050  0.2457 -0.3473  0.2610
  907YOPE   NH313363  12.759  15.727   5.118 -0.0599 -0.2738  0.0894
  907YOPE   PO413364  13.020  15.357   5.174  0.0308  0.0183  0.3594
  907YOPE   GL113365  12.978  15.463   5.531  0.1386  0.1480 -0.0687
  907YOPE   GL213366  13.130  15.768   5.534 -0.1746  0.1147 -0.0493
  907YOPE   C1A13367  12.795  15.685   5.874  0.0633  0.0043  0.0890
  907YOPE   D2A13368  12.750  15.549   6.289  0.1812 -0.1150 -0.0810
  907YOPE   C3A13369  12.381  15.433   6.626 -0.2453  0.0102  0.0051
  907YOPE   C4A13370  12.104  15.048   6.602 -0.2222  0.1873  0.2553
  907YOPE   C1B13371  13.296  15.641   5.957  0.1770 -0.1990  0.2200
  907YOPE   C2B13372  13.267  15.455   6.253  0.2577 -0.2248  0.0648
  907YOPE   D3B13373  13.132  15.440   6.644 -0.1408  0.0083 -0.2105
  907YOPE   C4B13374  12.974  15.319   7.000  0.0753  0.1996  0.2669
  908YOPE   NH313375   5.243   5.742   5.178  0.2441  0.3359 -0.0371
  908YOPE   PO413376   5.381   5.536   5.458 -0.0253  0.4765 -0.0140
  908YOPE   GL113377   5.185   5.372   5.944 -0.1395  0.3949 -0.0633
  908YOPE   GL213378   5.015   5.091   5.883  0.0065 -0.0603  0.2617
  908YOPE   C1A13379   5.245   5.359   6.338 -0.1082  0.2860  0.2879
  908YOPE   D2A13380   5.575   5.490   6.665 -0.1526  0.2986 -0.2508
  908YOPE   C3A13381   5.649   5.936   6.847 -0.2685  0.0668 -0.0103
  908YOPE   C4A13382   5.807   6.323   6.998  0.1892  0.0102 -0.3559
  908YOPE   C1B13383   4.763   5.219   6.314  0.1167 -0.1655  0.0294
  908YOPE   C2B13384   4.496   5.327   6.735  0.0136  0.1441  0.2414
  908YOPE   D3B13385   4.328   5.223   7.089  0.0309  0.2833  0.1435
  908YOPE   C4B13386   4.062   4.991   7.372 -0.1901 -0.3459  0.3242
  909YOPE   NH313387  12.991  12.672   5.325 -0.2398 -0.1913 -0.0676
  909YOPE   PO413388  12.614  12.942   5.169 -0.3552  0.0912 -0.2542
  909YOPE   GL113389  12.448  12.566   5.373 -0.1291 -0.0056  0.1097
  909YOPE   GL213390  12.703  12.423   5.646 -0.2592  0.0426  0.2510
  909YOPE   C1A13391  12.071  12.421   5.603 -0.0361 -0.0778  0.1030
  909YOPE   D2A13392  12.066  12.473   5.991  0.2131 -0.2371  0.2130
  909YOPE   C3A13393  11.947  12.194   6.262 -0.0375  0.1225  0.1285
  909YOPE   C4A13394  12.064  11.854   6.475  0.2563 -0.2933  0.2238
  909YOPE   C1B13395  12.962  12.399   5.952  0.2985  0.0550  0.0170
  909YOPE   C2B13396  13.130  12.503   6.317 -0.2044  0.1412  0.3010
  909YOPE   D3B13397  13.071  12.870   6.600 -0.2755 -0.1945  0.5710
  909YOPE   C4B13398  12.992  13.272   6.740  0.0379 -0.0752  0.0637
  910YOPE   NH313399  12.202  13.223   5.151  0.1022 -0.2508  0.1108
  910YOPE   PO413400  12.577  13.470   5.202 -0.2453 -0.2236 -0.1986
  910YOPE   GL113401  12.599  13.313   5.643  0.1245  0.0439 -0.0473
  910YOPE   GL213402  12.697  12.971   5.654 -0.2915 -0.2526 -0.1421
  910YOPE   C1A13403  12.517  13.343   6.013  0.1342  0.2146  0.0509
  910YOPE   D2A13404  12.817  13.493   6.324 -0.2808 -0.0720  0.1334
  910YOPE   C3A13405  12.774  13.736   6.815 -0.0470  0.2587  0.1712
  910YOPE   C4A13406  12.470  13.812   7.082 -0.2715  0.2130 -0.1233
  910YOPE   C1B13407  12.476  12.747   6.012 -0.2086 -0.3607  0.0944
  910YOPE   C2B13408  12.664  12.528   6.298 -0.0482 -0.0245  0.2152
  910YOPE   D3B13409  12.670  12.600   6.707 -0.0050 -0.1275  0.3522
  910YOPE   C4B13410  12.579  13.002   7.032 -0.0234  0.0466  0.1235
  911YOPE   NH313411  14.895   7.296   5.700  0.0986  0.0003  0.1197
  911YOPE   PO413412  14.775   7.804   5.788 -0.1652  0.0763  0.4004
  911YOPE   GL113413  14.608   8.044   6.176  0.1665 -0.0289  0.0329
  911YOPE   GL213414  14.327   8.245   6.135  0.3567 -0.1312  0.3017
  911YOPE   C1A13415  14.652   8.328   6.475 -0.0442 -0.2276 -0.0868
  911YOPE   D2A13416  14.560   8.578   6.864  0.2093  0.1949  0.1333
  911YOPE   C3A13417  14.355   8.349   7.233 -0.2471  0.1187 -0.0914
  911YOPE   C4A13418  14.272   7.953   7.373 -0.0402 -0.1786 -0.1036
  911YOPE   C1B13419  14.186   8.445   6.507 -0.2670  0.0688  0.2205
  911YOPE   C2B13420  14.066   8.567   6.921 -0.0439  0.2188  0.0919
  911YOPE   D3B13421  13.840   8.710   7.340 -0.0615 -0.1093  0.1474
  911YOPE   C4B13422  13.507   8.555   7.573  0.0856  0.1534  0.0466
  912YOPE   NH313423  13.468  13.512   5.332 -0.1356 -0.1665  0.1203
  912YOPE   PO413424  13.833  13.388   5.655 -0.0036 -0.0737 -0.2178
  912YOPE   GL113425  14.050  13.108   5.948  0.0457 -0.3311 -0.1150
  912YOPE   GL213426  14.066  12.767   5.975 -0.2035  0.1315  0.0577
  912YOPE   C1A13427  14.254  12.914   6.384  0.0711 -0.2953 -0.3582
  912YOPE   D2A13428  14.311  12.958   6.826  0.0996  0.1998  0.2444
  912YOPE   C3A13429  14.476  13.300   7.053  0.1235 -0.3067 -0.1408
  912YOPE   C4A13430  14.420  13.804   7.207 -0.0372  0.3204  0.4579
  912YOPE   C1B13431  14.406  12.437   6.235  0.0293 -0.2392  0.2458
  912YOPE   C2B13432  14.369  12.414   6.680  0.1338  0.0803 -0.1081
  912YOPE   D3B13433  14.301  12.513   7.081  0.0670  0.1807  0.0738
  912YOPE   C4B13434  14.354  12.947   7.429 -0.0625  0.1955  0.0713
  913YOPE   NH313435   5.227  14.142   5.252 -0.2365  0.0175 -0.0690
  913YOPE   PO413436   5.521  14.457   5.214  0.1004  0.2095 -0.2051
  913YOPE   GL113437   5.342  14.514   5.677 -0.1925  0.1384  0.0610
  913YOPE   GL213438   5.214  14.403   5.960  0.1442 -0.0018  0.2796
  913YOPE   C1A13439   5.305  14.865   5.876  0.2896 -0.1146  0.1421
  913YOPE   D2A13440   5.265  15.125   6.208 -0.0554 -0.3549  0.0777
  913YOPE   C3A13441   5.340  15.066   6.614  0.4883 -0.0536  0.1798
  913YOPE   C4A13442   5.640  15.053   6.940  0.2234  0.1179 -0.0189
  913YOPE   C1B13443   5.005  14.656   6.258  0.1572  0.2531 -0.3594
  913YOPE   C2B13444   4.969  14.760   6.721 -0.0686 -0.1011 -0.0777
  913YOPE   D3B13445   4.762  14.695   6.998 -0.3499 -0.2246  0.1172
  913YOPE   C4B13446   4.366  14.770   6.976 -0.2668 -0.1586 -0.2234
  914YOPE   NH313447  12.136   5.241   5.012 -0.2288 -0.0160 -0.3516
  914YOPE   PO413448  11.785   5.277   5.280 -0.0747 -0.0717 -0.0001
  914YOPE   GL113449  11.643   5.183   5.856  0.0132 -0.0775  0.4487
  914YOPE   GL213450  11.305   5.320   5.920 -0.1485  0.2450 -0.1785
  914YOPE   C1A13451  11.793   5.171   6.287  0.1809  0.0459  0.2507
  914YOPE   D2A13452  12.018   5.290   6.723 -0.2187 -0.1518  0.0805
  914YOPE   C3A13453  11.933   5.621   6.888  0.1617  0.1254  0.1029
  914YOPE   C4A13454  12.111   5.734   7.193  0.3946  0.1740  0.1662
  914YOPE   C1B13455  11.263   5.227   6.339 -0.1801 -0.1544  0.1173
  914YOPE   C2B13456  11.498   5.135   6.706  0.1216  0.2060  0.0377
  914YOPE   D3B13457  11.492   4.678   6.883  0.3181 -0.1718 -0.2448
  914YOPE   C4B13458  11.346   4.403   7.236  0.1222  0.1353  0.0774
  915YOPE   NH313459   8.275   3.956   5.060 -0.0150  0.0121  0.2277
  915YOPE   PO413460   8.565   3.741   5.285 -0.1112 -0.3332  0.2554
  915YOPE   GL113461   8.657   3.757   5.667 -0.1209  0.1142 -0.0878
  915YOPE   GL213462   8.957   3.622   5.624 -0.0017  0.2756 -0.1890
  915YOPE   C1A13463   8.949   4.093   5.940  0.0933 -0.2444 -0.3683
  915YOPE   D2A13464   8.935   4.020   6.323  0.1846 -0.1393  0.1653
  915YOPE   C3A13465   9.008   4.076   6.726 -0.0803  0.1089  0.1925
  915YOPE   C4A13466   9.106   4.251   7.113  0.0551 -0.3113 -0.0965
  915YOPE   C1B13467   9.239   3.737   5.924 -0.1959 -0.3096  0.0548
  915YOPE   C2B13468   9.368   3.848   6.344  0.0914 -0.0935  0.0794
  915YOPE   D3B13469   9.332   3.685   6.746 -0.0459  0.0202  0.0399
  915YOPE   C4B13470   9.361   3.240   6.682 -0.0521 -0.1536  0.0263
  916YOPE   NH313471  10.700  17.419   4.970  0.1390 -0.1570 -0.1477
  916YOPE   PO413472  10.632  16.997   5.079 -0.0684  0.2012  0.0294
  916YOPE   GL113473  10.608  17.166   5.526  0.0928  0.0922  0.0649
  916YOPE   GL213474  10.373  17.339   5.616 -0.1457 -0.2548 -0.2186
  916YOPE   C1A13475  10.876  17.103   5.915 -0.0536 -0.0357  0.3284
  916YOPE   D2A13476  11.238  17.299   6.038 -0.1474  0.2283 -0.1775
  916YOPE   C3A13477  11.523  17.241   6.477 -0.1362 -0.0469  0.2940
  916YOPE   C4A13478  11.723  17.434   6.778 -0.2327 -0.1002  0.1336
  916YOPE   C1B13479  10.264  17.457   6.079  0.4144  0.0205  0.0480
  916YOPE   C2B13480  10.029  17.357   6.506 -0.1923 -0.0713  0.1355
  916YOPE   D3B13481   9.858  17.387   6.864  0.2040 -0.0307 -0.0160
  916YOPE   C4B13482   9.637  17.415   7.204  0.2771  0.0726 -0.2558
  917YOPE   NH313483  11.717  18.818   5.463 -0.0875 -0.0878  0.1312
  917YOPE   PO413484  11.429  18.529   5.689 -0.1252  0.3921  0.0677
  917YOPE   GL113485  11.855  18.460   5.743 -0.1022 -0.0170 -0.1355
  917YOPE   GL213486  11.964  18.689   5.904  0.1767 -0.0964  0.1116
  917YOPE   C1A13487  12.104  18.182   5.964  0.2107  0.2035  0.2910
  917YOPE   D2A13488  12.182  17.732   5.789 -0.2670 -0.2055 -0.0886
  917YOPE   C3A13489  12.337  17.354   6.142 -0.1126 -0.1315  0.0104
  917YOPE   C4A13490  12.298  17.300   6.642  0.4745  0.0526  0.0700
  917YOPE   C1B13491  11.794  18.717   6.306  0.3440  0.2296 -0.1693
  917YOPE   C2B13492  11.919  18.951   6.616 -0.0223  0.0695 -0.1446
  917YOPE   D3B13493  12.239  19.060   6.805 -0.1308  0.0643 -0.2542
  917YOPE   C4B13494  12.545  18.905   7.121  0.1293  0.0785  0.2304
  918YOPE   NH313495   5.985   1.217   4.600  0.0050  0.1483  0.0282
  918YOPE   PO413496   5.756   1.188   4.935 -0.0187  0.1720  0.1302
  918YOPE   GL113497   5.707   1.319   5.232  0.0100 -0.2946  0.0462
  918YOPE   GL213498   5.415   1.319   5.277  0.1648  0.0732  0.0467
  918YOPE   C1A13499   5.912   1.291   5.814 -0.2457 -0.3879 -0.0705
  918YOPE   D2A13500   5.876   1.731   5.998  0.0173 -0.2460  0.1380
  918YOPE   C3A13501   5.891   2.230   6.108  0.1392 -0.1560  0.0152
  918YOPE   C4A13502   5.848   2.686   6.300 -0.1397 -0.1570  0.3418
  918YOPE   C1B13503   5.419   1.454   5.699 -0.1550 -0.2155 -0.4057
  918YOPE   C2B13504   5.453   1.411   6.152  0.3676  0.4226  0.1019
  918YOPE   D3B13505   5.472   1.678   6.456 -0.2728  0.1369  0.1237
  918YOPE   C4B13506   5.701   1.969   6.439  0.3412  0.2010  0.1038
  919YOPE   NH313507  14.675   3.102   5.831  0.0257  0.1713 -0.0735
  919YOPE   PO413508  14.280   3.262   5.715 -0.0074  0.0650  0.4124
  919YOPE   GL113509  14.127   2.848   5.949  0.0561  0.1667  0.1858
  919YOPE   GL213510  14.482   2.715   6.043 -0.0417 -0.0678 -0.2376
  919YOPE   C1A13511  14.125   2.455   6.245  0.2602 -0.0576  0.2022
  919YOPE   D2A13512  13.969   2.294   6.514  0.3138  0.1325 -0.1382
  919YOPE   C3A13513  14.154   2.005   6.633  0.0848  0.2083  0.0094
  919YOPE   C4A13514  14.325   1.668   6.832 -0.3522  0.1383 -0.0032
  919YOPE   C1B13515  14.569   2.814   6.498 -0.0539  0.1191  0.1045
  919YOPE   C2B13516  14.399   2.519   6.742 -0.0683  0.2880 -0.0710
  919YOPE   D3B13517  14.341   2.612   7.134  0.2838  0.1761 -0.0384
  919YOPE   C4B13518  14.374   2.402   7.511  0.0806  0.0911 -0.0744
  920YOPE   NH313519   6.528  19.271   5.377 -0.1751 -0.1952 -0.0783
  920YOPE   PO413520   6.375  18.902   5.253 -0.0601  0.0067 -0.1030
  920YOPE   GL113521   6.257  18.961   5.685 -0.2621  0.2126  0.0949
  920YOPE   GL213522   6.191  18.659   5.729 -0.0714  0.0669  0.0182
  920YOPE   C1A13523   6.206  19.219   6.071 -0.0335 -0.1946  0.0834
  920YOPE   D2A13524   6.147  19.443   6.556 -0.0361  0.0226  0.1945
  920YOPE   C3A13525   5.729  19.508   6.641 -0.0314 -0.2819 -0.1214
  920YOPE   C4A13526   5.183  19.525   6.544  0.3944  0.2947  0.0805
  920YOPE   C1B13527   6.340  18.775   6.119  0.2526  0.1010 -0.0863
  920YOPE   C2B13528   6.519  18.833   6.583  0.1674 -0.2553 -0.2138
  920YOPE   D3B13529   6.848  18.768   6.771 -0.2356  0.0021 -0.1547
  920YOPE   C4B13530   7.277  18.770   6.799 -0.1673 -0.3361  0.1519
  921YOPE   NH313531   8.120  13.278   4.863 -0.4580 -0.0677  0.0032
  921YOPE   PO413532   8.520  13.049   4.915  0.3803 -0.2979 -0.0879
  921YOPE   GL113533   8.415  12.866   5.323  0.0738 -0.1569  0.1211
  921YOPE   GL213534   8.689  12.961   5.455 -0.1231 -0.1321 -0.1819
  921YOPE   C1A13535   8.388  12.903   5.797  0.0623 -0.0008 -0.2349
  921YOPE   D2A13536   8.712  13.002   6.053 -0.0012 -0.0740 -0.2822
  921YOPE   C3A13537   8.826  12.669   6.374 -0.4280  0.0903 -0.1602
  921YOPE   C4A13538   9.115  12.441   6.398 -0.0975  0.2452 -0.1119
  921YOPE   C1B13539   8.936  12.829   5.666 -0.0282 -0.2929  0.0763
  921YOPE   C2B13540   9.168  12.821   6.015  0.3277  0.0057  0.1218
  921YOPE   D3B13541   9.552  12.799   6.131 -0.1036  0.0199  0.2756
  921YOPE   C4B13542   9.843  13.046   5.954  0.0285 -0.1532 -0.1676
  922YOPE   NH313543  16.413   5.979   5.773  0.4597  0.0925  0.0605
  922YOPE   PO413544  16.071   5.739   5.531  0.0207  0.2817 -0.0732
  922YOPE   GL113545  16.399   5.397   5.746  0.2032  0.0440 -0.0021
  922YOPE   GL213546  16.498   5.560   6.058  0.1973  0.1271  0.2967
  922YOPE   C1A13547  16.246   5.098   5.979  0.0457  0.0744 -0.1604
  922YOPE   D2A13548  15.844   4.961   6.175  0.1463  0.0590  0.1247
  922YOPE   C3A13549  15.889   4.839   6.614 -0.2352 -0.0389 -0.0228
  922YOPE   C4A13550  15.863   4.418   6.978 -0.2679 -0.2052  0.2271
  922YOPE   C1B13551  16.503   5.902   6.356  0.0378  0.1052  0.1858
  922YOPE   C2B13552  16.596   6.293   6.623 -0.2149 -0.2385 -0.0397
  922YOPE   D3B13553  16.289   6.602   6.736 -0.1457 -0.1831  0.2190
  922YOPE   C4B13554  16.119   6.743   7.142  0.1797  0.1312  0.0994
  923YOPE   NH313555   3.640  11.670   5.592 -0.0489  0.0070  0.1689
  923YOPE   PO413556   3.649  11.970   5.808 -0.0724  0.0494 -0.0418
  923YOPE   GL113557   3.734  12.155   6.100  0.3279 -0.1845  0.0642
  923YOPE   GL213558   4.087  12.234   5.994  0.1539 -0.2697 -0.0048
  923YOPE   C1A13559   3.638  12.196   6.520 -0.0109 -0.0815 -0.0562
  923YOPE   D2A13560   3.624  12.213   6.949 -0.0132  0.1003 -0.0126
  923YOPE   C3A13561   3.412  11.907   7.280  0.1404 -0.3364 -0.0335
  923YOPE   C4A13562   2.971  11.652   7.429 -0.3866 -0.0702 -0.1592
  923YOPE   C1B13563   4.448  12.371   6.349  0.0622 -0.0107 -0.3784
  923YOPE   C2B13564   4.655  12.338   6.594  0.0619 -0.5275 -0.2809
  923YOPE   D3B13565   4.892  12.573   6.903  0.2782  0.1296  0.5119
  923YOPE   C4B13566   4.985  12.363   7.354  0.0139 -0.3085  0.1205
  924YOPE   NH313567  15.957   9.966   5.364  0.3149  0.1628  0.1652
  924YOPE   PO413568  15.648  10.380   5.415 -0.3584  0.2196 -0.1106
  924YOPE   GL113569  15.475  10.436   5.755  0.0843  0.2687 -0.2577
  924YOPE   GL213570  15.633  10.770   5.959  0.0358  0.0581 -0.0529
  924YOPE   C1A13571  15.510  10.287   6.173  0.1998  0.1489 -0.1562
  924YOPE   D2A13572  15.341  10.433   6.624 -0.0160 -0.0563  0.2923
  924YOPE   C3A13573  15.708  10.530   6.897  0.3118 -0.2604  0.0541
  924YOPE   C4A13574  15.617  10.908   7.110 -0.0313 -0.0255  0.2227
  924YOPE   C1B13575  15.229  10.745   6.082 -0.0272  0.0458  0.3747
  924YOPE   C2B13576  15.029  10.810   6.413 -0.2417  0.0487  0.0291
  924YOPE   D3B13577  14.877  10.633   6.790  0.0466  0.3587  0.2784
  924YOPE   C4B13578  14.616  10.434   7.178  0.0154  0.0178 -0.0558
  925POPC   NC313579   1.729  17.283   5.261  0.1377 -0.2183  0.1950
  925POPC   PO413580   1.816  16.943   5.564 -0.5256  0.2209  0.0045
  925POPC   GL113581   1.952  17.256   5.710 -0.4344 -0.4955  0.0536
  925POPC   GL213582   2.078  17.509   5.684 -0.0285  0.2421  0.0149
  925POPC   C1A13583   2.059  17.312   6.118  0.0518 -0.1277 -0.2318
  925POPC   D2A13584   2.362  17.343   6.283 -0.1252  0.3901 -0.2152
  925POPC   C3A13585   2.462  17.536   6.595 -0.0651 -0.0672 -0.2004
  925POPC   C4A13586   2.548  17.860   6.763 -0.3824  0.0616  0.0780
  925POPC   C1B13587   2.218  17.783   6.030 -0.2734  0.2053 -0.1044
  925POPC   C2B13588   2.087  17.815   6.471 -0.0829  0.0145 -0.1567
  925POPC   C3B13589   2.093  17.894   6.926 -0.0923  0.0259  0.0626
  925POPC   C4B13590   2.221  18.023   7.249  0.1766 -0.1350 -0.1206
  926POPC   NC313591  11.143   9.806   4.708  0.2414  0.4058  0.4041
  926POPC   PO413592  11.279   9.602   5.172  0.1732  0.1772 -0.0230
  926POPC   GL113593  11.476   9.473   5.460 -0.1288  0.2245 -0.2319
  926POPC   GL213594  11.575   9.063   5.378  0.0086 -0.1227  0.2398
  926POPC   C1A13595  11.231   9.242   5.776 -0.4806 -0.0779 -0.1548
  926POPC   D2A13596  10.940   9.454   5.953  0.1054 -0.1045  0.0983
  926POPC   C3A13597  10.724   9.412   6.376 -0.3034  0.4539  0.0686
  926POPC   C4A13598  10.809   9.645   6.749 -0.1793 -0.0326 -0.1434
  926POPC   C1B13599  11.619   8.923   5.758  0.2149 -0.1065  0.0999
  926POPC   C2B13600  11.599   8.947   6.239 -0.1244 -0.3289  0.0465
  926POPC   C3B13601  11.515   8.935   6.695 -0.0300 -0.0508  0.0943
  926POPC   C4B13602  11.964   9.089   6.818 -0.0860 -0.0560 -0.1351
  927POPC   NC313603   9.751  17.423   4.905  0.0415  0.3701  0.3385
  927POPC   PO413604   9.732  16.979   5.140 -0.1809 -0.0924  0.0583
  927POPC   GL113605   9.698  17.313   5.431  0.2081  0.5155  0.3053
  927POPC   GL213606   9.411  17.556   5.515  0.1639 -0.3708  0.0042
  927POPC   C1A13607   9.729  17.475   5.911 -0.0826  0.2154 -0.0041
  927POPC   D2A13608   9.453  17.603   6.243 -0.0236 -0.0272 -0.1147
  927POPC   C3A13609   8.994  17.814   6.513  0.0283 -0.2502  0.3523
  927POPC   C4A13610   9.121  18.195   6.600 -0.1473 -0.2918  0.0302
  927POPC   C1B13611   9.373  17.087   5.725 -0.4304 -0.0784  0.1614
  927POPC   C2B13612   9.299  16.771   6.053  0.1250  0.2803  0.0039
  927POPC   C3B13613   9.341  16.842   6.447  0.1204  0.1575 -0.0667
  927POPC   C4B13614   9.386  17.030   6.851 -0.2208  0.3007  0.2013
  928POPC   NC313615  15.208  15.065   5.279  0.3673 -0.3061  0.0143
  928POPC   PO413616  15.762  15.133   5.277 -0.0665  0.2541 -0.0798
  928POPC   GL113617  15.891  15.055   5.746  0.1075 -0.2207 -0.1093
  928POPC   GL213618  15.806  15.411   5.910  0.1488  0.0843  0.2700
  928POPC   C1A13619  15.823  14.725   6.098  0.0386  0.0699 -0.2127
  928POPC   D2A13620  15.869  14.626   6.465 -0.0068  0.0692 -0.2198
  928POPC   C3A13621  15.964  14.745   6.856 -0.1540  0.1090 -0.3245
  928POPC   C4A13622  15.581  14.779   7.196 -0.3252 -0.0736 -0.2853
  928POPC   C1B13623  15.849  15.256   6.247 -0.1716  0.0763  0.0037
  928POPC   C2B13624  15.620  15.068   6.549  0.1508  0.0823 -0.1925
  928POPC   C3B13625  15.299  15.173   6.932  0.2723  0.1555  0.0648
  928POPC   C4B13626  14.901  15.265   7.087  0.1293  0.1907 -0.0281
  929POPC   NC313627   3.771   5.749   5.328  0.0803  0.1446 -0.1212
  929POPC   PO413628   3.978   5.303   5.360 -0.1870  0.0057  0.1852
  929POPC   GL113629   3.915   5.243   5.691  0.0928  0.3096 -0.0476
  929POPC   GL213630   3.785   5.039   5.842  0.0853  0.0817  0.2162
  929POPC   C1A13631   3.749   5.409   6.176  0.0900  0.0510  0.0234
  929POPC   D2A13632   3.628   5.388   6.577 -0.1047  0.0067 -0.2430
  929POPC   C3A13633   3.587   4.938   6.747 -0.1589 -0.0727 -0.0411
  929POPC   C4A13634   3.714   4.630   7.088  0.1382 -0.2606  0.0481
  929POPC   C1B13635   3.998   4.719   5.936 -0.0932 -0.1294  0.0538
  929POPC   C2B13636   4.250   4.434   6.121  0.1875 -0.0075  0.0028
  929POPC   C3B13637   4.381   4.137   6.318 -0.3193 -0.1983 -0.2597
  929POPC   C4B13638   4.615   3.901   5.991  0.1147  0.4017  0.1789
  930POPC   NC313639   3.787  15.423   5.415  0.0155  0.0070 -0.2075
  930POPC   PO413640   4.092  15.066   5.420 -0.1378 -0.2379 -0.0769
  930POPC   GL113641   4.374  15.070   5.751  0.0670 -0.3337  0.0379
  930POPC   GL213642   4.340  14.861   5.949 -0.1215 -0.3966  0.3950
  930POPC   C1A13643   4.303  15.400   6.083  0.0406  0.2697  0.0538
  930POPC   D2A13644   4.295  15.613   6.485  0.0347  0.0246 -0.1772
  930POPC   C3A13645   4.165  15.676   6.885  0.0251 -0.0736  0.1805
  930POPC   C4A13646   4.116  15.403   7.224  0.2215  0.0287  0.1756
  930POPC   C1B13647   4.043  14.899   6.276 -0.2247  0.2975  0.1766
  930POPC   C2B13648   4.106  15.148   6.651 -0.1344  0.4446  0.1570
  930POPC   C3B13649   3.907  15.113   6.875  0.2263 -0.0677 -0.0074
  930POPC   C4B13650   3.519  15.069   6.790  0.3115 -0.0797 -0.0104
  931POPC   NC313651   9.509   8.505   5.129  0.2572 -0.2164  0.0477
  931POPC   PO413652   9.507   8.143   5.011  0.1805 -0.0089  0.0559
  931POPC   GL113653   9.520   7.957   5.288 -0.0878  0.2259 -0.3489
  931POPC   GL213654   9.936   7.995   5.289  0.1908  0.1125  0.3406
  931POPC   C1A13655   9.510   7.753   5.640 -0.0386  0.0314 -0.0970
  931POPC   D2A13656   9.827   7.693   5.880 -0.0199 -0.0572 -0.2406
  931POPC   C3A13657  10.093   7.489   6.243  0.0433  0.1886 -0.0846
  931POPC   C4A13658  10.416   7.499   6.531  0.4796  0.1068 -0.2818
  931POPC   C1B13659   9.911   8.280   5.628  0.1154 -0.2216  0.2236
  931POPC   C2B13660   9.979   8.154   6.044  0.0618 -0.0188  0.2289
  931POPC   C3B13661   9.830   7.979   6.351  0.2126 -0.1479 -0.1470
  931POPC   C4B13662   9.857   7.936   6.837 -0.1443  0.0599 -0.0144
  932POPC   NC313663   9.571   6.352   5.491 -0.1645 -0.3035 -0.0280
  932POPC   PO413664   9.565   6.827   5.519 -0.0631  0.0003 -0.0166
  932POPC   GL113665   9.870   6.678   5.824  0.0534 -0.1512  0.1062
  932POPC   GL213666  10.234   6.711   5.811 -0.2031 -0.1708  0.0038
  932POPC   C1A13667   9.895   6.698   6.294  0.0390 -0.1125  0.0370
  932POPC   D2A13668   9.899   6.635   6.715 -0.2914 -0.0610  0.0104
  932POPC   C3A13669   9.904   6.605   7.109  0.0154  0.0289  0.1305
  932POPC   C4A13670  10.138   6.692   7.570  0.3831  0.3502  0.0520
  932POPC   C1B13671  10.241   7.013   6.091 -0.0644 -0.3790  0.2569
  932POPC   C2B13672  10.227   7.022   6.500  0.0216  0.1747  0.0373
  932POPC   C3B13673  10.259   7.120   6.951 -0.2660  0.4809 -0.0601
  932POPC   C4B13674  10.439   7.177   7.387  0.1679 -0.0321  0.1025
  933POPC   NC313675   5.791  13.561   4.906  0.2120 -0.0655 -0.3689
  933POPC   PO413676   5.509  13.743   5.343 -0.0137  0.2917  0.3469
  933POPC   GL113677   5.445  13.941   5.685 -0.1531 -0.0748 -0.3450
  933POPC   GL213678   5.728  14.191   5.720  0.0837 -0.1068 -0.1735
  933POPC   C1A13679   5.365  14.027   6.222 -0.1786  0.1063 -0.1852
  933POPC   D2A13680   5.051  14.191   6.511  0.2660  0.0495  0.3141
  933POPC   C3A13681   4.860  13.929   6.764  0.0242 -0.0031  0.0557
  933POPC   C4A13682   4.363  13.801   6.773  0.0962  0.0737  0.0615
  933POPC   C1B13683   5.868  14.141   6.125 -0.1208  0.3478  0.0356
  933POPC   C2B13684   6.300  14.027   6.367  0.1478  0.4015  0.1721
  933POPC   C3B13685   6.759  14.035   6.511 -0.1782  0.1914  0.1433
  933POPC   C4B13686   6.986  13.994   6.823 -0.2319  0.0370 -0.0315
  934POPC   NC313687  12.803   0.284   5.531 -0.3637  0.4378 -0.2504
  934POPC   PO413688  12.306   0.257   5.721  0.3089 -0.0764 -0.2508
  934POPC   GL113689  11.849   0.304   5.726  0.2093  0.2127  0.1061
  934POPC   GL213690  11.843   0.502   5.974 -0.0748 -0.1385 -0.1643
  934POPC   C1A13691  11.457   0.221   5.973  0.0865  0.3385 -0.1112
  934POPC   D2A13692  11.241   0.022   6.266 -0.1415  0.2294  0.0815
  934POPC   C3A13693  11.262  -0.428   6.223  0.1906 -0.0721 -0.0249
  934POPC   C4A13694  10.974  -0.811   6.287 -0.1673 -0.3947  0.0541
  934POPC   C1B13695  12.077   0.753   6.271  0.1705  0.1290 -0.1952
  934POPC   C2B13696  12.480   0.528   6.424 -0.0239  0.0569  0.0634
  934POPC   C3B13697  12.885   0.367   6.576 -0.1816 -0.1387 -0.0265
  934POPC   C4B13698  13.178   0.242   6.913 -0.0084  0.4103  0.0221
  935POPC   NC313699   1.862   9.094   5.904  0.1554  0.2397 -0.0222
  935POPC   PO413700   1.851   8.636   5.885 -0.1528 -0.4000 -0.1144
  935POPC   GL113701   2.062   8.662   6.396  0.1459 -0.0590 -0.1703
  935POPC   GL213702   2.149   9.044   6.367  0.1265 -0.0406  0.0985
  935POPC   C1A13703   2.010   8.706   6.823 -0.1541  0.0849 -0.1553
  935POPC   D2A13704   1.760   8.835   7.040 -0.1690 -0.0543 -0.1892
  935POPC   C3A13705   1.822   9.165   7.349  0.0281 -0.1321  0.2231
  935POPC   C4A13706   1.792   9.559   7.512  0.2261 -0.0876 -0.0014
  935POPC   C1B13707   2.075   9.251   6.812 -0.2591 -0.3481 -0.0290
  935POPC   C2B13708   2.323   9.523   7.095 -0.1264 -0.3414 -0.1564
  935POPC   C3B13709   2.269   9.905   7.366 -0.0286  0.1317 -0.1040
  935POPC   C4B13710   2.412  10.340   7.488 -0.1523  0.0151  0.0140
  936POPC   NC313711  15.264  15.927   5.198 -0.1141 -0.1604  0.1123
  936POPC   PO413712  15.668  15.920   5.477  0.1041 -0.1076  0.2854
  936POPC   GL113713  15.746  15.881   5.877  0.0062 -0.0962  0.0972
  936POPC   GL213714  15.479  16.057   5.993 -0.0975 -0.0158  0.0026
  936POPC   C1A13715  15.674  15.709   6.263 -0.0946  0.0747  0.1003
  936POPC   D2A13716  15.911  15.562   6.661 -0.2517  0.3316 -0.2616
  936POPC   C3A13717  15.677  15.470   6.989  0.1727 -0.2118 -0.0563
  936POPC   C4A13718  15.288  15.608   7.143  0.2517  0.2659 -0.0858
  936POPC   C1B13719  15.195  15.962   6.339 -0.3973 -0.0037 -0.1670
  936POPC   C2B13720  14.855  16.204   6.512  0.0554 -0.1429  0.1460
  936POPC   C3B13721  14.489  16.310   6.237  0.0150 -0.2322 -0.1684
  936POPC   C4B13722  14.275  16.627   5.982 -0.1460 -0.2206  0.2664
  937POPC   NC313723  17.116   9.854   5.887 -0.4865 -0.1282  0.2134
  937POPC   PO413724  16.900   9.762   6.301  0.3276 -0.0122  0.0565
  937POPC   GL113725  16.743   9.508   6.494 -0.3034  0.2319 -0.1323
  937POPC   GL213726  16.959   9.539   6.774  0.1081 -0.0109 -0.0207
  937POPC   C1A13727  16.918   9.054   6.525  0.4444  0.1462 -0.0898
  937POPC   D2A13728  17.046   8.776   6.192 -0.0830 -0.2275 -0.0351
  937POPC   C3A13729  17.107   8.277   6.286  0.1150 -0.0892  0.1835
  937POPC   C4A13730  17.129   7.885   6.497 -0.0662  0.0565 -0.0032
  937POPC   C1B13731  16.653   9.226   6.908 -0.3241  0.1079 -0.2500
  937POPC   C2B13732  16.706   8.820   6.958  0.0630  0.2855  0.2471
  937POPC   C3B13733  16.975   8.598   7.235 -0.0380  0.3132 -0.1137
  937POPC   C4B13734  17.302   8.231   7.228 -0.0996 -0.1642 -0.2534
  938POPC   NC313735   6.191  10.928   4.934 -0.0907  0.1171  0.3841
  938POPC   PO413736   5.830  11.041   5.139 -0.2136 -0.0446 -0.1075
  938POPC   GL113737   5.699  10.854   5.509 -0.3060  0.0682  0.3793
  938POPC   GL213738   5.906  10.741   5.657 -0.0126  0.3534 -0.1060
  938POPC   C1A13739   5.385  10.828   5.905  0.2767 -0.2556 -0.2609
  938POPC   D2A13740   5.038  10.848   6.329 -0.0668 -0.3969  0.1168
  938POPC   C3A13741   5.144  10.735   6.786 -0.2873  0.0669  0.0570
  938POPC   C4A13742   5.444  11.025   7.042 -0.1623  0.3567 -0.0376
  938POPC   C1B13743   6.325  10.775   5.724 -0.0146 -0.1982 -0.0950
  938POPC   C2B13744   6.843  10.764   5.911  0.0536 -0.0945 -0.0847
  938POPC   C3B13745   7.272  10.822   6.001 -0.1440  0.4274  0.4386
  938POPC   C4B13746   7.661  10.622   6.157 -0.1728 -0.2242 -0.3767
  939POPC   NC313747   3.391  10.686   5.531  0.2197  0.2168  0.2208
  939POPC   PO413748   3.061  10.513   5.717 -0.3117 -0.0754  0.1853
  939POPC   GL113749   3.078  10.185   5.997  0.1710 -0.1789 -0.5426
  939POPC   GL213750   2.934  10.353   6.285  0.3144 -0.0639  0.2042
  939POPC   C1A13751   3.308  10.021   6.254 -0.1869 -0.0765  0.0218
  939POPC   D2A13752   3.446  10.308   6.608 -0.1415 -0.0402 -0.3063
  939POPC   C3A13753   3.823  10.202   6.816  0.0515 -0.2666 -0.4595
  939POPC   C4A13754   4.000   9.906   7.020  0.1565 -0.1366  0.1317
  939POPC   C1B13755   2.987  10.461   6.617  0.0124  0.1849  0.0246
  939POPC   C2B13756   3.022  10.252   7.052  0.0735 -0.2165 -0.0323
  939POPC   C3B13757   2.823   9.841   7.183  0.3129  0.1444  0.0662
  939POPC   C4B13758   2.862   9.618   7.529  0.1395 -0.0629 -0.1326
  940POPC   NC313759   6.894  18.613   4.957  0.2705  0.2073 -0.1493
  940POPC   PO413760   6.871  18.974   5.110  0.2041  0.2674 -0.0460
  940POPC   GL113761   6.767  18.725   5.450  0.0725 -0.2706 -0.2476
  940POPC   GL213762   6.811  18.950   5.606 -0.1509  0.2743 -0.0932
  940POPC   C1A13763   6.573  18.362   5.724 -0.0820 -0.2225 -0.1473
  940POPC   D2A13764   6.306  18.215   6.120 -0.0560 -0.1607  0.1438
  940POPC   C3A13765   6.235  17.752   6.195 -0.1897  0.0553  0.1365
  940POPC   C4A13766   6.264  17.331   6.022 -0.0476  0.0441 -0.0420
  940POPC   C1B13767   6.853  18.812   6.008 -0.1385 -0.1338  0.1837
  940POPC   C2B13768   6.687  18.440   6.336  0.0464  0.1364 -0.0736
  940POPC   C3B13769   6.985  18.091   6.540 -0.1081  0.0624 -0.1132
  940POPC   C4B13770   7.335  17.960   6.786 -0.1194 -0.0102  0.0902
  941POPC   NC313771  17.279  14.901   5.361  0.2650  0.1472  0.1729
  941POPC   PO413772  16.981  15.216   5.268 -0.1603 -0.1552  0.1473
  941POPC   GL113773  16.765  15.049   5.574 -0.1554 -0.0068  0.0366
  941POPC   GL213774  16.926  14.842   5.697 -0.0268 -0.0540 -0.2096
  941POPC   C1A13775  16.973  15.201   6.004 -0.1845  0.1633 -0.1245
  941POPC   D2A13776  17.049  15.226   6.337  0.1180 -0.0752 -0.2733
  941POPC   C3A13777  17.441  15.306   6.423 -0.0894  0.3577 -0.0770
  941POPC   C4A13778  17.731  15.502   6.733  0.0675  0.1100 -0.2288
  941POPC   C1B13779  16.837  14.753   6.069  0.2282 -0.0228 -0.2446
  941POPC   C2B13780  16.995  14.722   6.475 -0.3015 -0.2607 -0.0152
  941POPC   C3B13781  17.073  14.743   6.917 -0.0526 -0.2053 -0.1760
  941POPC   C4B13782  16.982  14.620   7.289 -0.0793  0.0882  0.2854
  942POPC   NC313783   3.539  18.238   4.777 -0.1956 -0.1238 -0.0212
  942POPC   PO413784   3.932  18.486   4.885 -0.2233  0.2269 -0.1967
  942POPC   GL113785   3.912  18.702   5.333 -0.5176  0.0614 -0.1285
  942POPC   GL213786   4.097  18.597   5.574  0.0264  0.4110  0.1812
  942POPC   C1A13787   3.638  18.597   5.708 -0.0566  0.0307  0.2344
  942POPC   D2A13788   3.516  18.221   5.953  0.0328 -0.0296 -0.0540
  942POPC   C3A13789   3.137  18.323   6.226 -0.3427 -0.1412 -0.3446
  942POPC   C4A13790   2.806  18.479   6.155  0.0321 -0.1581 -0.0701
  942POPC   C1B13791   4.003  18.651   6.053 -0.0856  0.0094  0.1516
  942POPC   C2B13792   3.947  18.293   6.258  0.2323 -0.4693  0.2442
  942POPC   C3B13793   4.173  18.092   6.537 -0.1277  0.3104 -0.0374
  942POPC   C4B13794   4.555  18.014   6.642 -0.0680 -0.3198 -0.0104
  943POPC   NC313795   6.253   6.500   5.148 -0.1818  0.1532 -0.0421
  943POPC   PO413796   5.939   6.789   5.438  0.2418 -0.0938  0.1762
  943POPC   GL113797   6.112   7.065   5.675 -0.2315  0.0312  0.2150
  943POPC   GL213798   6.331   6.931   5.971  0.1115  0.1194  0.0570
  943POPC   C1A13799   6.131   7.439   5.972  0.1574 -0.1484  0.2229
  943POPC   D2A13800   6.032   7.552   6.416  0.3913 -0.2314  0.2809
  943POPC   C3A13801   5.998   7.324   6.813 -0.2131 -0.0886  0.2428
  943POPC   C4A13802   5.944   7.480   7.242  0.3319  0.1161  0.2170
  943POPC   C1B13803   6.401   7.138   6.352  0.3133 -0.2614 -0.0218
  943POPC   C2B13804   6.466   7.099   6.840 -0.2146  0.3180 -0.0185
  943POPC   C3B13805   6.339   7.112   7.296  0.0971 -0.1366 -0.3289
  943POPC   C4B13806   6.272   7.152   7.659  0.2660  0.0586  0.0352
  944POPC   NC313807  13.014   2.580   5.406  0.2871 -0.1324  0.1081
  944POPC   PO413808  13.340   2.875   5.427 -0.0582 -0.0425  0.2544
  944POPC   GL113809  13.355   2.575   5.767 -0.1116 -0.0259 -0.1420
  944POPC   GL213810  13.676   2.588   5.883 -0.0495  0.2941 -0.3732
  944POPC   C1A13811  13.213   2.794   6.179  0.0053  0.2844  0.1013
  944POPC   D2A13812  13.014   2.807   6.613 -0.1783 -0.3299  0.0295
  944POPC   C3A13813  12.621   2.725   6.531  0.1098  0.0025 -0.0890
  944POPC   C4A13814  12.195   2.698   6.401 -0.2542  0.1862 -0.1267
  944POPC   C1B13815  13.664   2.796   6.247 -0.0521  0.0575 -0.0703
  944POPC   C2B13816  13.523   2.719   6.607 -0.3548  0.1580  0.2333
  944POPC   C3B13817  13.268   2.579   6.972  0.3475  0.0173 -0.1556
  944POPC   C4B13818  13.284   2.025   6.923  0.0354 -0.1046 -0.1662
  945POPC   NC313819   0.484   5.767   5.642 -0.1586 -0.1040  0.0826
  945POPC   PO413820   0.034   6.028   5.576 -0.1606 -0.6017  0.0080
  945POPC   GL113821   0.032   5.942   5.990  0.1172 -0.0037 -0.0943
  945POPC   GL213822   0.277   5.948   6.117 -0.4030  0.2083  0.2476
  945POPC   C1A13823  -0.326   5.914   6.264  0.0055  0.2149 -0.2174
  945POPC   D2A13824  -0.685   5.949   6.540  0.2788 -0.2923  0.0588
  945POPC   C3A13825  -0.732   6.304   6.826  0.0518  0.3297 -0.2314
  945POPC   C4A13826  -0.869   6.467   7.263 -0.2375 -0.2184  0.3325
  945POPC   C1B13827   0.055   5.988   6.582 -0.0388 -0.2824 -0.0134
  945POPC   C2B13828  -0.316   5.743   6.725 -0.0540  0.1078 -0.3262
  945POPC   C3B13829  -0.316   5.508   7.061  0.2281  0.0854 -0.2913
  945POPC   C4B13830  -0.224   5.118   7.370 -0.1272 -0.2858  0.0195
  946POPC   NC313831  19.088   9.916   5.634  0.1980  0.2397 -0.1432
  946POPC   PO413832  18.726   9.975   5.725  0.1025  0.2900 -0.1506
  946POPC   GL113833  18.843  10.088   6.106 -0.2697  0.0106  0.1446
  946POPC   GL213834  18.590   9.975   6.297  0.0445 -0.0615 -0.1644
  946POPC   C1A13835  18.875  10.190   6.591  0.2538 -0.2819 -0.1476
  946POPC   D2A13836  18.691   9.955   6.946 -0.0282  0.0889  0.0886
  946POPC   C3A13837  18.414  10.169   7.398 -0.0778 -0.2232  0.0544
  946POPC   C4A13838  18.397  10.512   7.745  0.1849 -0.0314  0.0911
  946POPC   C1B13839  18.459   9.667   6.660 -0.0915  0.2608 -0.1461
  946POPC   C2B13840  18.506   9.506   7.012 -0.0968  0.0880 -0.0333
  946POPC   C3B13841  18.281   9.551   7.412  0.0365 -0.1582 -0.0512
  946POPC   C4B13842  17.912   9.574   7.500  0.0317 -0.1658  0.1523
  947POPC   NC313843  14.232  10.663   5.198  0.2194  0.0504 -0.0067
  947POPC   PO413844  13.819  10.554   5.451 -0.2411 -0.1974 -0.0407
  947POPC   GL113845  13.648  10.473   5.810  0.1990  0.2098 -0.3893
  947POPC   GL213846  13.426  10.391   6.066 -0.1223 -0.0884  0.0624
  947POPC   C1A13847  14.035  10.521   6.169 -0.2111 -0.0168 -0.0606
  947POPC   D2A13848  14.144  10.916   6.477  0.3041  0.4074 -0.0851
  947POPC   C3A13849  14.225  11.373   6.564  0.0077 -0.0847 -0.0074
  947POPC   C4A13850  14.131  11.818   6.608 -0.0162  0.1810 -0.3118
  947POPC   C1B13851  13.256  10.430   6.513  0.2563  0.4868  0.0109
  947POPC   C2B13852  13.365  10.257   6.847 -0.1016  0.2718 -0.1118
  947POPC   C3B13853  13.569   9.986   6.999 -0.0825  0.3099  0.2778
  947POPC   C4B13854  13.927   9.732   7.238  0.1830  0.1340  0.1504
  948POPC   NC313855   4.639  11.640   5.230  0.3993  0.1381 -0.4080
  948POPC   PO413856   4.414  11.358   5.412 -0.2077  0.2516 -0.0445
  948POPC   GL113857   4.575  11.467   5.759 -0.2195 -0.0217 -0.3117
  948POPC   GL213858   4.388  11.482   6.074  0.4744  0.3990  0.1857
  948POPC   C1A13859   4.793  11.307   6.202 -0.2483  0.3335  0.0725
  948POPC   D2A13860   4.903  11.402   6.583  0.0471 -0.3657  0.0551
  948POPC   C3A13861   5.156  11.702   6.793 -0.0051  0.1240  0.1863
  948POPC   C4A13862   5.020  12.069   6.868  0.0736 -0.1345 -0.1963
  948POPC   C1B13863   4.345  11.337   6.545 -0.0332  0.0173  0.1878
  948POPC   C2B13864   4.246  11.365   6.961  0.2726  0.2306  0.0600
  948POPC   C3B13865   4.075  11.067   7.225  0.3984 -0.2320 -0.0265
  948POPC   C4B13866   3.925  10.829   7.550  0.1475  0.0546 -0.0281
  949POPC   NC313867   6.517  15.240   5.169  0.0984 -0.2742  0.0740
  949POPC   PO413868   6.808  15.377   4.815 -0.1606  0.2812 -0.1570
  949POPC   GL113869   6.840  15.595   5.229  0.1071  0.0913 -0.1544
  949POPC   GL213870   7.049  15.371   5.212 -0.0107  0.0671 -0.3326
  949POPC   C1A13871   7.076  15.784   5.633 -0.0475 -0.0115  0.0488
  949POPC   D2A13872   7.315  15.705   6.114 -0.0345 -0.1386 -0.2495
  949POPC   C3A13873   7.190  15.577   6.493 -0.3622 -0.0697 -0.1249
  949POPC   C4A13874   7.217  16.011   6.843 -0.0097 -0.0740  0.0991
  949POPC   C1B13875   6.945  15.270   5.671  0.1349 -0.0917  0.0752
  949POPC   C2B13876   6.935  15.126   6.057 -0.1534  0.0313 -0.3517
  949POPC   C3B13877   6.887  15.196   6.591  0.1672  0.3924 -0.1432
  949POPC   C4B13878   6.973  15.504   6.942 -0.1229 -0.3533 -0.3709
  950POPC   NC313879  14.461   7.521   5.476 -0.0127  0.2843  0.3055
  950POPC   PO413880  14.443   7.176   5.686 -0.3276  0.1718  0.0749
  950POPC   GL113881  14.553   7.443   6.044 -0.0620  0.3901  0.0313
  950POPC   GL213882  14.371   7.626   6.039  0.1910 -0.1335  0.2606
  950POPC   C1A13883  14.697   7.592   6.430  0.0684 -0.3492  0.0328
  950POPC   D2A13884  14.903   7.611   6.826 -0.2073 -0.2041  0.0587
  950POPC   C3A13885  14.820   7.211   7.103  0.2359 -0.1015  0.1042
  950POPC   C4A13886  14.915   6.842   7.236 -0.3642 -0.1406 -0.1999
  950POPC   C1B13887  14.107   7.717   6.352 -0.1381  0.1623  0.1925
  950POPC   C2B13888  14.331   7.910   6.587  0.4293 -0.1550 -0.0435
  950POPC   C3B13889  14.523   8.014   6.889 -0.2618 -0.0596  0.0994
  950POPC   C4B13890  14.772   8.045   7.298  0.1406  0.0129 -0.0176
  951POPC   NC313891  14.707  17.272   5.325 -0.0154  0.1259 -0.0325
  951POPC   PO413892  14.955  17.292   5.544 -0.0355  0.0700  0.0272
  951POPC   GL113893  14.970  17.333   6.014 -0.1246  0.1307 -0.0707
  951POPC   GL213894  14.993  17.589   6.042 -0.2293 -0.1100 -0.1661
  951POPC   C1A13895  14.978  17.042   6.477 -0.1231 -0.1526  0.3325
  951POPC   D2A13896  14.883  16.722   6.662 -0.2892  0.1292  0.0309
  951POPC   C3A13897  14.980  16.608   6.957  0.0750  0.1652 -0.3256
  951POPC   C4A13898  15.049  16.695   7.423  0.1201  0.0292  0.0856
  951POPC   C1B13899  15.181  17.558   6.457 -0.1507 -0.1599 -0.5392
  951POPC   C2B13900  15.009  17.604   6.820  0.0067  0.2283 -0.3254
  951POPC   C3B13901  14.687  17.440   6.982 -0.0920 -0.3364  0.0383
  951POPC   C4B13902  14.212  17.433   7.111 -0.3204 -0.3776  0.0714
  952POPC   NC313903   0.833  10.932   5.890  0.0643  0.0778 -0.0483
  952POPC   PO413904   1.382  10.835   5.975 -0.0274  0.3581  0.2149
  952POPC   GL113905   1.638  10.839   6.353 -0.1559  0.1184  0.1970
  952POPC   GL213906   1.608  11.152   6.545 -0.1904 -0.1476 -0.1557
  952POPC   C1A13907   1.709  10.693   6.827  0.3869  0.0536 -0.2400
  952POPC   D2A13908   2.083  10.794   7.052  0.0274  0.1792  0.0334
  952POPC   C3A13909   2.564  10.593   6.957 -0.0036 -0.1345  0.1206
  952POPC   C4A13910   2.588  10.218   6.838 -0.0397 -0.0679  0.3422
  952POPC   C1B13911   1.684  11.526   6.715 -0.0306  0.0459  0.2478
  952POPC   C2B13912   1.849  11.917   6.588 -0.2326 -0.0134  0.1215
  952POPC   C3B13913   2.167  12.239   6.893 -0.2174 -0.2799  0.0785
  952POPC   C4B13914   2.269  12.555   7.124 -0.0387 -0.1700 -0.2337
  953POPC   NC313915   2.858   0.567   5.006 -0.2745 -0.0517 -0.2554
  953POPC   PO413916   3.049   0.903   4.747 -0.1876 -0.2892  0.0958
  953POPC   GL113917   3.287   1.069   5.173 -0.0342 -0.0374 -0.3732
  953POPC   GL213918   3.123   0.821   5.368 -0.0192  0.1055 -0.2078
  953POPC   C1A13919   3.416   1.313   5.507  0.0874  0.0285  0.2396
  953POPC   D2A13920   3.799   1.485   5.735  0.2837 -0.1475 -0.0838
  953POPC   C3A13921   3.793   1.761   6.076 -0.1740  0.0251 -0.0023
  953POPC   C4A13922   3.470   1.660   6.446 -0.1892  0.5153 -0.1047
  953POPC   C1B13923   3.350   0.882   5.775 -0.0262 -0.0121 -0.0045
  953POPC   C2B13924   3.755   0.989   6.035 -0.2588  0.2709 -0.1150
  953POPC   C3B13925   4.139   0.642   5.917  0.0101 -0.3141 -0.2176
  953POPC   C4B13926   4.624   0.553   5.932  0.0889 -0.1030  0.2163
  954POPC   NC313927   8.798  11.683   4.617  0.2219  0.1688  0.1245
  954POPC   PO413928   8.928  11.342   4.791 -0.2043  0.2133 -0.0954
  954POPC   GL113929   8.924  11.170   5.268  0.1826 -0.2542 -0.3140
  954POPC   GL213930   9.051  11.410   5.536  0.2215  0.2768  0.0715
  954POPC   C1A13931   9.067  10.987   5.734  0.1773 -0.0988  0.2042
  954POPC   D2A13932   9.260  11.040   6.206  0.1130  0.0172  0.2640
  954POPC   C3A13933   9.625  11.009   6.357 -0.1308 -0.1922  0.2040
  954POPC   C4A13934  10.085  11.121   6.608  0.3248 -0.1743  0.1960
  954POPC   C1B13935   8.977  11.424   5.972  0.0181 -0.2186 -0.0289
  954POPC   C2B13936   8.884  11.334   6.426  0.2003 -0.0550  0.3601
  954POPC   C3B13937   8.975  11.086   6.754 -0.3211 -0.0114 -0.1991
  954POPC   C4B13938   9.250  10.702   6.616  0.1258  0.2349 -0.1957
  955POPC   NC313939   1.942   7.381   5.621  0.1053  0.1465 -0.1040
  955POPC   PO413940   2.080   7.790   5.703 -0.1808 -0.2307  0.1221
  955POPC   GL113941   1.751   7.653   6.042 -0.2297 -0.0673  0.0652
  955POPC   GL213942   1.638   7.879   6.264  0.0848 -0.1333  0.0106
  955POPC   C1A13943   1.612   7.368   6.316  0.1134  0.0184  0.1594
  955POPC   D2A13944   1.412   7.040   6.513  0.1902 -0.0726 -0.2358
  955POPC   C3A13945   1.013   7.035   6.548  0.2452 -0.3168 -0.2518
  955POPC   C4A13946   0.720   6.780   6.541 -0.0574  0.2989  0.2087
  955POPC   C1B13947   1.746   7.745   6.541  0.3078  0.2234  0.0622
  955POPC   C2B13948   2.090   7.749   6.821 -0.3058  0.0730  0.1105
  955POPC   C3B13949   2.169   7.334   7.047 -0.3476 -0.1385 -0.0194
  955POPC   C4B13950   1.903   7.022   7.252 -0.1620  0.1427  0.0795
  956POPC   NC313951  13.186   7.537   4.847 -0.1292 -0.2127  0.1330
  956POPC   PO413952  13.597   7.818   5.110  0.0805 -0.0324 -0.2845
  956POPC   GL113953  13.459   7.693   5.515  0.2264  0.0922  0.1035
  956POPC   GL213954  13.448   7.351   5.511 -0.0617 -0.2994 -0.0044
  956POPC   C1A13955  13.284   7.700   6.002 -0.1931 -0.2164  0.3133
  956POPC   D2A13956  12.942   7.895   6.225 -0.1878  0.0678  0.0938
  956POPC   C3A13957  12.737   7.669   6.620 -0.2466 -0.0631  0.1748
  956POPC   C4A13958  12.551   7.850   6.965  0.2041 -0.0692 -0.3499
  956POPC   C1B13959  13.713   7.413   5.871 -0.0778  0.0008 -0.1323
  956POPC   C2B13960  13.641   7.416   6.305  0.2434 -0.3963  0.0261
  956POPC   C3B13961  13.744   7.551   6.642 -0.1012 -0.0600 -0.0691
  956POPC   C4B13962  13.847   7.597   7.076 -0.2646  0.0069  0.3528
  957POPC   NC313963   0.901   1.318   5.124  0.2636  0.2225  0.0599
  957POPC   PO413964   1.368   1.130   5.105 -0.1482  0.3444  0.2081
  957POPC   GL113965   1.417   1.074   5.541  0.4415  0.1547 -0.0607
  957POPC   GL213966   1.647   1.159   5.695  0.2906 -0.0458 -0.1602
  957POPC   C1A13967   1.332   0.863   5.930  0.1537 -0.1231 -0.2026
  957POPC   D2A13968   1.387   0.453   6.185  0.2651 -0.0923 -0.1740
  957POPC   C3A13969   1.556   0.203   6.508  0.1319 -0.2054  0.0439
  957POPC   C4A13970   1.516   0.425   6.870 -0.1534  0.1490 -0.0906
  957POPC   C1B13971   1.703   1.559   5.916  0.0982 -0.0672  0.3038
  957POPC   C2B13972   1.841   1.856   6.180 -0.0333  0.2911  0.0387
  957POPC   C3B13973   2.034   1.879   6.624  0.4911  0.0503  0.0706
  957POPC   C4B13974   2.080   1.527   6.937 -0.0778  0.1871  0.1068
  958POPC   NC313975  15.686   7.939   5.410 -0.0418 -0.2600 -0.3388
  958POPC   PO413976  15.570   8.199   5.740  0.3035 -0.0528  0.1396
  958POPC   GL113977  15.608   8.550   6.022 -0.1395 -0.1241 -0.0014
  958POPC   GL213978  15.905   8.652   6.212 -0.1040 -0.0249 -0.1638
  958POPC   C1A13979  15.350   8.476   6.425  0.2228  0.1916 -0.3925
  958POPC   D2A13980  14.930   8.694   6.432  0.0128 -0.2385  0.0585
  958POPC   C3A13981  14.832   8.997   6.835 -0.0733  0.1564  0.1006
  958POPC   C4A13982  14.549   9.258   6.945  0.0532 -0.4264  0.1823
  958POPC   C1B13983  15.880   8.639   6.634 -0.0887  0.0136  0.1441
  958POPC   C2B13984  15.884   8.435   6.960  0.2050 -0.1789 -0.2695
  958POPC   C3B13985  16.059   8.518   7.333  0.6050 -0.3305  0.0768
  958POPC   C4B13986  16.401   8.913   7.519 -0.1100 -0.0337  0.1781
  959POPC   NC313987   5.813   3.630   4.966 -0.0441  0.0437 -0.2143
  959POPC   PO413988   6.053   4.018   4.952  0.2413 -0.1522  0.3157
  959POPC   GL113989   5.763   4.064   5.279 -0.1285 -0.1800 -0.1517
  959POPC   GL213990   5.903   4.148   5.486 -0.0674  0.0868 -0.0067
  959POPC   C1A13991   5.477   4.030   5.758 -0.4470 -0.0783 -0.0110
  959POPC   D2A13992   5.249   4.144   6.165  0.0757 -0.0374 -0.0306
  959POPC   C3A13993   5.480   4.172   6.448 -0.0073 -0.2725 -0.0904
  959POPC   C4A13994   5.712   4.084   6.768 -0.1327  0.1753  0.1406
  959POPC   C1B13995   5.681   4.457   5.691 -0.1267 -0.2276  0.2081
  959POPC   C2B13996   5.244   4.625   5.840  0.1620  0.2858  0.0267
  959POPC   C3B13997   5.128   4.716   6.279 -0.0356 -0.2929  0.0314
  959POPC   C4B13998   5.180   4.564   6.648 -0.0085  0.0673  0.2819
  960POPC   NC313999   5.099   0.191   5.016 -0.1740 -0.1181 -0.1517
  960POPC   PO414000   5.576   0.272   5.093 -0.1729 -0.0152 -0.2593
  960POPC   GL114001   5.764   0.275   5.576 -0.1156  0.4645  0.2969
  960POPC   GL214002   6.074   0.119   5.687  0.2592 -0.2781 -0.1712
  960POPC   C1A14003   5.932   0.540   5.886 -0.1231 -0.1764  0.2368
  960POPC   D2A14004   6.196   0.848   5.935 -0.1401 -0.3012 -0.3250
  960POPC   C3A14005   6.449   0.840   6.181  0.1509 -0.2247 -0.3221
  960POPC   C4A14006   6.605   1.126   6.429 -0.1323 -0.1296  0.0302
  960POPC   C1B14007   5.827   0.168   6.143  0.3071 -0.2302 -0.2740
  960POPC   C2B14008   5.558   0.506   6.280  0.2335  0.1756  0.2324
  960POPC   C3B14009   5.411   0.817   6.493  0.0922  0.0923 -0.0458
  960POPC   C4B14010   5.428   1.167   6.611 -0.2773  0.2699 -0.0585
  961POPC   NC314011  11.563   1.825   5.268  0.0388 -0.1121  0.3477
  961POPC   PO414012  11.187   1.784   5.038 -0.0345  0.3668 -0.3188
  961POPC   GL114013  10.972   1.778   5.470 -0.0705 -0.2621 -0.1878
  961POPC   GL214014  11.132   1.834   5.699  0.1391 -0.1127  0.0680
  961POPC   C1A14015  10.782   2.143   5.710 -0.1032  0.0016 -0.0874
  961POPC   D2A14016  10.319   2.115   5.955 -0.0253  0.1788  0.3770
  961POPC   C3A14017  10.388   1.871   6.350 -0.1690  0.1415 -0.4191
  961POPC   C4A14018  10.301   1.726   6.763  0.0250  0.0639 -0.1570
  961POPC   C1B14019  11.108   1.939   6.120 -0.2887 -0.1659  0.0400
  961POPC   C2B14020  10.967   2.297   6.327  0.3376 -0.1345  0.0850
  961POPC   C3B14021  10.690   2.427   6.670 -0.4396 -0.0263  0.1216
  961POPC   C4B14022  10.389   2.743   6.737  0.0068  0.0083  0.2530
  962POPC   NC314023   1.207  18.928   5.153  0.1270  0.0780  0.2567
  962POPC   PO414024   1.621  18.805   5.215  0.1402 -0.4117 -0.1411
  962POPC   GL114025   1.635  18.932   5.650  0.0284  0.0935  0.5623
  962POPC   GL214026   1.782  19.113   5.674 -0.2273  0.0248 -0.0909
  962POPC   C1A14027   1.643  18.834   6.117 -0.2563  0.2756 -0.2814
  962POPC   D2A14028   1.585  18.640   6.433  0.1744 -0.1659 -0.1847
  962POPC   C3A14029   1.271  18.321   6.343 -0.1000  0.0791 -0.0134
  962POPC   C4A14030   0.843  18.136   6.324  0.1900  0.2157 -0.6232
  962POPC   C1B14031   1.870  19.305   6.071  0.0962 -0.1212  0.1742
  962POPC   C2B14032   2.058  19.515   6.430  0.3418 -0.0181 -0.0532
  962POPC   C3B14033   1.990  19.551   6.851 -0.2937  0.3083  0.0925
  962POPC   C4B14034   2.272  19.461   7.221 -0.1567 -0.0025 -0.2980
  963YOPC   NC314035   3.904  13.177   5.247  0.2616 -0.2104  0.1330
  963YOPC   PO414036   3.993  13.040   5.746 -0.0315 -0.3225 -0.0167
  963YOPC   GL114037   4.052  13.091   6.155 -0.0518  0.1254 -0.0912
  963YOPC   GL214038   3.865  13.327   6.251 -0.2853  0.0319  0.2689
  963YOPC   C1A14039   3.982  13.016   6.612 -0.0326 -0.4712 -0.2474
  963YOPC   D2A14040   3.616  12.842   6.746  0.1386 -0.2386  0.2587
  963YOPC   C3A14041   3.354  12.541   6.343 -0.0056 -0.1477 -0.1664
  963YOPC   C4A14042   3.044  12.240   6.070 -0.1095 -0.2089 -0.0915
  963YOPC   C1B14043   3.888  13.482   6.670  0.0985 -0.1214 -0.2741
  963YOPC   C2B14044   3.885  13.871   6.785  0.1306 -0.1695 -0.1341
  963YOPC   D3B14045   3.485  13.869   6.933 -0.0301  0.4409 -0.0272
  963YOPC   C4B14046   3.136  13.640   6.963 -0.1187  0.0604  0.0257
  964YOPC   NC314047   2.340  11.912   5.875  0.0387  0.3066 -0.4187
  964YOPC   PO414048   2.274  11.458   5.661  0.1883  0.0835 -0.1670
  964YOPC   GL114049   2.451  11.332   6.100 -0.0753 -0.1066 -0.0851
  964YOPC   GL214050   2.666  11.640   6.206 -0.2333 -0.0348 -0.1463
  964YOPC   C1A14051   2.621  11.402   6.627 -0.1067  0.0929  0.0692
  964YOPC   D2A14052   2.642  11.586   7.023  0.1767  0.1142 -0.3470
  964YOPC   C3A14053   2.440  11.446   7.392 -0.0459 -0.0383  0.0969
  964YOPC   C4A14054   2.388  11.167   7.757  0.1943  0.2625 -0.2471
  964YOPC   C1B14055   2.993  11.864   6.428 -0.3217 -0.3940 -0.1681
  964YOPC   C2B14056   3.451  11.771   6.385 -0.1071  0.0802  0.3146
  964YOPC   D3B14057   3.558  11.672   6.763 -0.1179  0.1134 -0.1267
  964YOPC   C4B14058   3.852  11.671   7.053  0.1334 -0.0109  0.0956
  965YOPC   NC314059  14.047  18.046   5.079  0.0406 -0.2375 -0.1281
  965YOPC   PO414060  13.667  17.787   5.128  0.3358 -0.0206 -0.3505
  965YOPC   GL114061  13.409  17.628   5.444  0.3238 -0.1508  0.1467
  965YOPC   GL214062  13.566  17.248   5.419 -0.1255 -0.0071 -0.2974
  965YOPC   C1A14063  13.142  17.608   5.855 -0.3553  0.3446  0.0870
  965YOPC   D2A14064  12.815  17.309   6.030 -0.0488  0.3450 -0.0678
  965YOPC   C3A14065  12.811  17.125   6.349  0.0346 -0.1048 -0.1783
  965YOPC   C4A14066  12.902  17.055   6.779  0.0345  0.0952  0.3307
  965YOPC   C1B14067  13.502  16.894   5.447  0.1946  0.0659 -0.1691
  965YOPC   C2B14068  13.504  16.627   5.857 -0.0736  0.4196  0.0967
  965YOPC   D3B14069  13.756  16.755   6.157  0.1368  0.0259 -0.0316
  965YOPC   C4B14070  13.989  17.052   6.280  0.0123 -0.1574 -0.5659
  966YOPC   NC314071   7.616   9.929   4.788 -0.2557 -0.2789 -0.1021
  966YOPC   PO414072   7.605   9.592   5.082 -0.1478  0.2370  0.3520
  966YOPC   GL114073   7.554   9.594   5.558 -0.2578  0.1702 -0.0381
  966YOPC   GL214074   7.378   9.808   5.720 -0.0368 -0.4740 -0.3136
  966YOPC   C1A14075   7.590   9.637   6.115  0.2370 -0.1354 -0.2494
  966YOPC   D2A14076   7.706   9.717   6.452  0.1500  0.0462 -0.1341
  966YOPC   C3A14077   8.125   9.757   6.540 -0.0637  0.2978 -0.2206
  966YOPC   C4A14078   8.555   9.957   6.327 -0.0623 -0.1168 -0.2137
  966YOPC   C1B14079   7.665  10.093   5.917 -0.1418  0.1249  0.1857
  966YOPC   C2B14080   7.567  10.171   6.280  0.0353  0.3474  0.0344
  966YOPC   D3B14081   7.573  10.406   6.727  0.2975  0.1340 -0.2759
  966YOPC   C4B14082   7.287  10.609   7.104 -0.2901 -0.2100  0.1130
  967YOPC   NC314083   0.675   9.727   6.098 -0.1110 -0.0259  0.0844
  967YOPC   PO414084   0.560  10.125   5.983 -0.2317 -0.0674 -0.2218
  967YOPC   GL114085   0.770  10.152   6.374 -0.1259 -0.4093 -0.0326
  967YOPC   GL214086   0.468  10.210   6.629  0.0288 -0.0057 -0.2434
  967YOPC   C1A14087   0.900   9.923   6.660 -0.2000  0.1083 -0.0263
  967YOPC   D2A14088   0.821   9.736   7.010 -0.2734 -0.0428 -0.0649
  967YOPC   C3A14089   0.499   9.895   7.287 -0.3143 -0.1252 -0.3121
  967YOPC   C4A14090   0.322  10.075   7.671 -0.3117  0.1502 -0.0088
  967YOPC   C1B14091   0.204  10.361   7.036 -0.3688 -0.1893  0.0100
  967YOPC   C2B14092  -0.032  10.475   7.449 -0.1061  0.1765  0.1544
  967YOPC   D3B14093  -0.003  10.515   7.902  0.0781  0.2109  0.1323
  967YOPC   C4B14094  -0.170  10.797   8.228  0.0590  0.0784  0.2968
  968YOPC   NC314095  16.559   7.603   5.668 -0.1708 -0.0815 -0.0818
  968YOPC   PO414096  16.466   7.939   5.898 -0.0410  0.2741  0.0313
  968YOPC   GL114097  16.192   8.161   6.136  0.0561  0.3562  0.3909
  968YOPC   GL214098  15.940   8.154   6.157 -0.0084  0.1804 -0.0353
  968YOPC   C1A14099  16.221   8.288   6.552  0.1030  0.0414 -0.3913
  968YOPC   D2A14100  16.397   8.426   6.988  0.2062 -0.2286  0.0493
  968YOPC   C3A14101  16.699   8.085   7.131 -0.1160  0.0685 -0.0294
  968YOPC   C4A14102  17.039   7.855   6.972 -0.2253 -0.0421 -0.0368
  968YOPC   C1B14103  15.692   8.091   6.539 -0.0007  0.2749  0.0921
  968YOPC   C2B14104  15.440   8.171   6.840  0.1729 -0.0104 -0.0699
  968YOPC   D3B14105  15.554   8.220   7.320 -0.0480 -0.2741  0.0360
  968YOPC   C4B14106  15.233   8.285   7.646 -0.1620 -0.0592  0.0652
  969YOPC   NC314107   4.436   0.779   4.837  0.1504 -0.0198  0.4180
  969YOPC   PO414108   4.774   0.548   4.997  0.3202 -0.4683  0.2981
  969YOPC   GL114109   4.812   0.646   5.412 -0.0080  0.4354  0.2722
  969YOPC   GL214110   4.584   0.875   5.435  0.2708  0.0461 -0.0411
  969YOPC   C1A14111   5.056   0.926   5.532 -0.0296 -0.1574  0.0256
  969YOPC   D2A14112   5.150   1.023   5.996 -0.2374  0.0424 -0.1337
  969YOPC   C3A14113   4.838   1.053   6.407  0.3769 -0.4607 -0.3028
  969YOPC   C4A14114   4.451   1.212   6.676  0.2023 -0.1667 -0.2654
  969YOPC   C1B14115   4.619   1.094   5.899 -0.2139  0.1186  0.3196
  969YOPC   C2B14116   4.211   1.032   6.266  0.1496  0.0383 -0.0393
  969YOPC   D3B14117   3.998   1.395   6.291  0.1749  0.0715 -0.2787
  969YOPC   C4B14118   4.084   1.748   6.538  0.1913 -0.2826 -0.2072
  970YOPC   NC314119   9.592   3.428   5.237  0.0588 -0.3028  0.0030
  970YOPC   PO414120   9.179   3.234   5.356 -0.1737 -0.2102  0.2035
  970YOPC   GL114121   8.790   3.157   5.550 -0.1392  0.0753 -0.0296
  970YOPC   GL214122   8.601   3.310   5.807 -0.5125  0.0016 -0.3226
  970YOPC   C1A14123   8.748   2.848   5.962 -0.2623  0.2051 -0.1245
  970YOPC   D2A14124   8.909   2.861   6.369 -0.0418 -0.2464  0.0560
  970YOPC   C3A14125   8.553   2.776   6.767  0.1491 -0.4731 -0.1125
  970YOPC   C4A14126   8.558   3.036   7.051  0.0386  0.0263  0.1147
  970YOPC   C1B14127   8.449   3.152   6.177 -0.0418 -0.2829  0.0686
  970YOPC   C2B14128   8.264   2.744   6.341 -0.2393 -0.1427 -0.3057
  970YOPC   D3B14129   8.404   2.393   6.091  0.2505  0.3380 -0.2012
  970YOPC   C4B14130   8.675   2.213   5.848  0.0704  0.2338  0.1157
  971YOPC   NC314131   6.331   9.804   5.330  0.1756  0.0672 -0.1781
  971YOPC   PO414132   6.501  10.242   5.231 -0.0435 -0.1075  0.0278
  971YOPC   GL114133   6.369  10.338   5.604  0.4583  0.1610 -0.1515
  971YOPC   GL214134   6.127  10.277   5.731 -0.0275  0.0005  0.1359
  971YOPC   C1A14135   6.616  10.276   6.090 -0.3063  0.1508  0.2047
  971YOPC   D2A14136   6.712  10.612   6.417  0.2304 -0.0639  0.2722
  971YOPC   C3A14137   6.337  10.828   6.464 -0.1496  0.0304 -0.3711
  971YOPC   C4A14138   6.014  11.096   6.576  0.1071  0.1300  0.1253
  971YOPC   C1B14139   6.116  10.160   6.104 -0.3855  0.0077  0.0230
  971YOPC   C2B14140   6.105  10.332   6.486  0.1297 -0.0604 -0.6923
  971YOPC   D3B14141   5.948  10.634   6.760  0.0608  0.0416  0.3580
  971YOPC   C4B14142   5.814  10.553   7.203 -0.1848 -0.5182  0.5532
  972YOPC   NC314143  10.668   2.935   5.078  0.0084 -0.0169 -0.1560
  972YOPC   PO414144  11.064   3.114   5.231 -0.1167  0.2903  0.3559
  972YOPC   GL114145  11.070   2.794   5.524  0.0815 -0.1717  0.2586
  972YOPC   GL214146  10.807   2.638   5.539 -0.3209 -0.2037 -0.4268
  972YOPC   C1A14147  11.448   2.579   5.682  0.2810  0.2928 -0.1178
  972YOPC   D2A14148  11.871   2.588   6.000 -0.5892  0.2593 -0.0477
  972YOPC   C3A14149  11.897   2.249   6.361  0.1396 -0.5656 -0.2014
  972YOPC   C4A14150  11.832   1.817   6.359  0.0547 -0.0550  0.2669
  972YOPC   C1B14151  10.576   2.552   5.957 -0.1736 -0.2905 -0.1767
  972YOPC   C2B14152  10.212   2.781   6.183  0.1155 -0.1059 -0.2985
  972YOPC   D3B14153   9.954   3.137   5.967 -0.1869  0.4156  0.0998
  972YOPC   C4B14154  10.053   3.486   5.788 -0.1789  0.1524 -0.1732
  973YOPC   NC314155   9.465  14.804   4.587 -0.4515  0.2162  0.2485
  973YOPC   PO414156   9.119  14.754   4.754 -0.0252 -0.0441  0.2514
  973YOPC   GL114157   9.042  14.506   5.048 -0.0534 -0.2054 -0.1976
  973YOPC   GL214158   9.277  14.298   5.077 -0.3201  0.4022 -0.0556
  973YOPC   C1A14159   8.930  14.266   5.422 -0.1548  0.0333  0.0968
  973YOPC   D2A14160   8.773  13.904   5.659 -0.2568  0.2224  0.1772
  973YOPC   C3A14161   8.584  13.920   6.042 -0.2338  0.0509 -0.1017
  973YOPC   C4A14162   8.596  13.802   6.404  0.0445 -0.1498  0.0456
  973YOPC   C1B14163   9.473  14.317   5.494  0.0612 -0.1873  0.1009
  973YOPC   C2B14164   9.728  14.172   5.863  0.2061 -0.0063  0.0454
  973YOPC   D3B14165   9.660  14.115   6.276 -0.1299 -0.1377  0.2244
  973YOPC   C4B14166   9.438  14.011   6.708 -0.0870  0.2964 -0.5065
  974YOPC   NC314167  16.059  10.953   5.832 -0.0118  0.2164 -0.1016
  974YOPC   PO414168  16.279  11.328   5.805  0.2128  0.1987  0.2549
  974YOPC   GL114169  15.988  11.277   6.164 -0.1116  0.2219  0.2005
  974YOPC   GL214170  15.866  11.033   6.317 -0.1105  0.0885 -0.1197
  974YOPC   C1A14171  15.999  11.594   6.462 -0.3438  0.0664  0.2180
  974YOPC   D2A14172  15.997  11.696   6.856  0.1925 -0.0335  0.0766
  974YOPC   C3A14173  16.057  11.940   7.134 -0.1380  0.0264 -0.0754
  974YOPC   C4A14174  16.273  12.195   7.449  0.2579  0.3081  0.1887
  974YOPC   C1B14175  15.561  10.903   6.592 -0.2942  0.3044 -0.0874
  974YOPC   C2B14176  15.192  11.051   6.829  0.0790  0.0897  0.0007
  974YOPC   D3B14177  15.017  10.818   7.214 -0.0782  0.0031 -0.0208
  974YOPC   C4B14178  14.663  10.851   7.483 -0.0095 -0.4444  0.0979
  975YOPC   NC314179  15.933   3.456   5.768  0.0123 -0.0886 -0.2528
  975YOPC   PO414180  15.559   3.190   5.690  0.0146 -0.1526  0.2448
  975YOPC   GL114181  15.523   3.314   5.997  0.2306  0.1788 -0.0735
  975YOPC   GL214182  15.280   3.144   6.091  0.2572  0.3166 -0.3734
  975YOPC   C1A14183  15.336   3.571   6.361 -0.0363  0.2058  0.0114
  975YOPC   D2A14184  15.448   3.771   6.797  0.2660 -0.0670 -0.0219
  975YOPC   C3A14185  15.462   4.128   6.810  0.2757  0.0248 -0.0734
  975YOPC   C4A14186  15.437   4.594   6.718 -0.3883  0.0200 -0.1729
  975YOPC   C1B14187  15.561   3.138   6.506  0.0969  0.2324  0.1406
  975YOPC   C2B14188  15.856   3.375   6.789  0.0058 -0.0711  0.0143
  975YOPC   D3B14189  15.518   3.409   7.172 -0.0405  0.0065  0.2837
  975YOPC   C4B14190  15.382   3.066   7.446 -0.1426 -0.3009  0.3287
  976YOPC   NC314191   8.125  18.450   4.960 -0.0757 -0.3136 -0.0667
  976YOPC   PO414192   8.200  18.703   5.305  0.0677 -0.1267  0.1194
  976YOPC   GL114193   8.178  18.992   5.650 -0.1502 -0.2035  0.5202
  976YOPC   GL214194   8.425  19.210   5.604  0.1294  0.3384  0.3367
  976YOPC   C1A14195   7.939  19.011   5.967  0.3377 -0.7998  0.1714
  976YOPC   D2A14196   7.567  18.823   6.142  0.2074 -0.4168  0.2378
  976YOPC   C3A14197   7.330  18.652   5.911  0.0482  0.1160 -0.3446
  976YOPC   C4A14198   7.114  18.312   5.623 -0.0782 -0.0765  0.1320
  976YOPC   C1B14199   8.643  19.001   5.939  0.0128  0.0606  0.2953
  976YOPC   C2B14200   8.809  18.954   6.254  0.3152  0.0614 -0.3346
  976YOPC   D3B14201   8.731  19.396   6.343  0.3674 -0.2419 -0.2933
  976YOPC   C4B14202   8.525  19.753   6.393 -0.0257 -0.2869 -0.0899
  977YOPC   NC314203  11.845   7.342   5.077 -0.1860 -0.0189  0.1015
  977YOPC   PO414204  11.735   6.978   5.253 -0.2498 -0.0120  0.1377
  977YOPC   GL114205  11.769   7.011   5.761 -0.3015  0.1184 -0.0781
  977YOPC   GL214206  11.758   6.714   5.939 -0.0699  0.3611  0.3452
  977YOPC   C1A14207  12.094   7.198   6.043  0.1771  0.1486 -0.0228
  977YOPC   D2A14208  12.444   7.210   6.132  0.4278  0.0130 -0.0625
  977YOPC   C3A14209  12.332   7.221   6.543  0.0536  0.1448 -0.1236
  977YOPC   C4A14210  12.247   7.426   6.839 -0.1506  0.1798 -0.0436
  977YOPC   C1B14211  11.851   6.901   6.460  0.2410  0.0544 -0.0024
  977YOPC   C2B14212  11.827   7.034   6.839 -0.0513  0.0573  0.5063
  977YOPC   D3B14213  11.865   6.683   7.165  0.2922 -0.0331 -0.0908
  977YOPC   C4B14214  11.650   6.566   7.541  0.0008  0.4846 -0.1014
  978YOPC   NC314215   3.506  12.495   5.697 -0.3413 -0.3064 -0.0922
  978YOPC   PO414216   3.484  12.874   5.521  0.1654 -0.1316  0.0314
  978YOPC   GL114217   3.602  12.888   6.008 -0.0630  0.0023  0.3850
  978YOPC   GL214218   3.412  13.145   6.225  0.0458 -0.2517  0.2880
  978YOPC   C1A14219   3.923  12.635   6.239 -0.1336  0.0215  0.2779
  978YOPC   D2A14220   4.067  12.453   6.647 -0.2763 -0.3316  0.2684
  978YOPC   C3A14221   3.938  12.624   7.130 -0.1064 -0.0896 -0.2440
  978YOPC   C4A14222   3.814  12.563   7.671 -0.1736  0.0607 -0.1649
  978YOPC   C1B14223   3.443  13.296   6.756 -0.1340 -0.0279 -0.1887
  978YOPC   C2B14224   3.163  13.137   6.978  0.1093 -0.1383 -0.1699
  978YOPC   D3B14225   3.200  12.661   7.083 -0.3770  0.2167  0.0166
  978YOPC   C4B14226   3.474  12.377   7.385  0.0335  0.2555  0.2009
  979YOPC   NC314227  17.394  16.422   5.186  0.0369  0.0844 -0.0951
  979YOPC   PO414228  17.759  16.188   5.415 -0.0928 -0.0329 -0.1631
  979YOPC   GL114229  17.647  15.835   5.643  0.0378 -0.3462  0.2854
  979YOPC   GL214230  17.709  15.893   5.914  0.2383  0.1529 -0.0726
  979YOPC   C1A14231  17.671  15.385   5.804  0.2047  0.0811 -0.1091
  979YOPC   D2A14232  17.736  15.066   6.028 -0.1015  0.2094  0.0896
  979YOPC   C3A14233  17.409  14.830   6.155  0.1016 -0.1203 -0.2757
  979YOPC   C4A14234  17.185  14.358   6.153  0.0907 -0.2098 -0.1019
  979YOPC   C1B14235  17.425  15.841   6.298 -0.0902 -0.0971  0.5591
  979YOPC   C2B14236  17.217  15.678   6.645  0.0145  0.1201 -0.0112
  979YOPC   D3B14237  16.714  15.597   6.603 -0.0360 -0.1498  0.0349
  979YOPC   C4B14238  16.337  15.750   6.697 -0.0742 -0.0727  0.0216
  980YOPC   NC314239  19.129  11.997   5.594 -0.0503 -0.1049 -0.0528
  980YOPC   PO414240  19.204  11.958   5.942 -0.1277  0.0869 -0.0365
  980YOPC   GL114241  18.997  12.019   6.251 -0.1223  0.1448  0.0997
  980YOPC   GL214242  19.039  12.271   6.305  0.1727  0.1808  0.2328
  980YOPC   C1A14243  18.901  11.792   6.530 -0.2630 -0.1348  0.1682
  980YOPC   D2A14244  18.782  11.807   6.900 -0.2448 -0.2636  0.2084
  980YOPC   C3A14245  18.687  12.268   7.035 -0.2132  0.0397 -0.3469
  980YOPC   C4A14246  18.497  12.648   7.089 -0.1865  0.3280  0.0789
  980YOPC   C1B14247  18.785  12.329   6.530 -0.1646  0.1546  0.0372
  980YOPC   C2B14248  18.852  12.669   6.713 -0.3192 -0.0918 -0.0857
  980YOPC   D3B14249  19.060  12.755   7.061  0.1809  0.0303  0.0225
  980YOPC   C4B14250  19.135  12.962   7.527 -0.2116 -0.2973 -0.1407
  981YOPC   NC314251  15.742   2.763   5.683  0.0152  0.0157  0.0961
  981YOPC   PO414252  16.167   3.011   5.693 -0.1198 -0.2790  0.4394
  981YOPC   GL114253  16.352   3.237   5.976 -0.1506 -0.2151 -0.1758
  981YOPC   GL214254  16.688   3.413   5.980 -0.1104  0.2356 -0.1287
  981YOPC   C1A14255  16.384   3.356   6.449 -0.0099 -0.4235 -0.3475
  981YOPC   D2A14256  16.300   3.288   6.851  0.1802  0.0895  0.0573
  981YOPC   C3A14257  16.091   3.160   7.184  0.3149  0.2044 -0.2620
  981YOPC   C4A14258  15.848   3.260   7.596  0.2588  0.1228 -0.0779
  981YOPC   C1B14259  17.028   3.352   6.298  0.0071  0.2396 -0.1238
  981YOPC   C2B14260  17.343   3.202   6.598 -0.0623  0.1311  0.4643
  981YOPC   D3B14261  17.559   3.183   6.902  0.2220  0.0348  0.1424
  981YOPC   C4B14262  17.675   3.422   7.280 -0.1000  0.1229 -0.0764
  982YOPC   NC314263   2.808  14.338   5.039 -0.1864  0.0324  0.2791
  982YOPC   PO414264   2.496  14.629   5.129 -0.1247  0.0105 -0.1025
  982YOPC   GL114265   2.501  14.737   5.556  0.1376 -0.1790  0.0375
  982YOPC   GL214266   2.807  14.761   5.505 -0.1957  0.1862  0.0617
  982YOPC   C1A14267   2.503  15.143   5.789 -0.2990  0.0241  0.1186
  982YOPC   D2A14268   2.749  15.263   6.191  0.1162  0.1307  0.0083
  982YOPC   C3A14269   2.702  15.408   6.540 -0.0049 -0.2945 -0.0587
  982YOPC   C4A14270   2.638  15.276   6.877  0.0805 -0.0609 -0.1929
  982YOPC   C1B14271   2.827  14.747   5.958  0.1653  0.1165 -0.2280
  982YOPC   C2B14272   2.537  14.766   6.232  0.2444 -0.1391  0.0718
  982YOPC   D3B14273   2.390  14.986   6.600 -0.2400 -0.0776 -0.0321
  982YOPC   C4B14274   2.243  14.929   7.024  0.0156 -0.2959  0.3496
  983YOPC   NC314275   8.829  13.416   4.765  0.2245 -0.0687 -0.1690
  983YOPC   PO414276   9.336  13.477   4.641 -0.0889 -0.0807  0.0860
  983YOPC   GL114277   9.247  13.415   5.070 -0.1185  0.0925  0.1916
  983YOPC   GL214278   9.045  13.268   5.217  0.1366 -0.0413  0.2249
  983YOPC   C1A14279   9.580  13.608   5.319  0.1626  0.1754  0.2844
  983YOPC   D2A14280   9.390  13.855   5.517  0.1868 -0.2710 -0.0062
  983YOPC   C3A14281   9.235  13.898   5.930 -0.1774  0.4069  0.0975
  983YOPC   C4A14282   9.312  13.721   6.345  0.0341  0.0926  0.0187
  983YOPC   C1B14283   8.955  13.449   5.670 -0.3241 -0.2773 -0.1701
  983YOPC   C2B14284   8.855  13.507   6.122  0.0585  0.0571  0.3461
  983YOPC   D3B14285   9.118  13.212   6.380  0.0369  0.2358 -0.1100
  983YOPC   C4B14286   9.220  12.917   6.537 -0.0504 -0.1729 -0.0475
  984YOPC   NC314287  17.638   6.360   5.546 -0.1930  0.0285  0.1301
  984YOPC   PO414288  17.189   6.281   5.429  0.0530  0.0079 -0.1675
  984YOPC   GL114289  17.247   6.219   5.878 -0.1612  0.0250 -0.0178
  984YOPC   GL214290  17.573   6.140   5.972  0.3548 -0.1335 -0.0589
  984YOPC   C1A14291  17.297   6.167   6.379  0.0776 -0.2915  0.3362
  984YOPC   D2A14292  17.162   6.456   6.637  0.1143  0.2235 -0.2704
  984YOPC   C3A14293  17.327   6.849   6.793 -0.0796  0.1322  0.2155
  984YOPC   C4A14294  17.681   6.858   7.035  0.0280 -0.3192  0.3377
  984YOPC   C1B14295  17.738   6.309   6.385  0.0432 -0.0249 -0.2920
  984YOPC   C2B14296  17.683   6.411   6.796  0.3890 -0.0771  0.4042
  984YOPC   D3B14297  17.898   6.282   7.196 -0.0251  0.2165 -0.1712
  984YOPC   C4B14298  18.167   6.184   7.520 -0.0739  0.1213 -0.0837
  985YOPC   NC314299   1.635  12.622   4.929 -0.2100  0.5412  0.6078
  985YOPC   PO414300   1.854  13.037   5.161  0.0537  0.0744  0.2892
  985YOPC   GL114301   1.904  13.371   5.553  0.0884  0.0576  0.2393
  985YOPC   GL214302   2.203  13.535   5.593  0.0224 -0.0089  0.0321
  985YOPC   C1A14303   1.823  13.315   5.971  0.0992 -0.1054  0.1036
  985YOPC   D2A14304   1.958  13.462   6.375 -0.0859 -0.1359  0.2912
  985YOPC   C3A14305   1.869  13.734   6.758 -0.3035  0.1907  0.1556
  985YOPC   C4A14306   2.141  14.056   7.048 -0.3662  0.2380 -0.3142
  985YOPC   C1B14307   2.446  13.426   6.002  0.0549  0.1016 -0.1314
  985YOPC   C2B14308   2.452  13.521   6.361  0.2647 -0.2819 -0.4421
  985YOPC   D3B14309   2.816  13.737   6.591  0.0224 -0.0911  0.4057
  985YOPC   C4B14310   2.708  13.942   6.947  0.2871 -0.0000 -0.0018
  986YOPC   NC314311  13.515   1.808   5.346 -0.0191 -0.0794 -0.0381
  986YOPC   PO414312  13.481   1.404   5.394 -0.2495 -0.0409  0.0475
  986YOPC   GL114313  13.567   1.105   5.687 -0.0235  0.2511 -0.0733
  986YOPC   GL214314  13.906   1.148   5.817  0.2949 -0.1474 -0.0729
  986YOPC   C1A14315  13.337   0.952   6.046 -0.1806  0.1341 -0.4753
  986YOPC   D2A14316  13.208   0.585   6.249  0.0847 -0.2285  0.0439
  986YOPC   C3A14317  13.404   0.527   6.635 -0.0849 -0.3123  0.0316
  986YOPC   C4A14318  13.651   0.666   6.969  0.0467 -0.0404  0.0213
  986YOPC   C1B14319  13.757   1.254   6.134  0.2799  0.2232 -0.2927
  986YOPC   C2B14320  13.779   1.550   6.512  0.1796  0.0645  0.1866
  986YOPC   D3B14321  13.520   1.985   6.467 -0.1872  0.1736  0.0965
  986YOPC   C4B14322  13.354   2.265   6.181 -0.0863  0.0266  0.2163
  987YOPC   NC314323   0.103  13.868   5.373 -0.1480 -0.0256 -0.2566
  987YOPC   PO414324   0.245  14.286   5.364  0.1037 -0.0770  0.3404
  987YOPC   GL114325   0.202  14.305   5.777  0.2625 -0.0805 -0.2105
  987YOPC   GL214326   0.274  14.604   5.993  0.1155 -0.1222  0.0823
  987YOPC   C1A14327   0.165  14.057   6.142  0.3826  0.0113  0.2224
  987YOPC   D2A14328   0.308  14.027   6.529  0.2764 -0.0700 -0.4247
  987YOPC   C3A14329   0.050  14.077   6.983 -0.0342  0.2289  0.0210
  987YOPC   C4A14330   0.014  14.015   7.384 -0.1115  0.1144 -0.1526
  987YOPC   C1B14331   0.541  14.376   6.203  0.1543  0.2126  0.3622
  987YOPC   C2B14332   0.776  14.083   6.313 -0.0398 -0.2001 -0.2944
  987YOPC   D3B14333   0.624  13.574   6.254  0.0126 -0.0571 -0.0714
  987YOPC   C4B14334   0.582  13.200   6.470 -0.1548  0.0793  0.4487
  988YOPC   NC314335   3.378  16.139   5.135  0.2439 -0.2136 -0.1144
  988YOPC   PO414336   2.891  16.150   5.094 -0.2396 -0.1219  0.0739
  988YOPC   GL114337   2.991  16.044   5.492  0.2209 -0.2519  0.2461
  988YOPC   GL214338   2.879  16.210   5.853 -0.0121 -0.0086 -0.2259
  988YOPC   C1A14339   3.280  15.966   5.810 -0.2880 -0.0432  0.0097
  988YOPC   D2A14340   3.689  16.060   6.021 -0.1697 -0.0045 -0.0679
  988YOPC   C3A14341   3.968  15.860   5.951 -0.0258  0.2796 -0.0889
  988YOPC   C4A14342   4.224  15.861   5.641 -0.2022  0.1669 -0.1908
  988YOPC   C1B14343   2.655  16.275   6.182  0.1472 -0.1300 -0.0727
  988YOPC   C2B14344   2.334  16.159   6.394  0.0447 -0.0885  0.2474
  988YOPC   D3B14345   1.944  16.310   6.547  0.0903 -0.5956  0.1076
  988YOPC   C4B14346   1.670  16.473   6.872 -0.0308 -0.0186 -0.1146
  989YOPC   NC314347   8.343  10.710   4.908 -0.3721  0.0814  0.1140
  989YOPC   PO414348   8.781  10.623   4.982 -0.0842 -0.3792 -0.0515
  989YOPC   GL114349   8.603  10.748   5.317 -0.2182  0.2306 -0.1387
  989YOPC   GL214350   8.295  10.436   5.383 -0.0420  0.0229  0.1233
  989YOPC   C1A14351   8.644  10.710   5.768 -0.1249 -0.0358  0.1555
  989YOPC   D2A14352   8.930  10.585   6.019 -0.1317 -0.1200  0.1481
  989YOPC   C3A14353   8.856  10.385   6.398 -0.1578 -0.0980 -0.3169
  989YOPC   C4A14354   8.689  10.490   6.797  0.3163 -0.0097 -0.0731
  989YOPC   C1B14355   8.051  10.234   5.619  0.2329  0.0564  0.0067
  989YOPC   C2B14356   8.125  10.102   6.121 -0.1243  0.1301 -0.0126
  989YOPC   D3B14357   8.026  10.247   6.616 -0.1578  0.0413 -0.2037
  989YOPC   C4B14358   8.011  10.285   7.053 -0.0147  0.2145 -0.1419
  990YOPC   NC314359  15.130   6.753   5.588  0.0094 -0.0825 -0.0462
  990YOPC   PO414360  14.720   6.826   5.393  0.0040 -0.2008  0.0551
  990YOPC   GL114361  14.727   6.782   5.845 -0.0079  0.0451  0.2552
  990YOPC   GL214362  14.476   6.773   5.986 -0.2025  0.1045  0.1173
  990YOPC   C1A14363  14.876   7.048   6.283  0.0953 -0.1396  0.0473
  990YOPC   D2A14364  15.076   7.192   6.619  0.1695 -0.0476 -0.0557
  990YOPC   C3A14365  15.415   7.618   6.620  0.2297 -0.1036 -0.0726
  990YOPC   C4A14366  15.645   7.666   6.845 -0.1835 -0.0402  0.2361
  990YOPC   C1B14367  14.632   6.635   6.339 -0.1693 -0.1669 -0.0282
  990YOPC   C2B14368  14.783   6.757   6.787  0.4109  0.1898 -0.0417
  990YOPC   D3B14369  14.688   6.378   6.942  0.1157  0.3230  0.1778
  990YOPC   C4B14370  14.765   6.401   7.407 -0.3592  0.0229 -0.0296
  991YOPC   NC314371   0.700  13.382   5.791 -0.1512  0.0415  0.0908
  991YOPC   PO414372   1.093  13.546   5.687 -0.1413 -0.0654 -0.2780
  991YOPC   GL114373   1.246  13.306   6.054  0.3783 -0.1716 -0.0703
  991YOPC   GL214374   1.061  13.071   6.173  0.0306  0.0522 -0.2388
  991YOPC   C1A14375   1.233  13.367   6.496 -0.2344  0.5459 -0.3735
  991YOPC   D2A14376   1.369  13.706   6.731  0.5336  0.0752  0.2665
  991YOPC   C3A14377   1.592  14.051   7.006  0.0303 -0.1872  0.1622
  991YOPC   C4A14378   1.389  14.241   7.368 -0.0441  0.0496 -0.0065
  991YOPC   C1B14379   0.910  12.823   6.505  0.1669 -0.0792 -0.0227
  991YOPC   C2B14380   0.990  12.935   6.918  0.1599 -0.1470  0.2737
  991YOPC   D3B14381   0.860  13.344   6.888  0.1142 -0.1607 -0.1120
  991YOPC   C4B14382   0.864  13.791   6.722 -0.1894 -0.1414 -0.1653
  992YOPC   NC314383   3.145   6.520   5.306  0.0767 -0.1668  0.1405
  992YOPC   PO414384   3.239   6.839   5.637 -0.1086 -0.1210  0.0097
  992YOPC   GL114385   3.261   6.611   6.113 -0.0087  0.0061 -0.0490
  992YOPC   GL214386   2.963   6.756   6.153 -0.1740  0.0262 -0.3111
  992YOPC   C1A14387   3.009   6.214   6.410  0.1981  0.0678 -0.1379
  992YOPC   D2A14388   2.754   5.930   6.191 -0.2031  0.1554  0.1835
  992YOPC   C3A14389   2.637   5.631   6.449 -0.2434 -0.0863 -0.0439
  992YOPC   C4A14390   2.850   5.520   6.900  0.1598 -0.1346  0.2461
  992YOPC   C1B14391   2.796   6.697   6.531 -0.1727  0.0335 -0.0962
  992YOPC   C2B14392   2.586   6.470   6.908 -0.0048  0.0962  0.0009
  992YOPC   D3B14393   2.576   5.991   6.848  0.0091 -0.1116  0.1426
  992YOPC   C4B14394   2.355   5.488   6.881  0.2687  0.3464  0.1012
  993YOPC   NC314395   1.141   2.027   4.571 -0.1558  0.2503 -0.0885
  993YOPC   PO414396   0.975   1.901   4.948 -0.1183  0.0943  0.0079
  993YOPC   GL114397   1.123   1.781   5.355  0.0645  0.0555  0.2164
  993YOPC   GL214398   1.341   1.551   5.527 -0.0375  0.1143 -0.3153
  993YOPC   C1A14399   0.919   2.007   5.673 -0.2875  0.1226 -0.1882
  993YOPC   D2A14400   1.116   2.525   5.764 -0.0967  0.0959  0.1686
  993YOPC   C3A14401   1.415   2.639   6.099 -0.2343 -0.1111  0.1839
  993YOPC   C4A14402   1.569   2.906   6.405  0.2610  0.1150 -0.0808
  993YOPC   C1B14403   1.246   1.544   5.892 -0.1113 -0.0405  0.0721
  993YOPC   C2B14404   1.313   1.899   6.103  0.1590 -0.0508  0.0517
  993YOPC   D3B14405   1.002   2.274   6.233  0.2129  0.2348 -0.0830
  993YOPC   C4B14406   1.104   2.696   6.422  0.3675 -0.0794  0.0277
  994YOPC   NC314407  14.254   8.189   5.108 -0.1146  0.0473  0.1292
  994YOPC   PO414408  14.288   8.412   5.446  0.3998 -0.2089 -0.1216
  994YOPC   GL114409  14.081   8.591   5.854  0.1698 -0.2866  0.1466
  994YOPC   GL214410  14.197   8.807   5.821  0.2057  0.2787  0.0209
  994YOPC   C1A14411  13.636   8.603   6.042 -0.1113  0.5105  0.0073
  994YOPC   D2A14412  13.351   8.618   6.285  0.1355  0.0671  0.1179
  994YOPC   C3A14413  13.298   8.209   6.560 -0.1245 -0.2546 -0.1114
  994YOPC   C4A14414  13.256   7.824   6.657 -0.1503 -0.0629  0.3705
  994YOPC   C1B14415  14.372   8.850   6.205  0.1662 -0.5857 -0.0955
  994YOPC   C2B14416  14.277   8.951   6.635  0.0761 -0.2952  0.0998
  994YOPC   D3B14417  13.834   9.091   6.820 -0.1989 -0.1731  0.0630
  994YOPC   C4B14418  13.640   9.442   6.776  0.3282 -0.2446  0.0483
  995YOPC   NC314419   6.277  12.986   5.119 -0.0015  0.0647  0.0595
  995YOPC   PO414420   6.086  12.796   5.503  0.0871 -0.4048 -0.2105
  995YOPC   GL114421   6.215  12.758   5.869 -0.0950 -0.1190 -0.0847
  995YOPC   GL214422   6.528  12.932   5.973 -0.1459  0.0282  0.0390
  995YOPC   C1A14423   6.200  12.933   6.289  0.3344 -0.1258 -0.2010
  995YOPC   D2A14424   6.039  12.784   6.641 -0.1752  0.3055 -0.1158
  995YOPC   C3A14425   5.685  12.635   6.753  0.0721 -0.1024  0.0675
  995YOPC   C4A14426   5.377  12.410   6.961 -0.0374 -0.0062 -0.1836
  995YOPC   C1B14427   6.949  12.663   5.925  0.0455  0.0982 -0.0629
  995YOPC   C2B14428   7.174  12.750   6.282 -0.0401 -0.0360 -0.0864
  995YOPC   D3B14429   7.233  13.075   6.529 -0.2520 -0.1065  0.1119
  995YOPC   C4B14430   7.546  13.218   6.958  0.0281  0.0213 -0.2187
  996YOPC   NC314431  11.237  18.257   5.023  0.0992  0.2098 -0.0213
  996YOPC   PO414432  10.969  17.837   5.020 -0.0033 -0.1339 -0.1109
  996YOPC   GL114433  10.872  17.722   5.483  0.1191  0.2151  0.0962
  996YOPC   GL214434  10.998  17.511   5.619 -0.1173  0.0940 -0.2542
  996YOPC   C1A14435  10.656  17.657   5.970 -0.1961 -0.1172  0.1553
  996YOPC   D2A14436  10.801  17.460   6.251  0.0079  0.0974 -0.0519
  996YOPC   C3A14437  11.160  17.654   6.424  0.1348 -0.1029 -0.2127
  996YOPC   C4A14438  11.571  17.820   6.448 -0.0876 -0.0834  0.0237
  996YOPC   C1B14439  11.134  17.790   5.946  0.0017  0.3852  0.2300
  996YOPC   C2B14440  10.930  18.039   6.176 -0.3670 -0.0753 -0.2710
  996YOPC   D3B14441  10.706  17.915   6.597 -0.0549 -0.0301 -0.0790
  996YOPC   C4B14442  10.802  17.661   6.825  0.1555 -0.0332 -0.0341
  997YOPC   NC314443  14.247   6.771   5.536  0.1597  0.1587 -0.1070
  997YOPC   PO414444  13.983   6.411   5.632 -0.2213  0.0505 -0.2206
  997YOPC   GL114445  13.853   6.566   5.953 -0.1666 -0.0923 -0.0844
  997YOPC   GL214446  13.619   6.491   6.133 -0.1962 -0.0201 -0.1981
  997YOPC   C1A14447  14.017   6.588   6.408  0.2042 -0.0907  0.0812
  997YOPC   D2A14448  14.208   6.676   6.714  0.0298  0.1352  0.1198
  997YOPC   C3A14449  14.205   6.490   7.183  0.0641  0.3170 -0.0258
  997YOPC   C4A14450  14.340   6.566   7.623  0.0431 -0.0209 -0.0308
  997YOPC   C1B14451  13.355   6.445   6.339  0.0869 -0.3656 -0.0560
  997YOPC   C2B14452  13.230   6.531   6.735  0.2256  0.0928 -0.1710
  997YOPC   D3B14453  13.404   6.418   7.196 -0.1380 -0.3471 -0.0789
  997YOPC   C4B14454  13.142   6.286   7.500 -0.1364  0.2426 -0.1738
  998YOPC   NC314455  13.715   4.870   5.721 -0.2448 -0.0293 -0.3337
  998YOPC   PO414456  14.109   4.607   5.587 -0.2103 -0.0554  0.1393
  998YOPC   GL114457  14.261   4.615   6.016 -0.0537  0.0325 -0.0519
  998YOPC   GL214458  13.954   4.807   6.133 -0.2453  0.3297 -0.1459
  998YOPC   C1A14459  14.441   4.364   6.434  0.2455 -0.0037  0.0632
  998YOPC   D2A14460  14.659   4.431   6.703 -0.0985 -0.2323  0.3317
  998YOPC   C3A14461  14.978   4.207   7.002 -0.0645 -0.0686  0.2922
  998YOPC   C4A14462  15.317   4.318   7.214 -0.2090  0.0329 -0.2249
  998YOPC   C1B14463  14.290   4.913   6.427 -0.1116 -0.0534  0.0824
  998YOPC   C2B14464  14.476   5.020   6.881  0.0342  0.1912  0.3186
  998YOPC   D3B14465  14.428   4.721   7.227 -0.2171  0.1513 -0.2562
  998YOPC   C4B14466  14.390   4.357   7.153 -0.5006 -0.1199 -0.2379
  999YOPC   NC314467  16.033   1.455   5.435 -0.1506 -0.1180  0.2648
  999YOPC   PO414468  15.625   1.497   5.524  0.0260 -0.0320  0.0341
  999YOPC   GL114469  15.483   1.373   5.911 -0.2528  0.3167 -0.3372
  999YOPC   GL214470  15.297   1.016   5.970  0.2971  0.1526  0.0638
  999YOPC   C1A14471  15.579   1.395   6.360  0.0749  0.3415  0.2936
  999YOPC   D2A14472  15.305   1.443   6.761 -0.0006 -0.0423  0.1175
  999YOPC   C3A14473  15.522   1.512   7.160 -0.1557  0.1217  0.0539
  999YOPC   C4A14474  15.456   1.573   7.556  0.0682 -0.3138  0.0373
  999YOPC   C1B14475  15.503   0.859   6.433  0.1547 -0.0320  0.0557
  999YOPC   C2B14476  15.385   0.540   6.523 -0.3142  0.4356 -0.1154
  999YOPC   D3B14477  15.651   0.169   6.702 -0.0367  0.1264 -0.0199
  999YOPC   C4B14478  15.827  -0.207   6.846  0.0175  0.2679  0.0504
 1000YOPC   NC314479   3.805   2.562   3.994 -0.3965 -0.0546  0.0752
 1000YOPC   PO414480   3.805   2.636   4.510 -0.1798  0.1271 -0.1187
 1000YOPC   GL114481   3.705   2.765   5.013  0.1254  0.0132  0.0452
 1000YOPC   GL214482   3.446   3.014   5.205 -0.1646 -0.0615 -0.1345
 1000YOPC   C1A14483   3.769   2.554   5.454 -0.1632 -0.2868 -0.2923
 1000YOPC   D2A14484   3.631   2.484   5.893 -0.1458  0.1884 -0.1358
 1000YOPC   C3A14485   3.294   2.746   5.685  0.1696  0.4696  0.1309
 1000YOPC   C4A14486   3.192   3.196   5.676 -0.0234 -0.2619 -0.1156
 1000YOPC   C1B14487   3.777   3.170   5.435  0.1196 -0.1207 -0.3570
 1000YOPC   C2B14488   3.733   3.041   5.899  0.2022  0.0308  0.1102
 1000YOPC   D3B14489   4.076   3.127   6.244  0.2126  0.2167  0.1995
 1000YOPC   C4B14490   4.228   3.306   6.585 -0.1886 -0.1447 -0.0845
 1001YOPC   NC314491  18.487   7.729   5.546  0.2717 -0.0097  0.3102
 1001YOPC   PO414492  18.762   7.991   5.817  0.0621 -0.1568 -0.0772
 1001YOPC   GL114493  18.773   8.133   6.199 -0.0216 -0.5104  0.1260
 1001YOPC   GL214494  19.168   8.256   6.239 -0.1242 -0.4085 -0.0014
 1001YOPC   C1A14495  18.911   8.166   6.653 -0.4059  0.3055 -0.1906
 1001YOPC   D2A14496  19.242   8.056   6.832  0.0216  0.3265  0.0625
 1001YOPC   C3A14497  19.266   7.722   7.191 -0.1243  0.2577  0.0651
 1001YOPC   C4A14498  19.339   7.339   7.476  0.3234  0.4761  0.0867
 1001YOPC   C1B14499  19.455   8.043   6.379  0.3524 -0.2515 -0.1627
 1001YOPC   C2B14500  19.850   7.878   6.447 -0.0187  0.1530  0.0722
 1001YOPC   D3B14501  20.113   7.920   6.713 -0.1618  0.1829  0.1251
 1001YOPC   C4B14502  20.294   7.824   7.094 -0.2005 -0.1226 -0.2986
 1002YOPC   NC314503  11.436   4.382   4.734 -0.1671  0.1146 -0.1900
 1002YOPC   PO414504  11.154   4.267   5.003  0.1292  0.3007 -0.0606
 1002YOPC   GL114505  10.954   4.362   5.396 -0.3148 -0.0904 -0.0750
 1002YOPC   GL214506  11.158   4.579   5.563  0.0659 -0.2005  0.1140
 1002YOPC   C1A14507  10.760   4.311   5.761  0.3156 -0.0901 -0.0066
 1002YOPC   D2A14508  10.463   4.545   6.097  0.0173  0.0799 -0.2690
 1002YOPC   C3A14509  10.412   4.545   6.566  0.0601  0.2140  0.1426
 1002YOPC   C4A14510  10.141   4.180   6.738 -0.1347  0.0922  0.0719
 1002YOPC   C1B14511  11.133   4.723   5.908 -0.1053  0.0242 -0.1462
 1002YOPC   C2B14512  11.396   4.807   6.210 -0.0149 -0.1921 -0.1147
 1002YOPC   D3B14513  11.463   4.438   6.376  0.4156  0.1351 -0.1012
 1002YOPC   C4B14514  11.602   4.232   6.620 -0.2888 -0.0122  0.2656
 1003YOPC   NC314515   7.448   4.476   4.679 -0.2057  0.0713 -0.1910
 1003YOPC   PO414516   7.683   4.776   4.797 -0.2904  0.0002 -0.0328
 1003YOPC   GL114517   7.703   4.635   5.252 -0.0376  0.0562  0.0699
 1003YOPC   GL214518   8.025   4.590   5.315 -0.1222  0.1282 -0.1861
 1003YOPC   C1A14519   7.563   4.528   5.672 -0.1360 -0.4051  0.3659
 1003YOPC   D2A14520   7.223   4.213   5.676  0.2919  0.2163  0.2310
 1003YOPC   C3A14521   6.891   4.296   5.942  0.0024 -0.2234  0.5248
 1003YOPC   C4A14522   6.769   4.239   6.341 -0.0129  0.0745  0.3727
 1003YOPC   C1B14523   8.086   4.613   5.731  0.0649 -0.0131  0.4144
 1003YOPC   C2B14524   7.996   4.894   6.062  0.1309  0.0062  0.3129
 1003YOPC   D3B14525   8.093   5.242   6.207 -0.2610 -0.0722  0.2804
 1003YOPC   C4B14526   8.449   5.303   6.400 -0.0830 -0.0880 -0.1657
 1004YOPC   NC314527   5.133   7.411   5.156 -0.2852  0.0934 -0.1800
 1004YOPC   PO414528   5.051   7.025   5.393  0.0427  0.2746  0.1477
 1004YOPC   GL114529   5.131   6.926   5.809 -0.1542  0.4680  0.1408
 1004YOPC   GL214530   5.401   6.724   5.763 -0.5167 -0.0647  0.0183
 1004YOPC   C1A14531   5.041   6.886   6.229 -0.2236 -0.2589  0.1754
 1004YOPC   D2A14532   4.813   6.607   6.349 -0.0518  0.2423 -0.4613
 1004YOPC   C3A14533   5.080   6.272   6.350  0.2036 -0.1085 -0.2033
 1004YOPC   C4A14534   5.528   6.193   6.340 -0.3622 -0.1993 -0.1770
 1004YOPC   C1B14535   5.501   6.768   6.188  0.1516 -0.0854  0.0916
 1004YOPC   C2B14536   5.196   6.773   6.656  0.1670 -0.0839 -0.0156
 1004YOPC   D3B14537   5.343   6.463   6.850  0.1469  0.1393 -0.1398
 1004YOPC   C4B14538   5.361   6.124   7.162  0.1908 -0.0457  0.2211
 1005YOPC   NC314539   2.196  15.814   4.806 -0.3276  0.2196 -0.0247
 1005YOPC   PO414540   2.239  15.525   5.217 -0.1143  0.2060 -0.0046
 1005YOPC   GL114541   2.672  15.432   5.478 -0.3767 -0.1284 -0.4238
 1005YOPC   GL214542   2.815  15.241   5.373  0.0826 -0.0726  0.1694
 1005YOPC   C1A14543   2.891  15.671   5.775  0.4204  0.0971 -0.2559
 1005YOPC   D2A14544   2.790  15.772   6.221 -0.1537  0.5216 -0.0144
 1005YOPC   C3A14545   3.065  16.097   6.419  0.0191 -0.0107  0.0126
 1005YOPC   C4A14546   3.304  16.387   6.825 -0.1259 -0.0614  0.2179
 1005YOPC   C1B14547   3.030  15.137   5.737  0.0173 -0.0860 -0.1224
 1005YOPC   C2B14548   3.228  14.980   6.141 -0.1582  0.0518  0.1117
 1005YOPC   D3B14549   3.018  14.965   6.542  0.4027 -0.1288  0.1219
 1005YOPC   C4B14550   3.122  14.797   6.883 -0.1731  0.0985  0.2462
 1006YOPC   NC314551  10.029   6.842   5.362 -0.2366  0.0885  0.3452
 1006YOPC   PO414552  10.470   7.071   5.273  0.1423  0.1361 -0.0338
 1006YOPC   GL114553  10.583   7.281   5.496 -0.1224  0.0130  0.1651
 1006YOPC   GL214554  10.599   7.576   5.424 -0.2462 -0.1733  0.0412
 1006YOPC   C1A14555  10.698   7.345   5.952  0.2665 -0.0006 -0.2048
 1006YOPC   D2A14556  10.863   7.465   6.289  0.0601  0.5514  0.2051
 1006YOPC   C3A14557  11.210   7.576   6.276 -0.1194 -0.2561 -0.0471
 1006YOPC   C4A14558  11.405   7.961   6.228  0.2352  0.0107 -0.1224
 1006YOPC   C1B14559  11.048   7.448   5.622  0.2461  0.0290  0.1183
 1006YOPC   C2B14560  11.170   7.137   5.877 -0.1839 -0.1942 -0.3016
 1006YOPC   D3B14561  11.442   7.035   6.201 -0.1125  0.1239  0.3638
 1006YOPC   C4B14562  11.334   7.035   6.671 -0.1426 -0.1988 -0.0272
 1007YOPC   NC314563   9.821  11.428   5.115 -0.0299 -0.3259  0.3505
 1007YOPC   PO414564   9.514  11.606   5.325  0.0735  0.1720 -0.0043
 1007YOPC   GL114565   9.403  11.784   5.740 -0.2933  0.0463  0.0405
 1007YOPC   GL214566   9.557  12.019   5.596 -0.0172 -0.4183  0.4231
 1007YOPC   C1A14567   9.225  11.800   6.177  0.2351  0.0611 -0.2830
 1007YOPC   D2A14568   8.919  11.866   6.371  0.0092 -0.2528  0.1243
 1007YOPC   C3A14569   8.570  11.657   6.191  0.1741  0.0961  0.0278
 1007YOPC   C4A14570   8.248  11.584   6.221 -0.3161 -0.0393  0.0432
 1007YOPC   C1B14571   9.766  11.893   6.031 -0.2601  0.1048 -0.1392
 1007YOPC   C2B14572   9.736  11.796   6.457 -0.0003  0.0591 -0.0834
 1007YOPC   D3B14573  10.134  11.624   6.579  0.1294 -0.1069 -0.0011
 1007YOPC   C4B14574  10.626  11.687   6.868  0.0595  0.1201  0.4335
 1008YOPC   NC314575  15.938   4.593   5.403  0.0871  0.0387 -0.2389
 1008YOPC   PO414576  16.183   4.441   5.758 -0.2260 -0.3326 -0.4804
 1008YOPC   GL114577  16.023   4.042   5.980  0.2413  0.4166 -0.3224
 1008YOPC   GL214578  16.367   4.038   5.990  0.2700 -0.1111 -0.1974
 1008YOPC   C1A14579  15.992   3.902   6.426  0.0491 -0.0835  0.1673
 1008YOPC   D2A14580  16.206   3.745   6.757  0.0860  0.1627 -0.2374
 1008YOPC   C3A14581  16.016   3.654   7.204 -0.0718 -0.2327 -0.1166
 1008YOPC   C4A14582  15.598   3.824   7.341  0.0790  0.1272  0.3547
 1008YOPC   C1B14583  16.452   3.800   6.209  0.3011  0.0364 -0.1416
 1008YOPC   C2B14584  16.748   3.639   6.628 -0.0040  0.0279  0.0716
 1008YOPC   D3B14585  16.689   3.830   7.054  0.1123 -0.0344 -0.0749
 1008YOPC   C4B14586  16.756   4.135   7.389  0.2165  0.0337 -0.0704
 1009YOPC   NC314587  16.379   0.776   5.805  0.2486 -0.1062  0.2326
 1009YOPC   PO414588  16.094   0.456   5.776  0.0586  0.1983  0.0985
 1009YOPC   GL114589  16.245   0.322   6.038 -0.2060 -0.1729 -0.1634
 1009YOPC   GL214590  16.524   0.161   6.079  0.0187 -0.0997 -0.2005
 1009YOPC   C1A14591  16.115   0.438   6.477 -0.2313  0.1686  0.1377
 1009YOPC   D2A14592  16.021   0.684   6.856  0.3467  0.1093 -0.0162
 1009YOPC   C3A14593  16.156   0.972   7.215 -0.2391  0.3037  0.2755
 1009YOPC   C4A14594  15.958   1.263   7.444 -0.2286  0.0452 -0.0294
 1009YOPC   C1B14595  16.515   0.064   6.505  0.0530 -0.4500  0.0351
 1009YOPC   C2B14596  16.796   0.157   6.929 -0.3290  0.1723  0.0030
 1009YOPC   D3B14597  16.990   0.555   7.107  0.2597 -0.2219 -0.1904
 1009YOPC   C4B14598  17.165   0.960   7.062 -0.3790  0.1316  0.1346
 1010YOPC   NC314599   2.360   2.570   5.099 -0.0815 -0.0675  0.0968
 1010YOPC   PO414600   1.963   2.279   5.320 -0.1963 -0.1686 -0.0528
 1010YOPC   GL114601   2.158   2.221   5.727  0.1224 -0.1402 -0.3469
 1010YOPC   GL214602   2.234   1.913   5.755 -0.3320  0.0602 -0.4998
 1010YOPC   C1A14603   2.004   2.447   6.065 -0.2380 -0.3344 -0.1141
 1010YOPC   D2A14604   2.293   2.666   6.411  0.2742 -0.2377  0.0888
 1010YOPC   C3A14605   1.975   2.821   6.714 -0.0185  0.0941  0.1583
 1010YOPC   C4A14606   2.095   3.079   7.059 -0.2033  0.0381  0.0576
 1010YOPC   C1B14607   2.676   2.055   5.821  0.0172  0.1949 -0.1847
 1010YOPC   C2B14608   2.915   2.397   5.937 -0.2034  0.0357 -0.0816
 1010YOPC   D3B14609   3.224   2.526   6.169  0.2241  0.1571  0.2800
 1010YOPC   C4B14610   3.331   2.983   6.193 -0.2287 -0.2502 -0.2709
 1011YOPC   NC314611  15.103  13.404   5.245  0.0890 -0.1081 -0.2698
 1011YOPC   PO414612  14.787  13.722   5.357  0.1058 -0.0841  0.1741
 1011YOPC   GL114613  14.936  13.756   5.764  0.0569 -0.1966 -0.0985
 1011YOPC   GL214614  14.634  13.681   5.934  0.3666 -0.3013 -0.0070
 1011YOPC   C1A14615  15.246  13.816   6.019 -0.2233 -0.3463 -0.0574
 1011YOPC   D2A14616  15.429  13.622   6.337 -0.0540  0.1169  0.1044
 1011YOPC   C3A14617  15.209  13.482   6.692 -0.1206  0.0260  0.0770
 1011YOPC   C4A14618  15.108  13.139   6.798 -0.0446  0.0322  0.5071
 1011YOPC   C1B14619  14.299  13.604   6.240 -0.1533 -0.2029  0.1037
 1011YOPC   C2B14620  14.019  13.310   6.437  0.3127  0.0300 -0.1555
 1011YOPC   D3B14621  13.918  13.286   6.825  0.2631 -0.1368 -0.1484
 1011YOPC   C4B14622  13.978  13.299   7.299 -0.0284 -0.4845 -0.1173
 1012YOPC   NC314623   8.137  19.261   5.167  0.1515  0.0868  0.0463
 1012YOPC   PO414624   7.770  19.418   5.065 -0.1975  0.0726  0.5145
 1012YOPC   GL114625   7.603  19.286   5.407  0.2631  0.0853  0.0749
 1012YOPC   GL214626   7.818  19.427   5.584 -0.0389  0.0883 -0.0240
 1012YOPC   C1A14627   7.290  19.201   5.863 -0.0800  0.2368  0.0629
 1012YOPC   D2A14628   7.201  19.071   6.360 -0.4767  0.3431 -0.0256
 1012YOPC   C3A14629   7.165  19.243   6.825 -0.0096 -0.1645 -0.1666
 1012YOPC   C4A14630   7.094  19.606   7.088  0.3948 -0.1928  0.2471
 1012YOPC   C1B14631   7.709  19.426   6.018 -0.2545 -0.2256 -0.1309
 1012YOPC   C2B14632   7.734  19.215   6.375 -0.2901 -0.0570 -0.1660
 1012YOPC   D3B14633   7.534  19.441   6.517  0.0523 -0.0221  0.1647
 1012YOPC   C4B14634   7.222  19.726   6.613 -0.0515 -0.0209 -0.1031
 1013YOPC   NC314635   5.633   9.685   5.405  0.2674  0.1589  0.1896
 1013YOPC   PO414636   5.982   9.400   5.316  0.3869 -0.1398 -0.0710
 1013YOPC   GL114637   6.142   9.544   5.778 -0.2979 -0.0111  0.0878
 1013YOPC   GL214638   5.876   9.765   5.852  0.1100  0.0524  0.1532
 1013YOPC   C1A14639   6.116   9.642   6.229  0.1048 -0.2917 -0.4006
 1013YOPC   D2A14640   6.183   9.807   6.517  0.0566  0.1856  0.1710
 1013YOPC   C3A14641   6.181   9.473   6.862 -0.1731 -0.0086  0.3669
 1013YOPC   C4A14642   6.084   9.117   7.133 -0.0426 -0.0990 -0.2789
 1013YOPC   C1B14643   5.719   9.956   6.219 -0.1882 -0.1373 -0.2470
 1013YOPC   C2B14644   5.737   9.927   6.636  0.1451 -0.0287  0.0402
 1013YOPC   D3B14645   5.960  10.126   6.944  0.0378  0.1456  0.0018
 1013YOPC   C4B14646   5.980   9.736   7.293 -0.3522 -0.0691  0.2164
 1014YOPC   NC314647  13.497  18.741   4.769  0.1096  0.1420 -0.0777
 1014YOPC   PO414648  13.086  18.956   4.911  0.1568 -0.1438  0.2638
 1014YOPC   GL114649  13.437  18.980   5.255 -0.3642 -0.1740 -0.3509
 1014YOPC   GL214650  13.704  19.153   5.324 -0.0083  0.2088  0.1130
 1014YOPC   C1A14651  13.454  18.755   5.611  0.0409  0.0814  0.1563
 1014YOPC   D2A14652  13.277  18.928   5.967  0.0158 -0.2567 -0.2903
 1014YOPC   C3A14653  12.833  18.986   6.171  0.0674 -0.0359 -0.0938
 1014YOPC   C4A14654  12.714  18.777   6.381  0.2815  0.1146 -0.0934
 1014YOPC   C1B14655  13.679  19.439   5.582 -0.0040 -0.1312 -0.1468
 1014YOPC   C2B14656  13.905  19.543   5.950  0.0020 -0.2874 -0.3107
 1014YOPC   D3B14657  14.177  19.233   6.187 -0.0417 -0.0360  0.0564
 1014YOPC   C4B14658  14.209  18.799   6.102  0.0481 -0.0242  0.2548
 1015YOPC   NC314659  10.099   5.272   5.096  0.4209  0.0597 -0.0593
 1015YOPC   PO414660  10.489   5.077   5.088 -0.0078  0.2194 -0.0354
 1015YOPC   GL114661  10.303   5.128   5.504 -0.1240  0.1078  0.2923
 1015YOPC   GL214662  10.598   5.227   5.773 -0.0918  0.1364 -0.1778
 1015YOPC   C1A14663  10.227   4.949   5.894 -0.0877  0.0384 -0.0264
 1015YOPC   D2A14664  10.286   5.008   6.326 -0.0528  0.3563 -0.0480
 1015YOPC   C3A14665  10.227   5.510   6.578 -0.3709 -0.1240 -0.0265
 1015YOPC   C4A14666   9.907   5.755   6.551 -0.2463 -0.0544  0.0489
 1015YOPC   C1B14667  10.776   5.279   6.121 -0.0302 -0.1377 -0.1018
 1015YOPC   C2B14668  10.685   5.247   6.530  0.0347 -0.1763  0.0582
 1015YOPC   D3B14669  11.058   5.407   6.771  0.1260  0.0472 -0.1485
 1015YOPC   C4B14670  11.440   5.641   6.708 -0.0618  0.2391 -0.1167
 1016YOPC   NC314671  17.725   2.364   5.539 -0.0868  0.0181  0.0255
 1016YOPC   PO414672  17.590   1.899   5.437  0.1587  0.0936 -0.4548
 1016YOPC   GL114673  17.531   1.943   5.900 -0.3476  0.0617  0.2685
 1016YOPC   GL214674  17.342   2.161   5.970  0.1106  0.3547  0.0045
 1016YOPC   C1A14675  17.443   1.845   6.448  0.2476 -0.5499  0.1340
 1016YOPC   D2A14676  17.473   1.817   6.847 -0.2035 -0.1263 -0.2854
 1016YOPC   C3A14677  17.446   1.721   7.396 -0.1291  0.0052  0.0543
 1016YOPC   C4A14678  17.385   1.984   7.736 -0.1983 -0.0239 -0.4316
 1016YOPC   C1B14679  17.269   2.513   6.335  0.4335 -0.0859 -0.1182
 1016YOPC   C2B14680  16.945   2.673   6.622 -0.1653 -0.0053 -0.4330
 1016YOPC   D3B14681  16.531   2.419   6.493  0.1913 -0.0902  0.0356
 1016YOPC   C4B14682  16.253   2.160   6.682 -0.3077 -0.2030  0.0549
 1017YOPC   NC314683  12.175   5.386   5.545 -0.0232 -0.0307 -0.3257
 1017YOPC   PO414684  12.513   5.320   5.411 -0.0661  0.0655 -0.0190
 1017YOPC   GL114685  12.633   5.083   5.816 -0.0278 -0.0403  0.2357
 1017YOPC   GL214686  12.502   5.334   6.069  0.2182  0.0433 -0.1859
 1017YOPC   C1A14687  12.885   5.019   6.233  0.3378  0.0466  0.1385
 1017YOPC   D2A14688  12.939   4.897   6.723 -0.0288  0.1133 -0.2230
 1017YOPC   C3A14689  12.683   4.954   7.017  0.1021 -0.2775  0.1558
 1017YOPC   C4A14690  12.403   4.915   7.380  0.0531 -0.0822 -0.2159
 1017YOPC   C1B14691  12.288   5.090   6.250  0.1472 -0.2024  0.1095
 1017YOPC   C2B14692  12.185   4.911   6.500  0.1830 -0.1193  0.0183
 1017YOPC   D3B14693  11.964   4.637   6.272  0.2373  0.1162  0.0889
 1017YOPC   C4B14694  11.649   4.480   5.810 -0.2209 -0.4412  0.0204
 1018YOPC   NC314695   0.627   4.926   5.541  0.2446 -0.5540 -0.0682
 1018YOPC   PO414696   0.686   5.389   5.807 -0.1286 -0.0293  0.0068
 1018YOPC   GL114697   0.786   5.479   6.259 -0.0649  0.3864  0.1405
 1018YOPC   GL214698   0.658   5.759   6.390 -0.0549 -0.1011 -0.1981
 1018YOPC   C1A14699   0.756   5.328   6.677  0.0037 -0.2632 -0.2664
 1018YOPC   D2A14700   0.937   5.171   7.023 -0.2334 -0.5725  0.1530
 1018YOPC   C3A14701   0.949   5.404   7.379  0.1379  0.0339 -0.2687
 1018YOPC   C4A14702   0.822   5.475   7.757  0.2321  0.0428  0.1037
 1018YOPC   C1B14703   0.970   5.891   6.701 -0.3153  0.1896 -0.2750
 1018YOPC   C2B14704   1.096   5.902   7.110  0.2104  0.3232 -0.0730
 1018YOPC   D3B14705   0.996   6.215   7.377 -0.1449  0.0141  0.0685
 1018YOPC   C4B14706   0.799   6.363   7.702  0.2914 -0.1770 -0.1129
 1019YOPC   NC314707   9.800  10.003   4.570 -0.1046  0.2649 -0.1703
 1019YOPC   PO414708   9.519  10.128   5.007  0.2848 -0.3665 -0.0415
 1019YOPC   GL114709   9.499  10.107   5.350  0.2037 -0.2016  0.0621
 1019YOPC   GL214710   9.200   9.943   5.388  0.0634  0.1852  0.2192
 1019YOPC   C1A14711   9.590  10.006   5.752  0.2896  0.1410  0.1967
 1019YOPC   D2A14712   9.709  10.036   6.241 -0.3976  0.0340 -0.0049
 1019YOPC   C3A14713   9.978  10.117   6.354  0.1158 -0.0336 -0.0385
 1019YOPC   C4A14714  10.338  10.206   6.275 -0.3183  0.1023  0.0689
 1019YOPC   C1B14715   9.053  10.070   5.885  0.0996  0.1089 -0.0152
 1019YOPC   C2B14716   9.123   9.952   6.420  0.1065  0.1303  0.0450
 1019YOPC   D3B14717   8.824   9.934   6.774  0.1623  0.1665 -0.0250
 1019YOPC   C4B14718   8.422  10.009   6.890 -0.0954 -0.2031 -0.4399
 1020YOPC   NC314719   7.036   8.472   4.983 -0.2063  0.1985 -0.0705
 1020YOPC   PO414720   7.383   8.518   5.149 -0.3596  0.0777  0.0605
 1020YOPC   GL114721   7.544   8.672   5.538  0.3009  0.2646  0.0771
 1020YOPC   GL214722   7.530   9.012   5.495  0.3718 -0.0098  0.1102
 1020YOPC   C1A14723   7.403   8.603   5.938 -0.1459 -0.0892 -0.1977
 1020YOPC   D2A14724   7.079   8.540   6.140  0.2204  0.0642 -0.1366
 1020YOPC   C3A14725   6.719   8.739   6.083 -0.3357 -0.1689 -0.0224
 1020YOPC   C4A14726   6.279   8.663   6.090 -0.3944  0.1051 -0.2849
 1020YOPC   C1B14727   7.638   9.086   5.832  0.2916 -0.1103 -0.1877
 1020YOPC   C2B14728   7.389   9.013   6.188  0.2569 -0.0143  0.2283
 1020YOPC   D3B14729   7.421   9.181   6.579  0.1041  0.2435  0.0253
 1020YOPC   C4B14730   7.753   9.295   6.820  0.0695 -0.0069  0.2673
 1021YOPC   NC314731   1.892   6.444   5.719 -0.1613 -0.1093  0.0621
 1021YOPC   PO414732   2.204   6.176   5.874 -0.2926 -0.2207  0.0669
 1021YOPC   GL114733   2.047   6.387   6.187 -0.0938 -0.0230  0.0712
 1021YOPC   GL214734   1.795   6.461   6.230 -0.2208 -0.1488 -0.0511
 1021YOPC   C1A14735   1.989   6.401   6.670 -0.1534  0.3022 -0.1665
 1021YOPC   D2A14736   2.087   6.012   6.948  0.0717 -0.5693  0.0728
 1021YOPC   C3A14737   2.291   6.085   7.336 -0.0260 -0.1151 -0.1012
 1021YOPC   C4A14738   2.335   6.375   7.529 -0.2842  0.0130 -0.1046
 1021YOPC   C1B14739   1.473   6.568   6.375 -0.1481  0.1280  0.1967
 1021YOPC   C2B14740   1.129   6.513   6.629 -0.1951 -0.0226 -0.1498
 1021YOPC   D3B14741   0.788   6.359   6.899 -0.2900  0.0512  0.0019
 1021YOPC   C4B14742   0.515   6.437   7.277 -0.5409  0.0568 -0.1253
 1022YOPC   NC314743   8.111   2.656   5.043 -0.2689  0.4615  0.0114
 1022YOPC   PO414744   8.504   2.886   5.114  0.0787 -0.3009  0.0117
 1022YOPC   GL114745   8.283   2.864   5.495 -0.1824  0.0087 -0.0632
 1022YOPC   GL214746   8.268   2.503   5.606  0.0900  0.0082  0.0170
 1022YOPC   C1A14747   7.944   3.222   5.606 -0.1352 -0.2034 -0.3451
 1022YOPC   D2A14748   7.844   3.256   6.014 -0.0840  0.0275  0.0523
 1022YOPC   C3A14749   8.171   3.514   6.055  0.0333 -0.1869  0.1945
 1022YOPC   C4A14750   8.549   3.703   6.164  0.1335  0.0082  0.1511
 1022YOPC   C1B14751   7.919   2.744   5.961  0.1397  0.4315 -0.0798
 1022YOPC   C2B14752   7.761   2.918   6.412 -0.2153 -0.0110 -0.5042
 1022YOPC   D3B14753   7.865   3.263   6.614  0.1636 -0.0508 -0.2731
 1022YOPC   C4B14754   7.870   3.794   6.710  0.0701  0.2275  0.1931
 1023YOPC   NC314755   7.103   9.381   5.456  0.0828 -0.2604 -0.3309
 1023YOPC   PO414756   6.980   9.669   5.161 -0.4270 -0.0712 -0.0374
 1023YOPC   GL114757   6.898   9.899   5.457 -0.2915  0.0068  0.1471
 1023YOPC   GL214758   6.912  10.278   5.596 -0.2211 -0.2219  0.0479
 1023YOPC   C1A14759   6.801   9.841   5.801 -0.1697  0.0283 -0.2229
 1023YOPC   D2A14760   6.602   9.752   6.221 -0.0831 -0.0174  0.2028
 1023YOPC   C3A14761   6.616  10.161   6.534 -0.1558 -0.2041 -0.3844
 1023YOPC   C4A14762   6.404  10.122   7.046 -0.2181  0.2754  0.0043
 1023YOPC   C1B14763   7.116  10.248   5.955  0.1201  0.5234  0.0172
 1023YOPC   C2B14764   7.108  10.312   6.396  0.1443 -0.1135 -0.3405
 1023YOPC   D3B14765   7.224  10.673   6.476 -0.0250 -0.1884  0.3584
 1023YOPC   C4B14766   7.592  10.906   6.708  0.1843 -0.1460 -0.0966
 1024YOPC   NC314767   5.865   3.527   4.459 -0.0024 -0.0481  0.1745
 1024YOPC   PO414768   5.341   3.571   4.631 -0.1505 -0.2590  0.1701
 1024YOPC   GL114769   5.200   3.523   5.117  0.1320 -0.3209 -0.0325
 1024YOPC   GL214770   5.422   3.566   5.233  0.2115  0.1716 -0.0974
 1024YOPC   C1A14771   5.079   3.347   5.519 -0.1200  0.1503  0.0939
 1024YOPC   D2A14772   5.249   3.227   5.858 -0.0640 -0.0065  0.1076
 1024YOPC   C3A14773   4.970   3.128   6.201  0.3440  0.2146 -0.2282
 1024YOPC   C4A14774   4.958   2.793   6.492 -0.0638  0.1400 -0.0957
 1024YOPC   C1B14775   5.621   3.558   5.672 -0.1254 -0.3478  0.1176
 1024YOPC   C2B14776   5.984   3.756   5.861  0.1321 -0.0277 -0.0013
 1024YOPC   D3B14777   5.914   4.133   6.080 -0.2348 -0.1426  0.0229
 1024YOPC   C4B14778   5.728   4.498   6.170  0.0827  0.0351 -0.0183
 1025YOPC   NC314779   4.274   8.636   5.016  0.1310  0.1836 -0.2201
 1025YOPC   PO414780   4.350   8.886   5.401 -0.3051 -0.2323  0.1450
 1025YOPC   GL114781   4.139   8.820   5.737  0.2105  0.1745 -0.2290
 1025YOPC   GL214782   4.021   9.109   5.815 -0.0544  0.0324 -0.1591
 1025YOPC   C1A14783   4.255   8.818   6.194  0.0242  0.1117 -0.0017
 1025YOPC   D2A14784   4.364   8.630   6.678 -0.0795  0.3555  0.2258
 1025YOPC   C3A14785   4.430   8.112   6.706 -0.3310 -0.0953  0.0800
 1025YOPC   C4A14786   4.531   7.638   6.719 -0.3183 -0.1790 -0.1041
 1025YOPC   C1B14787   3.667   9.171   6.090 -0.1522 -0.0107  0.4239
 1025YOPC   C2B14788   3.229   9.237   6.172 -0.2468  0.0937 -0.1320
 1025YOPC   D3B14789   3.082   9.396   6.556  0.1248 -0.1379 -0.0154
 1025YOPC   C4B14790   3.244   9.431   6.999 -0.0728  0.1217  0.0621
 1026YOPC   NC314791   4.844  13.199   5.155  0.3483 -0.1153 -0.0875
 1026YOPC   PO414792   4.398  13.273   4.974  0.1492  0.1133 -0.0082
 1026YOPC   GL114793   4.343  13.453   5.443  0.3800 -0.0413 -0.1162
 1026YOPC   GL214794   4.114  13.514   5.575 -0.1021 -0.3397  0.3148
 1026YOPC   C1A14795   4.550  13.700   5.706  0.0471 -0.1592  0.0706
 1026YOPC   D2A14796   4.540  13.831   6.141  0.2119 -0.0709  0.2559
 1026YOPC   C3A14797   4.173  13.932   6.360  0.0876 -0.0284 -0.1235
 1026YOPC   C4A14798   3.739  14.141   6.377 -0.2690  0.0362 -0.0134
 1026YOPC   C1B14799   4.114  13.946   5.822 -0.1390  0.1355  0.2019
 1026YOPC   C2B14800   4.284  14.192   5.961  0.2938  0.0608 -0.4517
 1026YOPC   D3B14801   4.198  14.436   6.271 -0.1516 -0.3946  0.0534
 1026YOPC   C4B14802   4.563  14.723   6.490 -0.3176 -0.0307  0.1617
 1027YOPC   NC314803   0.412  18.712   5.402  0.0948 -0.0162  0.2325
 1027YOPC   PO414804  -0.027  19.052   5.406 -0.3976  0.1704  0.1925
 1027YOPC   GL114805   0.109  19.132   5.766 -0.3419 -0.3782  0.0186
 1027YOPC   GL214806   0.050  19.389   5.809  0.2590 -0.0118 -0.0996
 1027YOPC   C1A14807   0.352  19.115   6.077  0.1470 -0.1785  0.0032
 1027YOPC   D2A14808   0.354  18.894   6.438  0.1094 -0.0453  0.0028
 1027YOPC   C3A14809   0.063  18.797   6.734  0.1336  0.2097 -0.2820
 1027YOPC   C4A14810   0.013  18.751   7.212  0.1615  0.3280  0.2169
 1027YOPC   C1B14811   0.402  19.641   6.134 -0.2984  0.0882 -0.3230
 1027YOPC   C2B14812   0.565  19.480   6.561 -0.4040 -0.0953  0.1439
 1027YOPC   D3B14813   0.237  19.207   6.869 -0.1025 -0.1610 -0.1496
 1027YOPC   C4B14814  -0.142  19.199   7.070  0.1530  0.1245  0.1355
 1028YOPC   NC314815   5.012  16.210   5.389  0.1315 -0.0769  0.3905
 1028YOPC   PO414816   5.314  16.521   5.047  0.0879  0.0920 -0.1402
 1028YOPC   GL114817   5.393  16.628   5.463 -0.1363  0.2801 -0.0302
 1028YOPC   GL214818   5.400  16.343   5.636 -0.1959 -0.1219 -0.1108
 1028YOPC   C1A14819   5.505  16.755   5.833  0.2065 -0.1634  0.0152
 1028YOPC   D2A14820   5.476  16.849   6.262  0.1592  0.1689 -0.0996
 1028YOPC   C3A14821   5.133  16.862   6.498 -0.0853 -0.1121  0.0351
 1028YOPC   C4A14822   4.880  17.044   6.341  0.1659  0.1428 -0.0362
 1028YOPC   C1B14823   5.327  16.264   6.106 -0.2677  0.1295  0.0526
 1028YOPC   C2B14824   5.540  15.969   6.351 -0.0262 -0.2410 -0.3168
 1028YOPC   D3B14825   5.893  15.833   6.537 -0.1390 -0.0871  0.0192
 1028YOPC   C4B14826   6.133  16.135   6.754 -0.0928 -0.5098  0.0339
 1029YOPC   NC314827  18.638   4.620   5.351 -0.0715  0.2237 -0.2382
 1029YOPC   PO414828  18.266   4.338   5.284 -0.3977 -0.0586 -0.1119
 1029YOPC   GL114829  18.123   4.515   5.681 -0.2203 -0.0578 -0.2852
 1029YOPC   GL214830  18.441   4.316   5.767 -0.1517  0.3327 -0.2425
 1029YOPC   C1A14831  17.813   4.569   6.010 -0.1268 -0.1502 -0.3805
 1029YOPC   D2A14832  17.457   4.585   5.946 -0.2782 -0.3237  0.3532
 1029YOPC   C3A14833  17.156   4.413   6.226 -0.0293  0.1090 -0.1138
 1029YOPC   C4A14834  16.665   4.328   6.256  0.2633 -0.0084 -0.1872
 1029YOPC   C1B14835  18.425   4.531   6.258  0.0305 -0.2257  0.0186
 1029YOPC   C2B14836  18.120   4.746   6.464 -0.1473 -0.2582  0.0044
 1029YOPC   D3B14837  18.112   4.988   6.912  0.1089 -0.2687 -0.1290
 1029YOPC   C4B14838  17.898   4.864   7.323 -0.3957  0.1666  0.0722
 1030YOPC   NC314839   8.876   7.835   5.027 -0.1024 -0.0506 -0.0168
 1030YOPC   PO414840   8.535   7.806   5.385  0.1316 -0.3842  0.0675
 1030YOPC   GL114841   8.778   8.126   5.626  0.1957  0.1905  0.1375
 1030YOPC   GL214842   8.926   8.313   5.220  0.0969 -0.2887 -0.2921
 1030YOPC   C1A14843   8.779   8.255   6.128 -0.2195 -0.0602 -0.1523
 1030YOPC   D2A14844   8.965   8.462   6.585 -0.0394 -0.0118 -0.1905
 1030YOPC   C3A14845   8.891   8.782   6.821 -0.0019 -0.3671  0.0062
 1030YOPC   C4A14846   8.612   9.101   6.725 -0.3692  0.0482  0.2461
 1030YOPC   C1B14847   9.255   8.206   5.658  0.2423 -0.0029  0.4732
 1030YOPC   C2B14848   9.477   8.131   5.988  0.0767  0.2137  0.1189
 1030YOPC   D3B14849   9.386   8.208   6.346  0.0006 -0.1542 -0.2707
 1030YOPC   C4B14850   9.436   8.425   6.822  0.2739 -0.2561  0.4457
 1031YOPC   NC314851   3.439   2.367   4.712  0.0061  0.0805  0.1722
 1031YOPC   PO414852   3.839   2.278   4.884  0.1566  0.0127 -0.2501
 1031YOPC   GL114853   4.153   1.987   5.092  0.1570  0.1561 -0.0482
 1031YOPC   GL214854   3.923   1.946   5.366 -0.4260 -0.0852 -0.0937
 1031YOPC   C1A14855   4.399   1.908   5.472 -0.2008 -0.0252  0.2256
 1031YOPC   D2A14856   4.543   2.143   5.703  0.0684  0.0813 -0.1518
 1031YOPC   C3A14857   4.475   2.471   5.914  0.0179  0.0663  0.0709
 1031YOPC   C4A14858   4.505   2.838   6.246 -0.0805  0.5595 -0.1425
 1031YOPC   C1B14859   4.030   2.189   5.768 -0.1227 -0.2142 -0.0373
 1031YOPC   C2B14860   3.985   2.180   6.115 -0.3766  0.0047  0.3763
 1031YOPC   D3B14861   4.107   2.294   6.475  0.1079 -0.0326  0.3099
 1031YOPC   C4B14862   4.202   2.624   6.582 -0.1763  0.0102 -0.1832
 1032YOPC   NC314863   3.130  19.005   5.073 -0.0533 -0.1586  0.0049
 1032YOPC   PO414864   3.349  19.335   4.784 -0.2188 -0.2387 -0.1709
 1032YOPC   GL114865   3.160  19.551   5.152 -0.0298 -0.3081  0.1490
 1032YOPC   GL214866   2.792  19.489   5.335 -0.2752  0.1555  0.0375
 1032YOPC   C1A14867   3.228  19.582   5.631 -0.2542 -0.0062  0.3682
 1032YOPC   D2A14868   3.252  19.403   6.035 -0.2273  0.0168 -0.2728
 1032YOPC   C3A14869   2.836  19.428   6.407  0.0866  0.2123  0.3502
 1032YOPC   C4A14870   2.436  19.355   6.694 -0.2595 -0.0710 -0.0449
 1032YOPC   C1B14871   2.713  19.401   5.737 -0.0901 -0.2277  0.2244
 1032YOPC   C2B14872   2.892  19.135   5.875 -0.3633  0.4955 -0.1562
 1032YOPC   D3B14873   2.640  18.947   6.198 -0.0516  0.0833  0.1576
 1032YOPC   C4B14874   2.542  18.816   6.525 -0.1459 -0.0782 -0.0417
 1033YOPC   NC314875  15.345  11.099   5.567  0.0289 -0.3990  0.2661
 1033YOPC   PO414876  15.323  11.442   5.799 -0.4103 -0.1474 -0.0217
 1033YOPC   GL114877  15.576  11.595   6.150  0.1515  0.0736  0.0657
 1033YOPC   GL214878  15.560  11.941   6.207  0.0388  0.1341  0.1589
 1033YOPC   C1A14879  15.550  11.639   6.640 -0.1071 -0.1600 -0.0548
 1033YOPC   D2A14880  15.615  11.479   7.060  0.3791 -0.0270  0.3970
 1033YOPC   C3A14881  15.227  11.605   7.292  0.1338 -0.0405  0.2262
 1033YOPC   C4A14882  14.822  11.753   7.204  0.3720 -0.3179 -0.3855
 1033YOPC   C1B14883  15.286  12.065   6.403  0.2815  0.0882  0.0587
 1033YOPC   C2B14884  15.143  11.981   6.868 -0.1582  0.2819  0.0289
 1033YOPC   D3B14885  14.988  11.495   6.857 -0.2307  0.2215  0.0181
 1033YOPC   C4B14886  14.821  11.237   7.145 -0.2383 -0.1096 -0.2520
 1034YOPC   NC314887  11.803  13.672   4.767  0.1806  0.1153  0.0699
 1034YOPC   PO414888  11.758  13.493   5.197 -0.1865 -0.0232 -0.0192
 1034YOPC   GL114889  11.553  13.496   5.542 -0.0714 -0.1534 -0.0259
 1034YOPC   GL214890  11.545  13.798   5.615 -0.5073 -0.1212  0.0804
 1034YOPC   C1A14891  11.176  13.450   5.774  0.4034 -0.1278  0.2267
 1034YOPC   D2A14892  10.709  13.464   5.991 -0.0039 -0.4425  0.1690
 1034YOPC   C3A14893  10.700  13.471   6.340  0.1674  0.2736 -0.1043
 1034YOPC   C4A14894  10.797  13.675   6.739 -0.0002 -0.1864 -0.0842
 1034YOPC   C1B14895  11.395  13.933   5.964  0.1843 -0.0589 -0.1065
 1034YOPC   C2B14896  11.364  14.139   6.339  0.1115 -0.0904  0.0828
 1034YOPC   D3B14897  11.762  14.071   6.640  0.1485  0.0907  0.0910
 1034YOPC   C4B14898  11.749  14.389   6.977 -0.2393 -0.0355  0.0524
 1035YOPC   NC314899  15.566  12.735   5.558  0.2793 -0.1600  0.0769
 1035YOPC   PO414900  15.177  12.954   5.419 -0.1985 -0.0347  0.0688
 1035YOPC   GL114901  15.262  13.352   5.714  0.1211 -0.0913 -0.0229
 1035YOPC   GL214902  15.092  13.284   6.042 -0.0534  0.1862 -0.0613
 1035YOPC   C1A14903  15.736  13.569   5.759 -0.4238  0.0103 -0.0729
 1035YOPC   D2A14904  15.932  13.779   5.977 -0.1221 -0.0451 -0.0310
 1035YOPC   C3A14905  15.967  13.672   6.482  0.2893  0.0278 -0.2208
 1035YOPC   C4A14906  16.082  13.816   6.923  0.1047  0.2095  0.2626
 1035YOPC   C1B14907  14.993  13.009   6.314  0.0741 -0.2552  0.0693
 1035YOPC   C2B14908  14.750  12.758   6.582  0.0567  0.2548 -0.3712
 1035YOPC   D3B14909  14.708  12.812   6.983 -0.3555  0.0332 -0.2348
 1035YOPC   C4B14910  14.879  13.157   7.286 -0.2298 -0.0193  0.0257
 1036YOPC   NC314911  14.758  12.711   5.459 -0.3718  0.0334  0.4685
 1036YOPC   PO414912  14.454  12.427   5.437  0.3053  0.1831  0.1262
 1036YOPC   GL114913  14.562  12.715   5.892 -0.1030  0.0802  0.2867
 1036YOPC   GL214914  14.928  12.816   5.887  0.0184  0.0319 -0.6216
 1036YOPC   C1A14915  14.571  13.178   6.079 -0.1456 -0.0954 -0.0782
 1036YOPC   D2A14916  14.653  13.361   6.507  0.0252  0.0942  0.0438
 1036YOPC   C3A14917  14.395  13.621   6.685  0.0795  0.2390  0.2811
 1036YOPC   C4A14918  14.357  14.082   6.834  0.1677 -0.0210 -0.0831
 1036YOPC   C1B14919  14.933  12.490   6.171 -0.0220 -0.3615  0.0938
 1036YOPC   C2B14920  14.846  12.234   6.560 -0.0423  0.1198 -0.3079
 1036YOPC   D3B14921  14.610  11.961   6.775 -0.3588 -0.1372  0.3706
 1036YOPC   C4B14922  14.388  11.652   7.010  0.2418  0.0520  0.1382
 1037YOPC   NC314923   1.273   9.044   5.341  0.0520 -0.2174  0.2243
 1037YOPC   PO414924   1.327   8.908   5.637 -0.0797  0.1778 -0.0870
 1037YOPC   GL114925   1.342   8.944   6.080 -0.4131  0.0029  0.1220
 1037YOPC   GL214926   1.558   8.695   6.307  0.3567  0.1408 -0.0802
 1037YOPC   C1A14927   1.204   8.989   6.463 -0.5060 -0.1551 -0.2214
 1037YOPC   D2A14928   0.866   8.748   6.711  0.0164 -0.0126  0.2971
 1037YOPC   C3A14929   0.928   8.523   7.107 -0.0701 -0.2631  0.1458
 1037YOPC   C4A14930   0.805   8.444   7.393 -0.0460  0.0082 -0.1642
 1037YOPC   C1B14931   1.403   8.665   6.721  0.0942  0.1556  0.1360
 1037YOPC   C2B14932   1.564   8.410   7.087 -0.0392  0.0632 -0.0078
 1037YOPC   D3B14933   1.352   8.101   7.385 -0.0722  0.2507 -0.2467
 1037YOPC   C4B14934   0.965   7.958   7.667  0.0563  0.1550  0.1859
 1038YOPC   NC314935  11.956  11.646   5.145 -0.0773 -0.0919 -0.2732
 1038YOPC   PO414936  12.240  11.289   5.058 -0.0783 -0.3878 -0.0378
 1038YOPC   GL114937  12.103  11.284   5.514  0.5606 -0.2191 -0.0497
 1038YOPC   GL214938  11.891  11.066   5.561 -0.1288  0.0075 -0.0336
 1038YOPC   C1A14939  11.932  11.105   6.060  0.2073 -0.2090  0.1083
 1038YOPC   D2A14940  11.895  11.077   6.617  0.2570  0.0303  0.0097
 1038YOPC   C3A14941  11.629  11.378   6.817 -0.1639  0.2178 -0.1855
 1038YOPC   C4A14942  11.237  11.671   6.794  0.1980 -0.0180  0.1659
 1038YOPC   C1B14943  11.719  11.470   5.836  0.2529 -0.0467 -0.1431
 1038YOPC   C2B14944  11.304  11.516   5.800  0.0144  0.0528 -0.1675
 1038YOPC   D3B14945  11.119  11.921   6.040  0.2289  0.1339  0.1189
 1038YOPC   C4B14946  11.190  12.155   6.395  0.0503  0.3543  0.3267
 1039YOPC   NC314947   9.199   2.132   4.836 -0.0839 -0.0850 -0.0710
 1039YOPC   PO414948   9.044   2.219   5.243  0.1894  0.0891  0.1772
 1039YOPC   GL114949   9.178   2.279   5.697  0.2980 -0.0244  0.2949
 1039YOPC   GL214950   9.317   2.510   5.556 -0.0437 -0.0562 -0.0740
 1039YOPC   C1A14951   9.090   2.516   5.999 -0.1457 -0.0649 -0.0811
 1039YOPC   D2A14952   9.059   2.378   6.437 -0.2572 -0.3374  0.1762
 1039YOPC   C3A14953   8.495   2.294   6.630 -0.2213 -0.2165  0.3567
 1039YOPC   C4A14954   8.323   2.305   7.081 -0.0400 -0.0990 -0.0140
 1039YOPC   C1B14955   9.473   2.823   5.853 -0.2215 -0.3631  0.2374
 1039YOPC   C2B14956   9.471   2.958   6.271  0.2885  0.0203  0.2063
 1039YOPC   D3B14957   9.623   3.438   6.238  0.3962 -0.1731 -0.1033
 1039YOPC   C4B14958   9.751   3.821   5.969  0.2000 -0.1595 -0.1592
 1040YOPC   NC314959   3.999   7.973   5.495 -0.1456 -0.5016 -0.0101
 1040YOPC   PO414960   3.740   7.735   5.675 -0.1086  0.0799 -0.1851
 1040YOPC   GL114961   3.662   7.644   6.099  0.2099 -0.3901 -0.0121
 1040YOPC   GL214962   3.621   7.306   6.266  0.2128  0.0616  0.0823
 1040YOPC   C1A14963   3.401   7.664   6.533 -0.0074 -0.0403  0.3210
 1040YOPC   D2A14964   3.433   8.082   6.767 -0.0621  0.1073 -0.2801
 1040YOPC   C3A14965   3.519   8.120   7.250  0.0820  0.1166 -0.1432
 1040YOPC   C4A14966   3.591   8.459   7.521 -0.2783  0.3094  0.2104
 1040YOPC   C1B14967   3.205   7.102   6.410  0.0415  0.0433  0.2383
 1040YOPC   C2B14968   2.961   7.166   6.784 -0.0379  0.0418 -0.3213
 1040YOPC   D3B14969   2.606   7.057   6.916 -0.7986  0.0760  0.2485
 1040YOPC   C4B14970   2.209   6.842   6.868 -0.1605 -0.4563  0.1660
 1041YOPC   NC314971   7.045  10.785   5.163  0.1083  0.1582 -0.0209
 1041YOPC   PO414972   7.518  10.760   5.172  0.1868  0.0797 -0.2205
 1041YOPC   GL114973   7.347  11.113   5.445  0.1523 -0.0489 -0.0676
 1041YOPC   GL214974   7.651  11.350   5.485 -0.2521 -0.4542  0.1889
 1041YOPC   C1A14975   7.286  11.342   5.903 -0.0478  0.2498 -0.0807
 1041YOPC   D2A14976   7.520  11.370   6.272  0.1471  0.2873 -0.4133
 1041YOPC   C3A14977   7.378  11.422   6.675  0.1082  0.0280  0.2280
 1041YOPC   C4A14978   7.247  11.082   6.976 -0.2102 -0.0618  0.1318
 1041YOPC   C1B14979   7.894  11.288   5.891  0.0744  0.0897 -0.5223
 1041YOPC   C2B14980   7.979  11.114   6.272  0.0744  0.0550 -0.2420
 1041YOPC   D3B14981   7.902  11.317   6.622 -0.2026 -0.0401  0.0750
 1041YOPC   C4B14982   7.784  11.271   7.106 -0.1069  0.2133 -0.0389
 1042YOPC   NC314983   1.656  12.441   5.891  0.1912  0.2898  0.0182
 1042YOPC   PO414984   1.856  11.976   5.831  0.0371 -0.1353  0.0703
 1042YOPC   GL114985   1.942  12.128   6.188 -0.0628  0.0885  0.1031
 1042YOPC   GL214986   2.167  12.437   6.122  0.2996  0.1952 -0.0586
 1042YOPC   C1A14987   1.847  12.382   6.506 -0.0617  0.2150  0.1733
 1042YOPC   D2A14988   1.885  12.671   6.894 -0.1349  0.0856  0.2153
 1042YOPC   C3A14989   1.765  12.515   7.304  0.3233 -0.1555  0.4087
 1042YOPC   C4A14990   1.543  12.702   7.710  0.1826  0.2198 -0.2647
 1042YOPC   C1B14991   2.404  12.461   6.518 -0.3122  0.1367  0.3864
 1042YOPC   C2B14992   2.528  11.961   6.565  0.0542  0.4545 -0.1072
 1042YOPC   D3B14993   2.204  11.696   6.869  0.3570 -0.2917 -0.2894
 1042YOPC   C4B14994   1.988  11.525   7.149  0.1080 -0.1244 -0.1447
 1043YOPC   NC314995  12.100   2.435   5.563  0.1064 -0.1263 -0.2968
 1043YOPC   PO414996  12.515   2.528   5.548  0.1909 -0.0232 -0.0179
 1043YOPC   GL114997  12.346   2.745   5.944 -0.1663 -0.3152 -0.3000
 1043YOPC   GL214998  12.655   3.030   6.132  0.0510 -0.2568 -0.0338
 1043YOPC   C1A14999  11.988   3.060   6.126  0.0192  0.1444 -0.1573
 1043YOPC   D2A15000  11.691   3.232   6.435  0.2221  0.0487  0.3545
 1043YOPC   C3A15001  11.812   3.208   6.773 -0.1794  0.2383  0.3679
 1043YOPC   C4A15002  11.878   3.318   7.235 -0.2948 -0.1435 -0.2657
 1043YOPC   C1B15003  12.331   3.179   6.512 -0.1714  0.2310 -0.2013
 1043YOPC   C2B15004  12.606   3.144   6.845  0.3642 -0.0405  0.2019
 1043YOPC   D3B15005  12.336   3.124   7.266 -0.0397  0.1113 -0.2192
 1043YOPC   C4B15006  12.183   3.435   7.676 -0.1764  0.1962 -0.2143
 1044YOPC   NC315007  11.570   1.314   4.968 -0.0688 -0.1071  0.0379
 1044YOPC   PO415008  11.739   1.209   5.314  0.0413  0.2355 -0.0194
 1044YOPC   GL115009  11.799   1.277   5.720 -0.3450 -0.0492  0.2245
 1044YOPC   GL215010  11.945   1.468   5.978 -0.2004  0.3286  0.2225
 1044YOPC   C1A15011  11.717   1.042   6.089  0.0245 -0.0801 -0.4552
 1044YOPC   D2A15012  11.563   0.827   6.446  0.1112 -0.3173 -0.4611
 1044YOPC   C3A15013  11.483   0.466   6.377  0.0073  0.1172  0.0412
 1044YOPC   C4A15014  11.114   0.307   6.623 -0.2765  0.0641  0.0594
 1044YOPC   C1B15015  12.005   1.328   6.395  0.0332 -0.0616  0.0486
 1044YOPC   C2B15016  11.869   1.122   6.648 -0.1523 -0.3779 -0.1001
 1044YOPC   D3B15017  12.179   0.971   6.902 -0.1514 -0.0804  0.2786
 1044YOPC   C4B15018  12.518   0.675   6.885  0.1223 -0.4361  0.0785
 1045YOPC   NC315019  15.111   1.317   5.584  0.1819 -0.2089  0.1376
 1045YOPC   PO415020  14.856   1.676   5.642 -0.0362  0.0291 -0.0738
 1045YOPC   GL115021  14.675   1.873   6.011  0.1401  0.0724  0.2529
 1045YOPC   GL215022  14.541   2.142   6.044 -0.0132 -0.0748  0.2692
 1045YOPC   C1A15023  14.676   1.736   6.497 -0.0639  0.0736  0.0087
 1045YOPC   D2A15024  14.847   1.634   6.887 -0.1564 -0.1050  0.4083
 1045YOPC   C3A15025  14.958   1.370   7.201  0.3011  0.0998  0.0573
 1045YOPC   C4A15026  14.790   1.097   7.459 -0.0137 -0.4351  0.2320
 1045YOPC   C1B15027  14.648   2.338   6.405  0.0268 -0.1465  0.1901
 1045YOPC   C2B15028  14.915   2.498   6.616  0.1622  0.2719 -0.0830
 1045YOPC   D3B15029  14.881   2.368   6.936 -0.0746 -0.3555  0.0081
 1045YOPC   C4B15030  14.604   2.092   7.018 -0.0222  0.4282 -0.0796
 1046YOPC   NC315031  18.563  14.002   5.255  0.4521 -0.1231 -0.1393
 1046YOPC   PO415032  18.513  13.515   5.268  0.0418 -0.2212  0.1126
 1046YOPC   GL115033  18.132  13.442   5.570  0.0975 -0.0530 -0.2754
 1046YOPC   GL215034  17.738  13.536   5.542  0.0610  0.0926  0.3095
 1046YOPC   C1A15035  17.915  13.138   5.783  0.2808 -0.0982 -0.1685
 1046YOPC   D2A15036  17.562  13.193   6.019 -0.1914  0.4854 -0.1926
 1046YOPC   C3A15037  17.218  13.437   6.054 -0.1443  0.0166  0.0662
 1046YOPC   C4A15038  17.187  13.821   6.174 -0.1382 -0.2558  0.1153
 1046YOPC   C1B15039  17.602  13.863   5.843  0.1620  0.2108  0.4329
 1046YOPC   C2B15040  17.662  13.991   6.311 -0.0732  0.0027 -0.1625
 1046YOPC   D3B15041  17.443  13.856   6.703 -0.0771  0.3122 -0.3719
 1046YOPC   C4B15042  17.567  13.622   6.989  0.2020 -0.0670 -0.0250
 1047YOPC   NC315043   1.419   8.470   5.906  0.4411  0.0696 -0.3695
 1047YOPC   PO415044   1.201   8.078   5.878 -0.0603 -0.1586  0.0753
 1047YOPC   GL115045   1.085   8.021   6.297 -0.1569  0.0502  0.2321
 1047YOPC   GL215046   1.396   8.223   6.545  0.1254  0.0138 -0.0886
 1047YOPC   C1A15047   1.242   7.705   6.603  0.1532 -0.3494 -0.1732
 1047YOPC   D2A15048   1.244   7.434   6.810  0.1599  0.1134 -0.1651
 1047YOPC   C3A15049   1.161   7.456   7.304 -0.0030  0.2340 -0.1066
 1047YOPC   C4A15050   1.242   7.420   7.795 -0.2554  0.1700  0.2516
 1047YOPC   C1B15051   1.822   8.273   6.656  0.2922  0.3602 -0.0898
 1047YOPC   C2B15052   2.015   8.089   7.162 -0.0984  0.1602 -0.0588
 1047YOPC   D3B15053   2.126   7.733   7.338  0.0913 -0.3421 -0.0265
 1047YOPC   C4B15054   2.105   7.397   7.572  0.2511  0.2156 -0.2253
 1048YOPC   NC315055   2.138   1.746   5.255  0.1099 -0.1478 -0.0459
 1048YOPC   PO415056   2.373   1.390   5.007 -0.1254 -0.0837 -0.1694
 1048YOPC   GL115057   2.707   1.261   5.228 -0.2335 -0.0511 -0.0287
 1048YOPC   GL215058   2.566   1.072   5.400  0.0563 -0.0647  0.0154
 1048YOPC   C1A15059   2.959   1.250   5.621  0.0159  0.1704  0.0938
 1048YOPC   D2A15060   3.240   1.379   6.068 -0.1426 -0.0008 -0.0752
 1048YOPC   C3A15061   3.056   1.272   6.448 -0.0848  0.2412 -0.0938
 1048YOPC   C4A15062   2.696   1.244   6.705  0.1948 -0.0402  0.2552
 1048YOPC   C1B15063   2.464   1.301   5.742  0.0697  0.1995  0.3741
 1048YOPC   C2B15064   2.207   1.512   6.030  0.1078  0.2041 -0.2787
 1048YOPC   D3B15065   1.987   1.423   6.454 -0.2841 -0.0736  0.4296
 1048YOPC   C4B15066   1.803   1.103   6.798 -0.0546 -0.0822 -0.4645
 1049YOPC   NC315067   5.104  17.968   4.354  0.0728 -0.0285 -0.5402
 1049YOPC   PO415068   5.224  17.892   4.697 -0.0252 -0.2256  0.0625
 1049YOPC   GL115069   5.490  18.195   4.999 -0.0599  0.2445 -0.0753
 1049YOPC   GL215070   5.765  18.100   5.244  0.1206  0.0468 -0.0305
 1049YOPC   C1A15071   5.401  18.461   5.308 -0.0568  0.1693  0.0555
 1049YOPC   D2A15072   5.369  18.768   5.603  0.0224  0.3126 -0.2344
 1049YOPC   C3A15073   5.044  19.071   5.731  0.1484 -0.4242  0.1206
 1049YOPC   C4A15074   4.797  19.459   5.651 -0.0900 -0.1091  0.3757
 1049YOPC   C1B15075   5.502  17.969   5.646 -0.0155 -0.0252  0.2815
 1049YOPC   C2B15076   5.311  18.309   5.884 -0.0068 -0.1711 -0.2882
 1049YOPC   D3B15077   5.358  18.287   6.365 -0.2549  0.2485  0.2060
 1049YOPC   C4B15078   5.442  17.953   6.527  0.1060  0.0575  0.0717
 1050YOPC   NC315079   5.060   4.607   4.535 -0.0111 -0.2035  0.0131
 1050YOPC   PO415080   4.986   4.459   4.987 -0.1917 -0.0560 -0.0138
 1050YOPC   GL115081   4.944   4.186   5.298  0.0776  0.0639 -0.2748
 1050YOPC   GL215082   4.744   4.302   5.512 -0.1757  0.1180  0.0899
 1050YOPC   C1A15083   5.076   3.825   5.558  0.1091  0.2736  0.2308
 1050YOPC   D2A15084   5.028   3.622   5.938 -0.1128 -0.1361  0.1016
 1050YOPC   C3A15085   5.400   3.666   6.160  0.1114 -0.1161 -0.2164
 1050YOPC   C4A15086   5.864   3.706   6.363 -0.1304 -0.0094 -0.2132
 1050YOPC   C1B15087   4.830   4.335   5.965 -0.3346  0.2230  0.3031
 1050YOPC   C2B15088   4.854   4.219   6.442  0.1722 -0.1386 -0.0240
 1050YOPC   D3B15089   4.720   4.329   6.746  0.2730 -0.1626  0.1431
 1050YOPC   C4B15090   4.905   4.263   7.108 -0.4518 -0.2595  0.3747
 1051YOPC   NC315091  18.939  18.687   5.336  0.0127 -0.0172 -0.2885
 1051YOPC   PO415092  19.278  18.600   5.627  0.1038 -0.0276 -0.0658
 1051YOPC   GL115093  19.449  18.229   5.737 -0.0760 -0.2435 -0.1766
 1051YOPC   GL215094  19.218  18.078   6.015  0.1478  0.2081 -0.0888
 1051YOPC   C1A15095  19.752  18.237   6.055 -0.1797  0.2763 -0.2993
 1051YOPC   D2A15096  19.378  18.513   6.311 -0.2132 -0.1309  0.2737
 1051YOPC   C3A15097  19.218  19.025   6.228 -0.0242 -0.2427  0.0907
 1051YOPC   C4A15098  18.961  19.207   6.576  0.0563  0.0421  0.3346
 1051YOPC   C1B15099  19.031  18.209   6.382 -0.0227  0.1087 -0.1585
 1051YOPC   C2B15100  19.196  18.256   6.805  0.2079 -0.0503 -0.1866
 1051YOPC   D3B15101  19.020  18.314   7.103  0.2406  0.1635 -0.0228
 1051YOPC   C4B15102  18.820  18.145   7.437 -0.2337  0.0494 -0.1349
 1052YOPC   NC315103  18.492   2.987   5.630  0.0177  0.0150  0.1634
 1052YOPC   PO415104  18.747   3.017   5.330 -0.2160  0.2044  0.1669
 1052YOPC   GL115105  19.060   2.952   5.678  0.0828  0.1351  0.0858
 1052YOPC   GL215106  18.844   2.896   6.000  0.1600  0.3777 -0.0010
 1052YOPC   C1A15107  19.260   2.602   5.749  0.0689  0.3445 -0.0143
 1052YOPC   D2A15108  19.271   2.162   5.937  0.1013  0.1867  0.2610
 1052YOPC   C3A15109  19.694   2.087   6.092 -0.0512  0.0041 -0.2977
 1052YOPC   C4A15110  19.970   2.445   5.803 -0.0848 -0.1394  0.2598
 1052YOPC   C1B15111  19.296   2.946   6.258 -0.0625  0.2574  0.0938
 1052YOPC   C2B15112  19.507   2.524   6.147  0.0492  0.1443  0.3416
 1052YOPC   D3B15113  19.390   2.256   6.515  0.0913 -0.1339 -0.3471
 1052YOPC   C4B15114  19.039   2.197   6.855 -0.0590  0.1109 -0.0805
 1053YOPC   NC315115   4.433  10.083   5.631 -0.1001 -0.2031 -0.2599
 1053YOPC   PO415116   4.613  10.516   5.671  0.2050  0.1461  0.3558
 1053YOPC   GL115117   4.867  10.522   5.990  0.2554  0.3197 -0.0631
 1053YOPC   GL215118   4.707  10.446   6.265  0.0500  0.1190 -0.1918
 1053YOPC   C1A15119   5.234  10.413   6.267  0.0798  0.2554  0.4078
 1053YOPC   D2A15120   5.542  10.368   6.515 -0.1340  0.2132  0.1363
 1053YOPC   C3A15121   5.480  10.278   6.897 -0.1829 -0.4386 -0.2409
 1053YOPC   C4A15122   5.396  10.146   7.381 -0.1247  0.1769  0.2454
 1053YOPC   C1B15123   4.825  10.326   6.713  0.1329  0.1313 -0.0256
 1053YOPC   C2B15124   5.039  10.258   7.021 -0.1225  0.0222 -0.1726
 1053YOPC   D3B15125   4.886  10.041   7.442  0.3205 -0.1423 -0.0414
 1053YOPC   C4B15126   4.724   9.999   7.845  0.0224 -0.0246  0.2341
 1054YOPC   NC315127   1.033  17.300   5.031 -0.3904 -0.1257 -0.2204
 1054YOPC   PO415128   1.267  17.252   5.484 -0.0045 -0.0133  0.2237
 1054YOPC   GL115129   1.230  16.933   5.741 -0.0087  0.0208  0.1348
 1054YOPC   GL215130   1.380  16.687   5.682  0.1437 -0.0229  0.1581
 1054YOPC   C1A15131   1.045  16.674   6.084  0.0843  0.0548  0.0864
 1054YOPC   D2A15132   0.931  16.428   6.449  0.0584 -0.1867 -0.2832
 1054YOPC   C3A15133   0.591  16.443   6.651 -0.1229  0.0010  0.1312
 1054YOPC   C4A15134   0.202  16.511   6.605 -0.1971 -0.1734  0.1709
 1054YOPC   C1B15135   1.571  16.641   6.142  0.0117  0.0401 -0.0928
 1054YOPC   C2B15136   1.588  16.826   6.492 -0.0523  0.1589 -0.2741
 1054YOPC   D3B15137   1.212  16.706   6.704 -0.0742  0.0374 -0.4175
 1054YOPC   C4B15138   0.991  16.393   6.924 -0.0184 -0.3249 -0.2357
 1055YOPC   NC315139   2.896   4.540   5.032 -0.0356  0.1859  0.3014
 1055YOPC   PO415140   3.114   4.179   5.263  0.1942  0.2210  0.1068
 1055YOPC   GL115141   3.182   4.188   5.630 -0.1085  0.1351  0.1663
 1055YOPC   GL215142   3.117   4.519   5.733  0.0646  0.0962 -0.0960
 1055YOPC   C1A15143   3.147   3.817   5.973 -0.2338 -0.0229  0.1125
 1055YOPC   D2A15144   2.766   3.525   5.838 -0.1476  0.1730 -0.0947
 1055YOPC   C3A15145   2.508   3.172   5.769  0.0462 -0.1224 -0.0536
 1055YOPC   C4A15146   2.446   2.686   5.795 -0.1114  0.1910 -0.1449
 1055YOPC   C1B15147   3.197   4.295   6.188  0.1249  0.2402  0.0263
 1055YOPC   C2B15148   3.163   3.979   6.488  0.0823 -0.0566  0.1808
 1055YOPC   D3B15149   3.272   3.900   6.932  0.1449  0.1849  0.2405
 1055YOPC   C4B15150   3.038   3.745   7.352  0.0234  0.1927  0.0568
 1056YOPC   NC315151   8.761  14.170   4.754 -0.0595  0.0521  0.2642
 1056YOPC   PO415152   8.411  13.812   4.812 -0.1248  0.1079 -0.0636
 1056YOPC   GL115153   8.413  13.856   5.245  0.1482 -0.3192 -0.0385
 1056YOPC   GL215154   8.135  13.675   5.229  0.2375 -0.1940  0.1067
 1056YOPC   C1A15155   8.260  14.074   5.615  0.0665  0.1078  0.2571
 1056YOPC   D2A15156   8.179  14.229   5.999 -0.0782  0.0117  0.3624
 1056YOPC   C3A15157   8.476  14.380   6.332 -0.1448  0.0610 -0.1009
 1056YOPC   C4A15158   8.869  14.191   6.438  0.2890 -0.4031  0.0350
 1056YOPC   C1B15159   7.855  13.494   5.550 -0.0373  0.3423 -0.2634
 1056YOPC   C2B15160   7.897  13.117   5.789 -0.0886  0.1774 -0.0649
 1056YOPC   D3B15161   8.117  13.087   6.244 -0.1934 -0.0149 -0.2679
 1056YOPC   C4B15162   8.241  12.697   6.330  0.1168 -0.0195 -0.2728
 1057YOPC   NC315163  10.070   9.192   5.298  0.1059 -0.0896 -0.0717
 1057YOPC   PO415164  10.307   9.405   5.109  0.1800 -0.0780  0.1508
 1057YOPC   GL115165  10.529   9.185   5.523  0.0798  0.2775 -0.2137
 1057YOPC   GL215166  10.282   9.171   5.778  0.3618  0.0934  0.1767
 1057YOPC   C1A15167  10.708   8.915   5.892  0.1693 -0.2367  0.0045
 1057YOPC   D2A15168  11.089   8.930   6.245 -0.1395  0.2872  0.0149
 1057YOPC   C3A15169  11.259   9.309   6.357  0.0812 -0.0984  0.1134
 1057YOPC   C4A15170  11.668   9.439   6.440 -0.2583 -0.1900 -0.1457
 1057YOPC   C1B15171  10.295   8.969   6.213  0.1215  0.1144 -0.2595
 1057YOPC   C2B15172  10.635   8.883   6.439 -0.2822  0.0834  0.1022
 1057YOPC   D3B15173  10.396   8.836   6.893  0.0265 -0.1458  0.1377
 1057YOPC   C4B15174  10.135   8.784   7.254 -0.1687  0.3331 -0.1676
 1058YOPC   NC315175  13.896  11.602   5.138  0.1030  0.0109 -0.1473
 1058YOPC   PO415176  13.888  11.515   5.585 -0.1504 -0.1239 -0.1840
 1058YOPC   GL115177  14.124  11.214   5.829 -0.2436  0.2670 -0.1316
 1058YOPC   GL215178  14.036  10.911   5.782 -0.1028 -0.0834 -0.0181
 1058YOPC   C1A15179  14.490  11.168   6.174 -0.0853 -0.0170  0.2786
 1058YOPC   D2A15180  14.683  11.120   6.625  0.3408  0.1845  0.0923
 1058YOPC   C3A15181  14.431  10.935   6.913 -0.0354  0.1420 -0.0586
 1058YOPC   C4A15182  14.209  10.758   7.281 -0.0131  0.0478 -0.0424
 1058YOPC   C1B15183  13.804  11.053   6.115  0.0905 -0.1029  0.0819
 1058YOPC   C2B15184  13.655  10.756   6.340  0.0439  0.0939 -0.1158
 1058YOPC   D3B15185  13.392  10.828   6.714 -0.1169 -0.1472  0.1088
 1058YOPC   C4B15186  13.140  11.121   6.781 -0.1531 -0.0634 -0.1397
 1059YOPC   NC315187  10.543   7.393   4.946 -0.2250 -0.0563  0.2850
 1059YOPC   PO415188  10.133   7.561   5.080  0.0881 -0.2907  0.2060
 1059YOPC   GL115189  10.114   7.470   5.480  0.0409 -0.1536  0.0752
 1059YOPC   GL215190  10.008   7.217   5.686  0.3007  0.4913 -0.1087
 1059YOPC   C1A15191  10.242   7.911   5.613 -0.3507 -0.3168 -0.2993
 1059YOPC   D2A15192  10.457   7.831   6.123  0.1471  0.1243 -0.2523
 1059YOPC   C3A15193  10.308   8.011   6.550  0.0260  0.1106 -0.1640
 1059YOPC   C4A15194  10.137   8.419   6.725  0.0272  0.0195 -0.0351
 1059YOPC   C1B15195   9.694   7.155   6.051 -0.2284  0.0350  0.0511
 1059YOPC   C2B15196   9.661   7.138   6.487  0.1518  0.0344  0.1721
 1059YOPC   D3B15197   9.931   7.420   6.703  0.1392 -0.0516  0.0851
 1059YOPC   C4B15198  10.114   7.577   7.130  0.0030 -0.0352  0.2240
 1060YOPC   NC315199  12.727   7.453   4.605  0.2624 -0.1974  0.2263
 1060YOPC   PO415200  12.711   7.599   5.002 -0.1115 -0.1231 -0.0301
 1060YOPC   GL115201  12.733   7.726   5.466  0.1234 -0.2020  0.0334
 1060YOPC   GL215202  12.618   8.006   5.477 -0.0115 -0.0032 -0.3248
 1060YOPC   C1A15203  12.618   7.643   5.913  0.2875 -0.0764  0.2309
 1060YOPC   D2A15204  12.287   7.687   6.150 -0.1571  0.0623 -0.1373
 1060YOPC   C3A15205  12.146   7.884   6.658 -0.1694  0.4767 -0.0082
 1060YOPC   C4A15206  12.040   8.079   7.106  0.0867  0.1682  0.0762
 1060YOPC   C1B15207  13.096   8.005   5.660 -0.0624  0.0199  0.0663
 1060YOPC   C2B15208  13.227   8.225   6.034  0.0919  0.2408 -0.3307
 1060YOPC   D3B15209  12.912   8.427   6.252 -0.1912 -0.1165  0.1659
 1060YOPC   C4B15210  12.537   8.607   6.204 -0.0855  0.0053 -0.1609
 1061YOPC   NC315211  14.434   0.491   5.505 -0.0335 -0.0602  0.3049
 1061YOPC   PO415212  14.281   0.953   5.535  0.2160  0.1659  0.1850
 1061YOPC   GL115213  14.368   0.788   5.869 -0.2830 -0.0285  0.1050
 1061YOPC   GL215214  14.248   1.011   6.141 -0.1881 -0.0347 -0.1483
 1061YOPC   C1A15215  14.378   0.407   6.231  0.0740 -0.1461  0.0847
 1061YOPC   D2A15216  14.624   0.154   6.392  0.1148  0.2172  0.0255
 1061YOPC   C3A15217  14.544  -0.169   6.631  0.0190 -0.3370  0.0336
 1061YOPC   C4A15218  14.314  -0.542   6.825 -0.0920  0.0485  0.2230
 1061YOPC   C1B15219  14.043   0.855   6.497 -0.1676 -0.4001 -0.0366
 1061YOPC   C2B15220  13.593   0.979   6.507  0.0972  0.0525  0.0761
 1061YOPC   D3B15221  13.449   1.291   6.864  0.3278  0.1893  0.0094
 1061YOPC   C4B15222  13.245   1.586   6.753 -0.2237  0.4278 -0.2182
 1062YOPC   NC315223  10.971  12.504   4.677 -0.0524 -0.1646 -0.0468
 1062YOPC   PO415224  10.755  12.214   4.764  0.2887 -0.2058 -0.3817
 1062YOPC   GL115225  10.598  12.112   5.257  0.0994 -0.0611 -0.0273
 1062YOPC   GL215226  10.272  12.183   5.246  0.1727 -0.0661 -0.1677
 1062YOPC   C1A15227  10.831  11.880   5.618 -0.1970 -0.0574 -0.1396
 1062YOPC   D2A15228  10.819  11.563   5.920  0.3286 -0.1802 -0.0104
 1062YOPC   C3A15229  10.828  11.763   6.376 -0.1054 -0.2708 -0.1665
 1062YOPC   C4A15230  10.930  12.048   6.753  0.0689 -0.0590  0.0448
 1062YOPC   C1B15231  10.355  12.133   5.684  0.4688  0.1004 -0.3586
 1062YOPC   C2B15232  10.615  12.143   5.975  0.0995 -0.1277  0.3517
 1062YOPC   D3B15233  10.568  12.223   6.311 -0.0598 -0.0348  0.0500
 1062YOPC   C4B15234  10.584  12.545   6.619 -0.2299 -0.0711 -0.0706
 1063YOPC   NC315235   9.369  12.485   4.311 -0.1700 -0.3358  0.0187
 1063YOPC   PO415236   9.033  12.529   4.635 -0.0180 -0.3533 -0.2790
 1063YOPC   GL115237   8.848  12.591   5.119 -0.1494 -0.0820 -0.1115
 1063YOPC   GL215238   9.052  12.640   5.225 -0.4012 -0.0512 -0.0050
 1063YOPC   C1A15239   8.732  12.370   5.537 -0.0244 -0.1613 -0.0773
 1063YOPC   D2A15240   8.613  12.481   5.872  0.0244  0.2898 -0.0075
 1063YOPC   C3A15241   8.606  12.218   6.233  0.1242 -0.0536  0.1825
 1063YOPC   C4A15242   8.599  12.172   6.659  0.1194  0.0124  0.1981
 1063YOPC   C1B15243   9.284  12.481   5.553 -0.1623  0.1780  0.0643
 1063YOPC   C2B15244   9.164  12.278   5.922 -0.0312 -0.0289 -0.1980
 1063YOPC   D3B15245   8.843  11.935   5.847  0.0309  0.1343 -0.2177
 1063YOPC   C4B15246   8.379  11.967   5.707  0.1002 -0.2547  0.3308
 1064YOPC   NC315247   0.874  14.403   4.613  0.0666  0.2657 -0.2758
 1064YOPC   PO415248   0.733  14.607   5.068 -0.1116  0.2347  0.1794
 1064YOPC   GL115249   1.169  14.742   5.230 -0.0608  0.1607  0.3948
 1064YOPC   GL215250   1.166  14.599   5.427 -0.3928  0.1791  0.0949
 1064YOPC   C1A15251   1.537  14.872   5.563 -0.0505 -0.0997 -0.1725
 1064YOPC   D2A15252   1.417  15.052   5.898 -0.1645 -0.0706  0.1008
 1064YOPC   C3A15253   1.381  14.924   6.306  0.0893  0.3182 -0.2271
 1064YOPC   C4A15254   1.497  14.567   6.468  0.2024  0.0364  0.3051
 1064YOPC   C1B15255   1.103  14.613   5.776 -0.0265 -0.1013 -0.2094
 1064YOPC   C2B15256   1.055  14.478   6.205 -0.1362  0.1589 -0.0551
 1064YOPC   D3B15257   1.015  14.705   6.598 -0.1531 -0.2041  0.0933
 1064YOPC   C4B15258   0.907  14.812   7.026  0.0752  0.0830 -0.1430
 1065YOPC   NC315259   9.084   6.746   5.433 -0.2204 -0.3189 -0.2576
 1065YOPC   PO415260   9.079   6.317   5.531  0.0709  0.0584 -0.2225
 1065YOPC   GL115261   9.029   6.241   5.984  0.1614 -0.1563  0.0243
 1065YOPC   GL215262   9.302   6.150   5.959  0.2713  0.2264 -0.3270
 1065YOPC   C1A15263   9.086   6.212   6.431 -0.3553  0.0761  0.0859
 1065YOPC   D2A15264   9.144   6.000   6.748  0.3465  0.0123 -0.0193
 1065YOPC   C3A15265   8.858   5.933   6.974 -0.2202 -0.0329  0.2958
 1065YOPC   C4A15266   8.588   5.789   7.298 -0.0920  0.3116  0.1422
 1065YOPC   C1B15267   9.601   5.858   6.143 -0.0165  0.0499 -0.2753
 1065YOPC   C2B15268   9.640   5.481   6.098  0.0985  0.1878 -0.2150
 1065YOPC   D3B15269   9.380   5.262   6.415 -0.3377  0.2243 -0.1368
 1065YOPC   C4B15270   9.172   5.297   6.844  0.2420 -0.2546 -0.0776
 1066YOPC   NC315271  15.511   9.193   5.463  0.1163 -0.0274 -0.0638
 1066YOPC   PO415272  15.806   9.508   5.637 -0.2946  0.2575  0.3768
 1066YOPC   GL115273  15.490   9.551   6.051 -0.0596 -0.0436  0.2537
 1066YOPC   GL215274  15.272   9.535   5.811 -0.0768  0.0870  0.2180
 1066YOPC   C1A15275  15.383   9.792   6.341 -0.1872 -0.1074 -0.0200
 1066YOPC   D2A15276  15.345   9.921   6.742 -0.0448  0.0145 -0.0657
 1066YOPC   C3A15277  15.068   9.661   6.941  0.3341  0.0040  0.3613
 1066YOPC   C4A15278  14.870   9.476   7.277  0.1633  0.0004 -0.2296
 1066YOPC   C1B15279  14.954   9.360   6.035 -0.0944 -0.4193  0.0155
 1066YOPC   C2B15280  14.788   9.153   6.302 -0.2395  0.2014  0.0076
 1066YOPC   D3B15281  14.388   9.424   6.480 -0.0498  0.2279  0.0137
 1066YOPC   C4B15282  14.072   9.544   6.773  0.3454  0.0379 -0.0090
 1067YOPC   NC315283  11.402  16.803   4.809  0.0449 -0.2249  0.2260
 1067YOPC   PO415284  11.089  17.018   4.875  0.0297  0.0247  0.0026
 1067YOPC   GL115285  11.029  17.012   5.365 -0.2968  0.2413  0.1398
 1067YOPC   GL215286  10.813  16.699   5.484  0.0075 -0.0987 -0.0299
 1067YOPC   C1A15287  11.315  16.824   5.705  0.0365 -0.0791  0.1407
 1067YOPC   D2A15288  11.081  16.566   5.958 -0.0498 -0.1784 -0.1082
 1067YOPC   C3A15289  11.276  16.096   6.083  0.4911 -0.1065 -0.1704
 1067YOPC   C4A15290  11.432  15.676   6.239 -0.0402 -0.2124 -0.0783
 1067YOPC   C1B15291  10.935  16.321   5.537 -0.1933  0.0471  0.3084
 1067YOPC   C2B15292  11.139  15.985   5.596  0.3843  0.0052  0.0550
 1067YOPC   D3B15293  11.054  15.606   5.420 -0.1947  0.0542  0.0973
 1067YOPC   C4B15294  11.162  15.299   5.219 -0.1996 -0.1450  0.2105
 1068YOPC   NC315295  13.296  10.310   5.551 -0.1001 -0.1270  0.1177
 1068YOPC   PO415296  12.811  10.548   5.428  0.3441 -0.0340 -0.0804
 1068YOPC   GL115297  12.856  10.801   5.781 -0.0359 -0.0160  0.1836
 1068YOPC   GL215298  13.119  10.767   5.903 -0.0744  0.2293 -0.3759
 1068YOPC   C1A15299  12.817  10.642   6.293 -0.2643 -0.0098  0.2459
 1068YOPC   D2A15300  12.553  10.317   6.309  0.0284  0.1433 -0.1014
 1068YOPC   C3A15301  12.730  10.175   6.766  0.0211  0.0505  0.0522
 1068YOPC   C4A15302  13.010  10.029   7.115 -0.2126 -0.3407 -0.0754
 1068YOPC   C1B15303  13.175  10.965   6.275 -0.4117 -0.2066 -0.1759
 1068YOPC   C2B15304  12.854  11.339   6.309  0.2754  0.3247 -0.3274
 1068YOPC   D3B15305  12.538  11.581   6.360 -0.1521  0.2923  0.2469
 1068YOPC   C4B15306  12.202  11.630   6.021 -0.3016 -0.2424 -0.0437
 1069YOPC   NC315307  12.670  16.736   4.813  0.0117 -0.0362 -0.2648
 1069YOPC   PO415308  12.235  16.455   4.796  0.3135 -0.2738  0.2421
 1069YOPC   GL115309  12.220  16.443   5.176  0.1000 -0.0659  0.1103
 1069YOPC   GL215310  12.487  16.547   5.433 -0.1324 -0.0675 -0.1034
 1069YOPC   C1A15311  11.746  16.478   5.427 -0.0792 -0.0186  0.1033
 1069YOPC   D2A15312  11.586  16.449   5.827  0.0725  0.2297  0.2819
 1069YOPC   C3A15313  11.491  16.695   6.213 -0.0068  0.1234 -0.2329
 1069YOPC   C4A15314  11.435  16.785   6.688 -0.0292 -0.2127 -0.4652
 1069YOPC   C1B15315  12.079  16.384   5.738 -0.4115 -0.0168 -0.3747
 1069YOPC   C2B15316  11.879  15.963   6.153 -0.0347 -0.2542 -0.4847
 1069YOPC   D3B15317  11.896  15.789   6.544  0.1583  0.0529  0.1688
 1069YOPC   C4B15318  12.041  15.682   6.942  0.1379  0.0445  0.2639
 1070YOPC   NC315319  17.952   9.423   5.868 -0.1677  0.1548 -0.1126
 1070YOPC   PO415320  17.532   9.588   6.100  0.2044 -0.1215  0.0912
 1070YOPC   GL115321  17.328   9.385   6.423  0.0211 -0.0997  0.0358
 1070YOPC   GL215322  17.391   9.153   6.282 -0.0984 -0.2414 -0.0873
 1070YOPC   C1A15323  17.476   9.443   6.866 -0.0447  0.4267 -0.0259
 1070YOPC   D2A15324  17.595   9.672   7.157 -0.2337  0.1402 -0.0815
 1070YOPC   C3A15325  17.448   9.727   7.555 -0.2321  0.1133  0.0999
 1070YOPC   C4A15326  17.602   9.544   7.914 -0.0332 -0.0538 -0.0146
 1070YOPC   C1B15327  17.813   9.158   6.540 -0.0432 -0.2956  0.1410
 1070YOPC   C2B15328  17.833   8.880   6.892 -0.1202 -0.1210 -0.0151
 1070YOPC   D3B15329  17.561   8.696   7.107 -0.0338  0.3408  0.1009
 1070YOPC   C4B15330  17.393   8.697   7.470  0.0720 -0.2633 -0.2768
 1071YOPC   NC315331   6.305  17.310   4.857 -0.2670 -0.0300  0.0539
 1071YOPC   PO415332   5.940  17.188   4.910 -0.0652 -0.1182 -0.1433
 1071YOPC   GL115333   5.683  17.256   5.249 -0.0684  0.0118 -0.1732
 1071YOPC   GL215334   5.726  17.067   5.489  0.0220  0.3115  0.2318
 1071YOPC   C1A15335   5.397  17.609   5.321 -0.0818  0.0291 -0.1564
 1071YOPC   D2A15336   4.941  17.626   5.515 -0.1665 -0.2551  0.2596
 1071YOPC   C3A15337   4.728  17.398   5.270  0.0018 -0.0240  0.0589
 1071YOPC   C4A15338   4.245  17.468   5.233 -0.0955 -0.1184  0.3145
 1071YOPC   C1B15339   5.841  17.059   5.869  0.0340  0.0265  0.1484
 1071YOPC   C2B15340   5.961  17.040   6.344  0.0765  0.0699  0.1927
 1071YOPC   D3B15341   6.198  17.390   6.535 -0.1083 -0.1749  0.3703
 1071YOPC   C4B15342   6.436  17.519   6.895 -0.2446  0.4793 -0.1626
 1072YOPC   NC315343  14.807   9.857   5.010  0.1063 -0.1715 -0.1532
 1072YOPC   PO415344  14.961   9.757   5.479 -0.0625 -0.3025  0.0209
 1072YOPC   GL115345  15.104   9.989   5.731  0.2288  0.0013 -0.3234
 1072YOPC   GL215346  15.061   9.982   6.022  0.1144 -0.0768 -0.3184
 1072YOPC   C1A15347  15.009  10.377   5.806 -0.2460  0.1154  0.0259
 1072YOPC   D2A15348  14.646  10.661   6.012  0.0880  0.3346 -0.1619
 1072YOPC   C3A15349  14.604  10.574   6.390  0.0647  0.0616 -0.0102
 1072YOPC   C4A15350  14.345  10.450   6.771 -0.2788 -0.1030 -0.0633
 1072YOPC   C1B15351  14.945  10.222   6.357 -0.3809  0.0689  0.2102
 1072YOPC   C2B15352  14.814  10.112   6.800  0.3185  0.2500 -0.1549
 1072YOPC   D3B15353  15.100  10.171   7.074 -0.1069  0.1503 -0.0815
 1072YOPC   C4B15354  15.481  10.119   7.286 -0.0144 -0.1560 -0.1328
 1073YOPC   NC315355  17.470   3.860   5.417 -0.1399 -0.2229  0.2827
 1073YOPC   PO415356  17.790   3.521   5.624 -0.5151  0.3535  0.3324
 1073YOPC   GL115357  17.940   3.774   5.691  0.3179 -0.1873 -0.2213
 1073YOPC   GL215358  17.914   4.080   5.652  0.0607  0.2788 -0.1938
 1073YOPC   C1A15359  18.345   3.805   5.894 -0.1068  0.2117 -0.2873
 1073YOPC   D2A15360  18.475   3.634   6.279  0.1151 -0.3402  0.2838
 1073YOPC   C3A15361  18.204   3.671   6.595 -0.0377  0.2770 -0.0973
 1073YOPC   C4A15362  17.958   3.814   6.972 -0.2529 -0.1462  0.0994
 1073YOPC   C1B15363  18.046   4.084   6.123 -0.0166  0.0496 -0.2453
 1073YOPC   C2B15364  18.274   4.150   6.531 -0.0183  0.2961  0.0135
 1073YOPC   D3B15365  17.990   4.262   6.721 -0.0868  0.3176 -0.2735
 1073YOPC   C4B15366  17.561   4.147   6.901 -0.3567  0.2915 -0.0173
 1074YOPC   NC315367  10.868  11.146   5.083 -0.0372 -0.2415 -0.2417
 1074YOPC   PO415368  11.209  11.304   5.211  0.1602 -0.0771 -0.1224
 1074YOPC   GL115369  11.385  11.086   5.569  0.0714  0.1953 -0.0125
 1074YOPC   GL215370  11.355  10.781   5.650 -0.0706 -0.3264 -0.0784
 1074YOPC   C1A15371  11.411  11.108   6.038 -0.2938 -0.1229 -0.3741
 1074YOPC   D2A15372  11.484  10.830   6.438  0.0377  0.2733 -0.3675
 1074YOPC   C3A15373  11.843  10.597   6.392 -0.0406 -0.1389 -0.0771
 1074YOPC   C4A15374  12.077  10.378   6.103  0.3605  0.0586 -0.0702
 1074YOPC   C1B15375  11.072  10.706   6.087 -0.2987  0.0796  0.2897
 1074YOPC   C2B15376  10.960  11.113   6.266  0.0605 -0.1515  0.0387
 1074YOPC   D3B15377  11.311  11.427   6.377  0.0568 -0.0174 -0.0613
 1074YOPC   C4B15378  11.719  11.449   6.320 -0.2105  0.0119 -0.1534
 1075YOPC   NC315379  13.988   8.869   5.354 -0.1720  0.1960 -0.0942
 1075YOPC   PO415380  14.202   9.295   5.294  0.0106  0.0230  0.5497
 1075YOPC   GL115381  14.100   9.379   5.657 -0.1723 -0.2168 -0.3039
 1075YOPC   GL215382  14.022   9.595   5.696 -0.1895  0.1367  0.1827
 1075YOPC   C1A15383  14.076   9.222   6.129 -0.0327 -0.1408  0.1074
 1075YOPC   D2A15384  13.930   8.855   6.330  0.4086  0.2512  0.3478
 1075YOPC   C3A15385  13.727   8.584   6.569  0.1148 -0.0499  0.0319
 1075YOPC   C4A15386  13.498   8.377   6.972 -0.0185  0.0315 -0.1032
 1075YOPC   C1B15387  13.693   9.534   6.046 -0.0479  0.1932  0.1351
 1075YOPC   C2B15388  13.505   9.873   6.293  0.1140 -0.0992  0.0101
 1075YOPC   D3B15389  13.724  10.261   6.454  0.3448 -0.0841  0.0557
 1075YOPC   C4B15390  13.815  10.507   6.772  0.1437 -0.2391 -0.2341
 1076YOPC   NC315391  16.949   4.437   5.554 -0.5393 -0.0277 -0.1786
 1076YOPC   PO415392  17.174   4.824   5.613 -0.1603  0.1405  0.0312
 1076YOPC   GL115393  16.795   4.968   5.806 -0.1214 -0.0919 -0.0773
 1076YOPC   GL215394  16.593   4.744   5.910 -0.4057 -0.0288 -0.3631
 1076YOPC   C1A15395  16.715   5.164   6.126  0.0505 -0.0161  0.2357
 1076YOPC   D2A15396  16.698   5.446   6.580 -0.1801  0.1929  0.2144
 1076YOPC   C3A15397  16.767   5.364   6.967 -0.1202 -0.1180 -0.4211
 1076YOPC   C4A15398  17.142   5.142   7.228 -0.1205  0.1092  0.1090
 1076YOPC   C1B15399  16.365   4.794   6.341  0.0211 -0.0834 -0.1416
 1076YOPC   C2B15400  16.443   5.072   6.579  0.4778  0.0679  0.4066
 1076YOPC   D3B15401  16.388   5.027   7.016  0.2427 -0.2902 -0.0794
 1076YOPC   C4B15402  16.263   5.092   7.426  0.3594 -0.0303  0.0395
 1077YOPC   NC315403  12.289  14.657   5.427 -0.1557 -0.2066 -0.0596
 1077YOPC   PO415404  12.749  14.616   5.356  0.0277  0.1087 -0.0581
 1077YOPC   GL115405  12.768  14.801   5.724  0.1046 -0.3264 -0.3095
 1077YOPC   GL215406  12.558  14.963   5.781  0.2461  0.1627 -0.0250
 1077YOPC   C1A15407  12.822  14.592   6.065 -0.0985  0.4335 -0.1157
 1077YOPC   D2A15408  12.962  14.173   6.315  0.3153 -0.1860 -0.2094
 1077YOPC   C3A15409  12.937  14.227   6.682 -0.2974  0.3454 -0.1358
 1077YOPC   C4A15410  12.995  14.347   7.119 -0.2027  0.1618 -0.0770
 1077YOPC   C1B15411  12.418  15.111   6.031  0.2376  0.1139 -0.2665
 1077YOPC   C2B15412  12.088  15.411   6.138 -0.1599 -0.1622  0.2030
 1077YOPC   D3B15413  11.917  15.630   5.807 -0.1103 -0.1762 -0.0971
 1077YOPC   C4B15414  11.560  15.840   5.728 -0.0332  0.0813  0.2263
 1078YOPC   NC315415  17.506  10.662   5.731  0.1626  0.1697  0.2182
 1078YOPC   PO415416  17.447  10.253   5.696 -0.1459 -0.2455  0.0789
 1078YOPC   GL115417  17.518  10.184   6.107  0.1389 -0.1404 -0.1101
 1078YOPC   GL215418  17.421  10.015   6.405  0.0921  0.4662 -0.2873
 1078YOPC   C1A15419  17.805  10.331   6.442  0.2688  0.0052  0.0346
 1078YOPC   D2A15420  17.854  10.352   6.805 -0.1806  0.0361 -0.1448
 1078YOPC   C3A15421  17.960  10.527   7.147 -0.0432  0.1415  0.0982
 1078YOPC   C4A15422  17.996  10.773   7.510 -0.1539  0.1042  0.1334
 1078YOPC   C1B15423  17.470  10.010   6.821 -0.3992 -0.0203  0.1405
 1078YOPC   C2B15424  17.140   9.926   7.113  0.3548 -0.0617 -0.0712
 1078YOPC   D3B15425  17.010   9.533   7.382 -0.2322  0.2796  0.1712
 1078YOPC   C4B15426  16.827   9.171   7.374  0.3044  0.1292 -0.1835
 1079YOPC   NC315427   1.989  16.567   4.790 -0.1358  0.1705 -0.1354
 1079YOPC   PO415428   2.026  16.535   5.215 -0.0844  0.1011  0.0086
 1079YOPC   GL115429   2.275  16.711   5.552 -0.1235 -0.1510  0.4914
 1079YOPC   GL215430   2.435  16.491   5.795  0.0279 -0.1573  0.1816
 1079YOPC   C1A15431   2.478  17.045   5.869 -0.0138 -0.0400  0.0886
 1079YOPC   D2A15432   2.677  16.869   6.193  0.3625 -0.0721 -0.0647
 1079YOPC   C3A15433   2.647  17.078   6.542  0.0990 -0.2445  0.1300
 1079YOPC   C4A15434   2.694  17.122   6.925  0.1494  0.0622  0.2004
 1079YOPC   C1B15435   2.114  16.358   5.990 -0.1821  0.0878 -0.1412
 1079YOPC   C2B15436   1.859  16.046   5.969 -0.4687  0.0546 -0.0976
 1079YOPC   D3B15437   1.937  15.880   6.353 -0.1758 -0.3818  0.0675
 1079YOPC   C4B15438   2.224  15.659   6.535 -0.3385 -0.0910 -0.0160
 1080YOPC   NC315439  13.224   9.416   4.783  0.1443 -0.3273  0.2628
 1080YOPC   PO415440  13.108   9.474   5.202  0.4617  0.0408  0.2455
 1080YOPC   GL115441  12.973   9.575   5.608 -0.1344  0.0742 -0.1299
 1080YOPC   GL215442  13.262   9.640   5.797 -0.0053 -0.1866 -0.0985
 1080YOPC   C1A15443  12.721   9.758   5.987 -0.0570  0.0696 -0.0800
 1080YOPC   D2A15444  12.353   9.871   6.131 -0.2123  0.0987  0.2040
 1080YOPC   C3A15445  12.095   9.618   5.949  0.2974 -0.0782  0.1085
 1080YOPC   C4A15446  11.631   9.426   5.909  0.0819 -0.1620  0.0113
 1080YOPC   C1B15447  13.150   9.508   6.223 -0.0637 -0.0136  0.0786
 1080YOPC   C2B15448  12.990   9.423   6.619 -0.3180  0.0404  0.1085
 1080YOPC   D3B15449  13.218   9.568   7.061 -0.0777  0.1856 -0.3344
 1080YOPC   C4B15450  13.118   9.766   7.514 -0.4679  0.0339  0.1412
 1081YOPC   NC315451   9.356   1.169   5.009 -0.6512 -0.0227 -0.4471
 1081YOPC   PO415452   9.790   1.115   4.834 -0.0117 -0.0951  0.0769
 1081YOPC   GL115453  10.101   1.036   5.185 -0.1682  0.0580 -0.0097
 1081YOPC   GL215454   9.917   1.048   5.424  0.1536 -0.0308 -0.0333
 1081YOPC   C1A15455  10.275   0.997   5.716  0.3322 -0.0368 -0.0529
 1081YOPC   D2A15456  10.274   0.802   6.177 -0.2897  0.1090 -0.0674
 1081YOPC   C3A15457   9.900   1.016   6.441 -0.1065 -0.1516 -0.0745
 1081YOPC   C4A15458   9.600   0.934   6.732 -0.3292 -0.1252  0.0649
 1081YOPC   C1B15459   9.828   0.780   5.681 -0.0407 -0.0839 -0.3027
 1081YOPC   C2B15460   9.795   0.601   5.954 -0.1928 -0.2732 -0.3289
 1081YOPC   D3B15461  10.189   0.271   6.112  0.1277  0.1603 -0.1536
 1081YOPC   C4B15462  10.374  -0.096   5.970 -0.0219 -0.3489  0.2551
 1082YOPC   NC315463  11.037  14.346   4.433  0.3353  0.1058 -0.0877
 1082YOPC   PO415464  10.867  14.209   4.738  0.2158 -0.0874  0.2824
 1082YOPC   GL115465  10.807  14.582   5.010 -0.3955 -0.3947  0.0049
 1082YOPC   GL215466  11.075  14.694   5.114 -0.0427 -0.1678  0.2521
 1082YOPC   C1A15467  10.458  14.546   5.183 -0.0123  0.1438 -0.3671
 1082YOPC   D2A15468  10.097  14.415   5.409 -0.2925 -0.0553  0.0181
 1082YOPC   C3A15469  10.116  14.463   5.826  0.0668  0.1383 -0.4643
 1082YOPC   C4A15470  10.116  14.325   6.284 -0.1303  0.0470  0.0600
 1082YOPC   C1B15471  10.859  14.734   5.481  0.0317  0.0244 -0.2326
 1082YOPC   C2B15472  10.499  14.805   5.794 -0.0160  0.3611  0.2001
 1082YOPC   D3B15473  10.199  14.921   5.584 -0.3139 -0.2261  0.0527
 1082YOPC   C4B15474  10.141  14.947   5.116  0.1680 -0.2076  0.4013
 1083YOPC   NC315475   7.573   7.385   5.600  0.1017  0.2246 -0.2904
 1083YOPC   PO415476   7.417   7.041   5.475  0.1361 -0.3458 -0.2246
 1083YOPC   GL115477   7.048   7.043   5.741  0.2129 -0.2269 -0.1122
 1083YOPC   GL215478   7.226   7.160   5.941 -0.1378  0.3227  0.2411
 1083YOPC   C1A15479   6.632   7.339   5.953 -0.2178  0.0361  0.1057
 1083YOPC   D2A15480   6.453   7.717   6.227  0.2077  0.1858 -0.2378
 1083YOPC   C3A15481   6.555   7.660   6.655 -0.0463  0.1671  0.2566
 1083YOPC   C4A15482   6.451   7.547   7.037 -0.0655  0.0544 -0.0389
 1083YOPC   C1B15483   7.256   7.582   6.162 -0.0928  0.2755 -0.1691
 1083YOPC   C2B15484   7.315   8.064   6.141  0.0700  0.2408 -0.6454
 1083YOPC   D3B15485   7.527   8.397   6.374  0.2100 -0.0801  0.0451
 1083YOPC   C4B15486   7.708   8.720   6.583 -0.1189 -0.2632  0.0448
 1084YOPC   NC315487   8.713   1.933   4.908 -0.0999 -0.0037  0.2609
 1084YOPC   PO415488   8.306   1.867   4.919 -0.3360 -0.4024  0.1800
 1084YOPC   GL115489   8.383   1.805   5.376  0.0623  0.1870 -0.0663
 1084YOPC   GL215490   8.780   1.849   5.375  0.0595  0.2767 -0.0949
 1084YOPC   C1A15491   8.211   1.907   5.699  0.2547 -0.0428 -0.0378
 1084YOPC   D2A15492   8.384   1.838   6.087  0.2072  0.1931  0.0184
 1084YOPC   C3A15493   8.710   1.915   6.213 -0.1359 -0.3537  0.1683
 1084YOPC   C4A15494   9.194   1.984   6.065  0.1325  0.3505 -0.1442
 1084YOPC   C1B15495   8.805   1.711   5.804  0.0270 -0.1744 -0.2884
 1084YOPC   C2B15496   9.116   1.367   6.005 -0.0074 -0.2577  0.2941
 1084YOPC   D3B15497   8.961   1.060   6.297 -0.0716  0.2003  0.0454
 1084YOPC   C4B15498   9.121   0.765   6.556 -0.3755 -0.0204  0.1722
 1085YOPC   NC315499  18.289  16.304   5.462  0.2275  0.2704  0.0137
 1085YOPC   PO415500  18.623  16.664   5.403  0.1458 -0.0230 -0.1646
 1085YOPC   GL115501  18.556  16.569   5.885  0.0009 -0.0467  0.1798
 1085YOPC   GL215502  18.382  16.812   6.138  0.1096  0.0371  0.2590
 1085YOPC   C1A15503  18.852  16.431   6.244  0.0665  0.0632  0.2667
 1085YOPC   D2A15504  19.128  16.200   6.485  0.0127 -0.0101  0.1741
 1085YOPC   C3A15505  19.111  15.704   6.627  0.1580 -0.2744  0.1616
 1085YOPC   C4A15506  18.911  15.518   6.922  0.2052  0.3215  0.0011
 1085YOPC   C1B15507  18.687  16.908   6.342  0.2912 -0.0432 -0.0784
 1085YOPC   C2B15508  19.049  17.195   6.326  0.1846  0.0728 -0.0888
 1085YOPC   D3B15509  19.259  17.277   6.617  0.0539 -0.1090  0.0855
 1085YOPC   C4B15510  19.520  17.456   7.043  0.2557 -0.0833  0.2808
 1086YOPC   NC315511   1.570   5.534   5.532 -0.4666  0.1245 -0.4346
 1086YOPC   PO415512   1.849   5.281   5.488  0.0241  0.1323  0.1566
 1086YOPC   GL115513   1.929   5.356   5.969  0.0635  0.0097  0.0971
 1086YOPC   GL215514   1.626   5.300   6.182  0.1907 -0.0693 -0.1874
 1086YOPC   C1A15515   2.139   5.580   6.355  0.2705 -0.2234 -0.2435
 1086YOPC   D2A15516   2.265   5.985   6.443  0.1121 -0.2403 -0.0902
 1086YOPC   C3A15517   2.512   6.309   6.399 -0.2441 -0.0606  0.1844
 1086YOPC   C4A15518   2.347   6.805   6.384  0.0927  0.2599  0.0151
 1086YOPC   C1B15519   1.755   4.916   6.216 -0.1779 -0.0865  0.2606
 1086YOPC   C2B15520   2.051   4.681   6.313  0.1119  0.3391  0.0568
 1086YOPC   D3B15521   1.838   4.443   6.602 -0.0168 -0.0337 -0.1078
 1086YOPC   C4B15522   1.708   4.630   6.952 -0.0786 -0.0900  0.3151
 1087YOPC   NC315523  12.267  17.497   4.845  0.0500  0.2183 -0.0232
 1087YOPC   PO415524  12.018  17.834   5.007  0.0832  0.2782 -0.0226
 1087YOPC   GL115525  11.795  17.720   5.411  0.0397 -0.1162 -0.3139
 1087YOPC   GL215526  11.473  17.787   5.421  0.3202  0.2758 -0.0994
 1087YOPC   C1A15527  11.614  17.809   5.900  0.0381  0.2430  0.0297
 1087YOPC   D2A15528  11.471  18.253   6.191 -0.0075 -0.1563 -0.2127
 1087YOPC   C3A15529  11.182  18.227   6.616 -0.3478 -0.2249  0.0791
 1087YOPC   C4A15530  10.862  18.294   6.919 -0.1973 -0.0321  0.0033
 1087YOPC   C1B15531  11.432  17.343   5.589  0.0623  0.1766 -0.1025
 1087YOPC   C2B15532  11.687  17.079   5.850  0.1861 -0.0813  0.0667
 1087YOPC   D3B15533  11.808  17.349   6.103  0.2006  0.1154  0.0251
 1087YOPC   C4B15534  12.008  17.669   6.263  0.3599  0.2716 -0.3959
 1088YOPC   NC315535  12.985  13.195   5.264  0.2582 -0.0005 -0.1043
 1088YOPC   PO415536  13.314  13.053   5.427 -0.0646  0.1339  0.0913
 1088YOPC   GL115537  13.336  13.308   5.795 -0.3553 -0.0367 -0.0029
 1088YOPC   GL215538  13.059  13.392   5.840  0.4842 -0.0280  0.1256
 1088YOPC   C1A15539  13.356  13.264   6.290 -0.5209  0.1936 -0.1775
 1088YOPC   D2A15540  13.468  13.169   6.755  0.3990 -0.0491  0.2235
 1088YOPC   C3A15541  13.257  12.918   7.005 -0.5830  0.1233  0.0016
 1088YOPC   C4A15542  13.231  12.958   7.520  0.0479 -0.0509  0.1461
 1088YOPC   C1B15543  12.940  12.989   6.104 -0.2570  0.1310 -0.2435
 1088YOPC   C2B15544  12.574  13.032   6.428  0.0788  0.3473 -0.3503
 1088YOPC   D3B15545  12.425  13.379   6.637  0.1334 -0.3496  0.0941
 1088YOPC   C4B15546  12.198  13.602   6.564 -0.0799 -0.2024  0.2684
 1089YOPC   NC315547  18.503   2.638   5.087  0.1454  0.0321 -0.1658
 1089YOPC   PO415548  18.404   2.540   5.506  0.0653  0.1291 -0.2624
 1089YOPC   GL115549  18.367   2.623   6.007 -0.1030 -0.3243 -0.1600
 1089YOPC   GL215550  18.373   2.904   6.132 -0.0818 -0.0200 -0.2239
 1089YOPC   C1A15551  18.265   2.598   6.482 -0.0273  0.0424 -0.4659
 1089YOPC   D2A15552  18.245   2.432   6.854 -0.0630  0.2923 -0.0807
 1089YOPC   C3A15553  18.105   1.992   7.023 -0.0261 -0.0819 -0.3201
 1089YOPC   C4A15554  18.059   1.925   7.463 -0.1344  0.3210  0.1590
 1089YOPC   C1B15555  18.400   3.125   6.459  0.0830  0.1525  0.3454
 1089YOPC   C2B15556  18.629   3.386   6.795  0.0997 -0.1168  0.0426
 1089YOPC   D3B15557  18.451   3.733   7.061 -0.0111  0.2976  0.1871
 1089YOPC   C4B15558  18.608   4.123   7.027  0.2294 -0.0308  0.2030
 1090YOPC   NC315559   8.839   5.469   5.342  0.0054  0.0692 -0.1097
 1090YOPC   PO415560   8.865   5.063   5.310 -0.0268  0.0458  0.0553
 1090YOPC   GL115561   8.877   5.166   5.727  0.3497  0.0542  0.0614
 1090YOPC   GL215562   8.551   5.281   5.823  0.1343 -0.2685 -0.3127
 1090YOPC   C1A15563   8.993   5.067   6.091  0.2946 -0.3173  0.2337
 1090YOPC   D2A15564   8.858   5.043   6.571 -0.1266 -0.0268  0.0492
 1090YOPC   C3A15565   8.390   4.994   6.787 -0.1455 -0.1433  0.2031
 1090YOPC   C4A15566   8.213   4.573   6.807  0.3483  0.0646 -0.3692
 1090YOPC   C1B15567   8.516   4.974   5.971  0.0910  0.0666  0.1260
 1090YOPC   C2B15568   8.496   4.791   6.313  0.0269  0.2479  0.4798
 1090YOPC   D3B15569   8.673   4.470   6.498  0.3453 -0.2189  0.5311
 1090YOPC   C4B15570   8.498   4.075   6.602 -0.0300  0.1270 -0.0962
 1091YOPC   NC315571   2.323  13.059   5.358  0.1147 -0.0568  0.0387
 1091YOPC   PO415572   1.976  12.734   5.616  0.0807  0.1330  0.0193
 1091YOPC   GL115573   2.102  12.925   6.053 -0.1068  0.1679 -0.0209
 1091YOPC   GL215574   2.429  12.908   6.204 -0.0054 -0.0786  0.2056
 1091YOPC   C1A15575   1.899  12.933   6.393 -0.0305  0.3337  0.1490
 1091YOPC   D2A15576   1.713  13.211   6.772  0.3136  0.0241 -0.1188
 1091YOPC   C3A15577   1.336  13.275   6.994 -0.4052 -0.2981  0.0241
 1091YOPC   C4A15578   1.087  13.266   7.438 -0.0630 -0.0534 -0.0659
 1091YOPC   C1B15579   2.317  12.902   6.682 -0.0472  0.0245  0.1011
 1091YOPC   C2B15580   2.320  13.064   7.077 -0.0291 -0.1846  0.1689
 1091YOPC   D3B15581   1.920  13.143   7.226  0.0330 -0.0015 -0.0081
 1091YOPC   C4B15582   1.604  12.975   7.253  0.0479  0.2066 -0.0122
 1092YOPC   NC315583  16.835  14.053   5.532  0.0499 -0.0263 -0.0262
 1092YOPC   PO415584  16.688  13.633   5.588 -0.0563  0.1021 -0.2013
 1092YOPC   GL115585  16.750  13.717   5.986 -0.1590 -0.2342  0.1060
 1092YOPC   GL215586  16.390  13.758   6.095 -0.2618  0.2200  0.3613
 1092YOPC   C1A15587  16.848  13.524   6.396  0.2408  0.1737  0.2446
 1092YOPC   D2A15588  16.812  13.193   6.709  0.0421  0.0231 -0.0725
 1092YOPC   C3A15589  16.632  13.153   7.098 -0.0317 -0.1163  0.5089
 1092YOPC   C4A15590  16.594  13.477   7.384 -0.1064  0.1413 -0.0980
 1092YOPC   C1B15591  16.440  13.804   6.543  0.1451  0.0293  0.2466
 1092YOPC   C2B15592  16.597  13.608   6.863 -0.0422 -0.1224 -0.0694
 1092YOPC   D3B15593  16.990  13.629   6.992  0.1396 -0.0804 -0.1232
 1092YOPC   C4B15594  17.181  13.219   7.078  0.0281 -0.0119  0.0292
 1093YOPC   NC315595  12.750   0.855   5.046 -0.7262 -0.0009  0.1206
 1093YOPC   PO415596  13.135   0.594   5.111  0.3388 -0.4363 -0.0779
 1093YOPC   GL115597  13.404   0.571   5.529  0.0108 -0.4257 -0.4279
 1093YOPC   GL215598  13.105   0.592   5.717 -0.1676  0.1992  0.1653
 1093YOPC   C1A15599  13.693   0.602   5.850 -0.0052 -0.0404  0.2520
 1093YOPC   D2A15600  13.706   0.565   6.168  0.1613 -0.2054 -0.2731
 1093YOPC   C3A15601  13.910   0.368   6.414  0.4089  0.1872  0.0794
 1093YOPC   C4A15602  14.290   0.298   6.737 -0.0334 -0.1581 -0.3132
 1093YOPC   C1B15603  12.793   0.795   6.116  0.0368  0.0176  0.4410
 1093YOPC   C2B15604  12.479   0.993   6.434 -0.3117 -0.0972  0.3535
 1093YOPC   D3B15605  12.470   1.368   6.587  0.2377 -0.0093  0.1552
 1093YOPC   C4B15606  12.440   1.771   6.765 -0.5406  0.0793  0.1409
 1094YOPC   NC315607   0.151   0.834   5.252  0.1202  0.1885 -0.0866
 1094YOPC   PO415608  -0.319   0.674   5.347  0.2158  0.1493  0.3276
 1094YOPC   GL115609  -0.174   0.940   5.596  0.0811  0.0084  0.0614
 1094YOPC   GL215610  -0.094   0.757   5.903  0.3842 -0.1341  0.0016
 1094YOPC   C1A15611  -0.061   1.305   5.828 -0.0498 -0.0676 -0.1008
 1094YOPC   D2A15612  -0.232   1.492   6.266  0.1721 -0.1137 -0.0686
 1094YOPC   C3A15613  -0.603   1.470   6.603  0.0188  0.2002 -0.2095
 1094YOPC   C4A15614  -0.906   1.632   6.918  0.1733 -0.1928  0.1745
 1094YOPC   C1B15615  -0.104   0.940   6.327  0.0239  0.0921  0.0424
 1094YOPC   C2B15616  -0.058   1.170   6.718 -0.2971 -0.1752 -0.2671
 1094YOPC   D3B15617  -0.196   1.593   6.861 -0.2345  0.1920  0.1915
 1094YOPC   C4B15618   0.089   1.890   6.925 -0.0579 -0.0896 -0.3253
 1095YOPC   NC315619   4.351  10.915   5.704 -0.2550  0.3357 -0.1981
 1095YOPC   PO415620   3.862  10.850   5.793  0.2249  0.2520 -0.0969
 1095YOPC   GL115621   3.735  10.910   6.196 -0.1075  0.2974  0.0936
 1095YOPC   GL215622   4.026  11.038   6.282  0.0601  0.2603  0.0672
 1095YOPC   C1A15623   3.569  10.739   6.682  0.1177  0.0043 -0.2304
 1095YOPC   D2A15624   3.933  10.615   7.088  0.1393 -0.0023 -0.0237
 1095YOPC   C3A15625   3.974  10.313   7.335 -0.2907 -0.4270 -0.1990
 1095YOPC   C4A15626   4.418  10.267   7.595  0.3504  0.0001 -0.1271
 1095YOPC   C1B15627   3.866  11.170   6.677 -0.0118  0.0885 -0.0326
 1095YOPC   C2B15628   3.628  11.135   6.999 -0.1574  0.2528 -0.1320
 1095YOPC   D3B15629   3.352  11.409   7.104  0.1277 -0.0966  0.0793
 1095YOPC   C4B15630   3.000  11.235   7.132 -0.2440 -0.2654  0.0806
 1096YOPC   NC315631  16.569  11.866   5.738  0.2161 -0.0014  0.0673
 1096YOPC   PO415632  16.765  12.244   5.590  0.1053  0.1899  0.2081
 1096YOPC   GL115633  16.687  12.309   6.064  0.3571  0.2519  0.3711
 1096YOPC   GL215634  16.233  12.333   6.237  0.0671 -0.1282 -0.0053
 1096YOPC   C1A15635  16.650  12.132   6.552 -0.2431  0.1354  0.2433
 1096YOPC   D2A15636  16.496  11.727   6.729 -0.1899 -0.0552  0.1812
 1096YOPC   C3A15637  16.560  11.859   7.180 -0.3595 -0.1511  0.2732
 1096YOPC   C4A15638  16.649  11.846   7.541  0.1246  0.0340 -0.0791
 1096YOPC   C1B15639  16.194  12.237   6.806  0.1108 -0.1358 -0.1841
 1096YOPC   C2B15640  16.549  12.346   7.018  0.1527 -0.0074 -0.0314
 1096YOPC   D3B15641  16.936  12.118   6.947  0.0986  0.0199  0.0397
 1096YOPC   C4B15642  17.142  11.845   7.268  0.1414 -0.2162  0.0722
 1097YOPC   NC315643  18.237  16.873   5.679  0.0227 -0.0753  0.0895
 1097YOPC   PO415644  17.915  16.587   5.738  0.2307 -0.2031 -0.2324
 1097YOPC   GL115645  17.872  16.678   6.081  0.3045  0.3012 -0.0533
 1097YOPC   GL215646  17.948  17.024   6.028 -0.1557 -0.0956 -0.4665
 1097YOPC   C1A15647  17.924  16.449   6.439  0.1555  0.0064  0.0922
 1097YOPC   D2A15648  17.990  16.350   6.899 -0.2735  0.3416  0.4453
 1097YOPC   C3A15649  18.135  15.898   6.960 -0.1712  0.0358  0.2012
 1097YOPC   C4A15650  18.053  15.526   7.250  0.2108  0.1701  0.2500
 1097YOPC   C1B15651  18.062  16.944   6.457  0.0305 -0.3447 -0.1549
 1097YOPC   C2B15652  18.280  16.675   6.670 -0.0748 -0.3532 -0.0690
 1097YOPC   D3B15653  18.593  16.657   7.064  0.0693 -0.2815  0.0954
 1097YOPC   C4B15654  18.967  16.436   6.909  0.0766 -0.0336 -0.0522
 1098YOPC   NC315655  16.418   9.573   6.143 -0.0338 -0.0115 -0.0183
 1098YOPC   PO415656  16.209   9.777   5.796 -0.1905 -0.0226  0.1252
 1098YOPC   GL115657  15.984   9.836   6.156  0.2172  0.1514  0.0455
 1098YOPC   GL215658  16.068  10.083   6.340 -0.1559  0.1012 -0.0275
 1098YOPC   C1A15659  15.800   9.609   6.524  0.0122 -0.0284 -0.0824
 1098YOPC   D2A15660  15.580   9.407   6.818 -0.2516 -0.2711 -0.2799
 1098YOPC   C3A15661  15.789   9.104   6.986 -0.0488  0.1280 -0.1498
 1098YOPC   C4A15662  16.184   8.908   7.032  0.2170  0.0376 -0.0722
 1098YOPC   C1B15663  16.016  10.262   6.641 -0.0547 -0.2679 -0.2714
 1098YOPC   C2B15664  16.315  10.167   6.982  0.1332 -0.2500  0.0065
 1098YOPC   D3B15665  16.229  10.055   7.325  0.1566  0.2912  0.0710
 1098YOPC   C4B15666  16.590   9.766   7.510  0.2378 -0.1545 -0.1410
 1099YOPC   NC315667  15.573  17.796   5.109 -0.3745 -0.1058  0.0676
 1099YOPC   PO415668  15.713  18.014   5.448 -0.0467  0.4054  0.2993
 1099YOPC   GL115669  15.624  18.055   5.838  0.0716  0.2647  0.0951
 1099YOPC   GL215670  15.844  18.115   6.080 -0.1711 -0.0455  0.0049
 1099YOPC   C1A15671  15.476  17.911   6.229  0.0887 -0.3057 -0.0070
 1099YOPC   D2A15672  15.782  17.677   6.512  0.4077 -0.2333  0.0354
 1099YOPC   C3A15673  15.565  17.571   6.876 -0.0265  0.1067 -0.0367
 1099YOPC   C4A15674  15.668  17.786   7.233  0.1007 -0.0282  0.1989
 1099YOPC   C1B15675  15.949  18.127   6.426  0.0795  0.3605  0.0507
 1099YOPC   C2B15676  16.268  17.986   6.708  0.4039  0.0217  0.0253
 1099YOPC   D3B15677  16.548  17.755   6.659 -0.0248 -0.0477 -0.2495
 1099YOPC   C4B15678  16.795  17.376   6.540 -0.1135  0.0310 -0.3223
 1100YOPC   NC315679  16.334  12.257   5.320  0.2089  0.0479  0.3917
 1100YOPC   PO415680  15.889  12.327   5.531 -0.1134  0.0601 -0.2341
 1100YOPC   GL115681  15.765  12.345   5.936  0.1051 -0.2939 -0.0123
 1100YOPC   GL215682  15.877  12.598   5.965  0.0559 -0.3520  0.1425
 1100YOPC   C1A15683  15.750  12.357   6.423  0.0375 -0.0053 -0.3458
 1100YOPC   D2A15684  15.673  12.135   6.738 -0.0786  0.2393  0.1615
 1100YOPC   C3A15685  15.575  12.150   7.149  0.2478  0.0161 -0.2256
 1100YOPC   C4A15686  15.228  12.139   7.378  0.1422 -0.0947 -0.3978
 1100YOPC   C1B15687  16.046  12.735   6.463  0.1823 -0.1104 -0.0095
 1100YOPC   C2B15688  16.339  12.893   6.808 -0.3169  0.0700  0.1209
 1100YOPC   D3B15689  16.263  12.794   7.178 -0.0386 -0.0096  0.1221
 1100YOPC   C4B15690  16.118  12.775   7.603  0.2107  0.2676 -0.0801
 1101YOPC   NC315691  12.130  12.482   4.703  0.0222 -0.0379 -0.4747
 1101YOPC   PO415692  12.224  12.188   5.046  0.3752  0.1132 -0.0887
 1101YOPC   GL115693  12.221  11.930   5.437  0.2126 -0.0109 -0.1892
 1101YOPC   GL215694  12.414  12.019   5.688  0.0577  0.0090 -0.0653
 1101YOPC   C1A15695  11.865  11.955   5.771 -0.3370  0.2335  0.0713
 1101YOPC   D2A15696  11.583  11.869   6.141  0.0205 -0.0048 -0.1620
 1101YOPC   C3A15697  11.618  12.012   6.591  0.1626  0.1927  0.0006
 1101YOPC   C4A15698  11.410  12.169   6.945 -0.0140 -0.0731 -0.1358
 1101YOPC   C1B15699  12.489  12.114   6.163 -0.2350  0.0727  0.0026
 1101YOPC   C2B15700  12.633  11.960   6.666 -0.1688 -0.0652  0.2732
 1101YOPC   D3B15701  12.333  12.200   6.803  0.1029 -0.0187 -0.0094
 1101YOPC   C4B15702  11.931  12.275   7.136 -0.0514  0.3102 -0.1800
 1102YOPC   NC315703   5.444  12.123   5.119  0.1454 -0.2356  0.0405
 1102YOPC   PO415704   5.146  11.821   5.120 -0.2698  0.1683  0.0832
 1102YOPC   GL115705   5.391  11.868   5.512 -0.2105  0.3061 -0.0381
 1102YOPC   GL215706   5.462  12.088   5.606 -0.0672 -0.1196  0.0259
 1102YOPC   C1A15707   5.656  11.734   5.896  0.0039  0.0473 -0.3895
 1102YOPC   D2A15708   5.880  11.450   6.270  0.0275 -0.0921 -0.1990
 1102YOPC   C3A15709   6.006  11.663   6.632  0.0831  0.0642  0.3708
 1102YOPC   C4A15710   6.266  11.382   6.865  0.1283 -0.0642  0.0435
 1102YOPC   C1B15711   5.728  12.367   5.802 -0.0034  0.3675  0.0847
 1102YOPC   C2B15712   5.916  12.531   6.228 -0.0788  0.2543  0.0727
 1102YOPC   D3B15713   6.033  12.290   6.577 -0.0215 -0.0172  0.1530
 1102YOPC   C4B15714   5.900  12.142   7.012  0.0979  0.0261 -0.0314
 1103YOPC   NC315715  18.527   0.224   5.464  0.1524 -0.0031 -0.1316
 1103YOPC   PO415716  18.525  -0.280   5.503 -0.1805  0.2967  0.2776
 1103YOPC   GL115717  18.549  -0.122   5.983  0.2763  0.1632  0.1397
 1103YOPC   GL215718  18.810   0.055   5.919 -0.0418  0.4572  0.0841
 1103YOPC   C1A15719  18.578   0.249   6.405 -0.4050 -0.0207  0.1032
 1103YOPC   D2A15720  18.984   0.583   6.562 -0.2506 -0.1005  0.0817
 1103YOPC   C3A15721  18.756   0.899   6.730 -0.0191  0.2393  0.1507
 1103YOPC   C4A15722  18.613   1.132   7.106  0.0829  0.0898 -0.2027
 1103YOPC   C1B15723  19.130   0.268   6.148  0.0453  0.5874 -0.3404
 1103YOPC   C2B15724  19.402   0.113   6.417  0.0587  0.0627 -0.1443
 1103YOPC   D3B15725  19.376   0.332   6.786 -0.0680  0.1150  0.3846
 1103YOPC   C4B15726  19.314   0.726   6.977 -0.0650 -0.0921 -0.4565
 1104YOPC   NC315727   2.643  18.536   5.161 -0.0149 -0.1367  0.2060
 1104YOPC   PO415728   2.538  19.005   5.130  0.2104 -0.0692 -0.1540
 1104YOPC   GL115729   2.537  18.986   5.457  0.0660 -0.0645 -0.0248
 1104YOPC   GL215730   2.579  18.712   5.631 -0.1477  0.1782  0.0879
 1104YOPC   C1A15731   2.257  19.014   5.920  0.2633  0.1394  0.0559
 1104YOPC   D2A15732   2.081  18.981   6.406  0.2590 -0.3500 -0.0364
 1104YOPC   C3A15733   1.758  19.105   6.662  0.2213 -0.0737 -0.2551
 1104YOPC   C4A15734   1.514  19.277   6.943 -0.1230 -0.0224 -0.1051
 1104YOPC   C1B15735   2.336  18.543   6.022 -0.1155  0.3312  0.2683
 1104YOPC   C2B15736   2.165  18.267   6.245 -0.1257 -0.3239  0.1333
 1104YOPC   D3B15737   2.482  18.274   6.544  0.0863  0.1608 -0.0355
 1104YOPC   C4B15738   2.914  18.363   6.655 -0.0422  0.3309 -0.0913
 1105YOPC   NC315739  12.205   3.892   5.200 -0.2594 -0.0785  0.0953
 1105YOPC   PO415740  12.601   3.550   5.360  0.0976  0.0135  0.1153
 1105YOPC   GL115741  12.735   3.571   5.733 -0.1578  0.3084 -0.0495
 1105YOPC   GL215742  13.125   3.598   5.792 -0.2655 -0.0939 -0.1248
 1105YOPC   C1A15743  12.671   3.589   6.167  0.3923 -0.0942 -0.0515
 1105YOPC   D2A15744  12.589   3.624   6.674  0.2263  0.1866  0.1063
 1105YOPC   C3A15745  12.253   3.551   6.941  0.0202  0.0283 -0.0151
 1105YOPC   C4A15746  12.118   3.783   7.282  0.3952  0.3331  0.2128
 1105YOPC   C1B15747  13.176   3.839   6.133 -0.1555 -0.0630  0.0284
 1105YOPC   C2B15748  13.300   4.195   6.427 -0.1339 -0.0851 -0.2665
 1105YOPC   D3B15749  13.624   4.068   6.757 -0.0409 -0.0590 -0.2034
 1105YOPC   C4B15750  14.031   4.110   6.790 -0.0620  0.0974  0.0765
 1106YOPC   NC315751   1.143   3.146   5.184 -0.3611  0.0934 -0.1610
 1106YOPC   PO415752   1.032   3.542   5.209  0.0479  0.2733  0.1140
 1106YOPC   GL115753   1.017   3.407   5.664 -0.0268 -0.1926 -0.1154
 1106YOPC   GL215754   0.764   3.285   5.812  0.0395  0.2008 -0.0984
 1106YOPC   C1A15755   1.144   3.656   5.989 -0.0313 -0.0777  0.2598
 1106YOPC   D2A15756   1.266   3.682   6.361 -0.3225 -0.1115 -0.1263
 1106YOPC   C3A15757   1.000   3.850   6.662 -0.2030  0.0260 -0.0851
 1106YOPC   C4A15758   0.963   4.011   7.056  0.1234  0.1620 -0.0818
 1106YOPC   C1B15759   0.507   3.362   6.131  0.1934 -0.2090 -0.0723
 1106YOPC   C2B15760   0.357   3.244   6.513  0.0059 -0.1195 -0.0241
 1106YOPC   D3B15761   0.788   3.385   6.797  0.2059  0.0531 -0.0095
 1106YOPC   C4B15762   0.681   3.593   7.167 -0.0564  0.1228 -0.4251
 1107YOPC   NC315763  14.663   4.410   5.677  0.1800 -0.0701 -0.0432
 1107YOPC   PO415764  14.871   4.029   5.709 -0.2947  0.0130  0.1635
 1107YOPC   GL115765  15.095   3.894   6.030  0.2399  0.2808  0.0715
 1107YOPC   GL215766  15.234   4.129   6.009 -0.0501 -0.0911 -0.1586
 1107YOPC   C1A15767  15.591   3.914   6.159 -0.0104  0.2950 -0.1827
 1107YOPC   D2A15768  15.773   4.350   6.457  0.0040 -0.1093  0.0106
 1107YOPC   C3A15769  16.173   4.317   6.538 -0.1345 -0.0416  0.3954
 1107YOPC   C4A15770  16.599   4.081   6.646 -0.2526 -0.1450 -0.1169
 1107YOPC   C1B15771  15.061   4.086   6.467  0.1402 -0.2196  0.0898
 1107YOPC   C2B15772  14.968   3.619   6.728  0.0780  0.0583  0.0126
 1107YOPC   D3B15773  14.651   3.324   6.783 -0.1913  0.2883  0.0290
 1107YOPC   C4B15774  14.746   2.914   7.001 -0.0304  0.0840 -0.0916
 1108YOPC   NC315775  19.226   7.324   5.732  0.4985  0.0240  0.0697
 1108YOPC   PO415776  19.608   7.496   5.730  0.0932  0.0179 -0.0618
 1108YOPC   GL115777  19.436   7.534   6.124 -0.0822  0.4726 -0.3110
 1108YOPC   GL215778  19.158   7.758   6.121  0.1871 -0.0443  0.0597
 1108YOPC   C1A15779  19.499   7.542   6.520 -0.0268 -0.0316 -0.2113
 1108YOPC   D2A15780  19.656   7.788   6.853  0.0701  0.1823  0.0284
 1108YOPC   C3A15781  19.813   7.656   7.181 -0.1869  0.0712 -0.0925
 1108YOPC   C4A15782  20.057   7.510   7.506  0.1846  0.1172 -0.1715
 1108YOPC   C1B15783  18.898   7.668   6.512  0.2998 -0.0278  0.3654
 1108YOPC   C2B15784  18.483   7.892   6.638 -0.2440 -0.0440  0.1937
 1108YOPC   D3B15785  18.100   8.169   6.546 -0.0029 -0.2418 -0.2128
 1108YOPC   C4B15786  17.785   8.213   6.282 -0.1027  0.3814  0.0516
 1109YOPC   NC315787   1.555  13.959   5.040  0.1548 -0.2401 -0.3628
 1109YOPC   PO415788   1.661  14.289   4.769 -0.1596  0.0359  0.0630
 1109YOPC   GL115789   1.758  14.425   5.277  0.0329 -0.0234 -0.1171
 1109YOPC   GL215790   2.099  14.513   5.428  0.0206 -0.0155 -0.0024
 1109YOPC   C1A15791   1.619  14.128   5.695  0.2675  0.2929 -0.3953
 1109YOPC   D2A15792   1.852  13.789   5.839  0.2273 -0.1781 -0.1107
 1109YOPC   C3A15793   2.179  13.890   6.153  0.1719  0.0154  0.1276
 1109YOPC   C4A15794   2.348  13.983   6.595  0.0306 -0.2076  0.1317
 1109YOPC   C1B15795   2.244  14.321   5.742 -0.2017 -0.0506  0.1377
 1109YOPC   C2B15796   2.215  14.369   6.215 -0.0660  0.0746 -0.1419
 1109YOPC   D3B15797   2.095  14.748   6.386  0.4673  0.1927  0.3095
 1109YOPC   C4B15798   1.812  14.904   6.733 -0.2468 -0.1753  0.2182
 1110YOPC   NC315799   4.040   7.335   5.836 -0.0827 -0.1928 -0.1906
 1110YOPC   PO415800   4.339   7.668   5.690 -0.0087 -0.2376  0.0536
 1110YOPC   GL115801   4.638   7.752   6.025 -0.0770  0.4295 -0.1721
 1110YOPC   GL215802   4.405   7.691   6.283 -0.0313  0.0207  0.2041
 1110YOPC   C1A15803   4.920   7.413   6.176  0.1315  0.1214 -0.1686
 1110YOPC   D2A15804   5.106   7.553   6.627  0.1064 -0.2090  0.0474
 1110YOPC   C3A15805   4.984   7.689   6.983 -0.1286 -0.1989 -0.0344
 1110YOPC   C4A15806   5.051   7.643   7.344  0.0297  0.2918 -0.0083
 1110YOPC   C1B15807   4.055   7.434   6.557  0.0259  0.0869  0.5306
 1110YOPC   C2B15808   4.228   7.072   6.769  0.2726  0.1597  0.0686
 1110YOPC   D3B15809   4.256   7.397   7.108 -0.0052  0.1506 -0.0739
 1110YOPC   C4B15810   4.518   7.792   7.188 -0.1906 -0.1423  0.1123
 1111YOPC   NC315811  12.717   8.601   5.166  0.1485 -0.3337 -0.1163
 1111YOPC   PO415812  13.090   8.680   5.206 -0.1025 -0.0146  0.2754
 1111YOPC   GL115813  13.248   8.660   5.597 -0.0021  0.2276  0.0723
 1111YOPC   GL215814  13.571   8.874   5.652 -0.2326  0.2275  0.0792
 1111YOPC   C1A15815  13.035   8.787   5.918  0.1438  0.1450 -0.0411
 1111YOPC   D2A15816  13.038   8.982   6.358  0.1253  0.3269  0.2986
 1111YOPC   C3A15817  12.751   8.748   6.614  0.1635  0.2248  0.3856
 1111YOPC   C4A15818  12.483   8.810   7.051 -0.0695 -0.5379 -0.0408
 1111YOPC   C1B15819  13.360   9.107   5.976 -0.2881 -0.3019  0.1076
 1111YOPC   C2B15820  13.491   9.085   6.425 -0.0498 -0.2899 -0.2599
 1111YOPC   D3B15821  13.233   8.905   6.758 -0.3897  0.0879 -0.0754
 1111YOPC   C4B15822  12.948   9.072   7.059 -0.0782 -0.1874 -0.0708
 1112YOPC   NC315823   7.246   5.760   5.215  0.3535  0.0287 -0.1729
 1112YOPC   PO415824   7.326   6.247   5.269  0.1856  0.0179  0.0993
 1112YOPC   GL115825   7.379   6.213   5.776  0.0404 -0.1304 -0.1104
 1112YOPC   GL215826   7.580   6.003   5.705 -0.4923  0.1429 -0.1431
 1112YOPC   C1A15827   7.235   6.190   6.191  0.2299  0.0465  0.1275
 1112YOPC   D2A15828   7.413   6.176   6.628 -0.0491 -0.0658 -0.0482
 1112YOPC   C3A15829   7.011   6.232   6.945  0.0303  0.0336  0.1806
 1112YOPC   C4A15830   6.629   6.213   7.065 -0.2600 -0.2553 -0.0687
 1112YOPC   C1B15831   7.737   6.111   6.118 -0.0557 -0.0119 -0.0710
 1112YOPC   C2B15832   8.026   6.194   6.456  0.4713 -0.0170 -0.3938
 1112YOPC   D3B15833   8.041   6.467   6.791  0.0000  0.1095 -0.1147
 1112YOPC   C4B15834   7.863   6.719   7.203  0.0374  0.2941  0.3062
 1113YOPC   NC315835  10.485  10.814   5.169  0.1727  0.0962 -0.1070
 1113YOPC   PO415836  10.338  11.218   5.121 -0.2764  0.1141 -0.1369
 1113YOPC   GL115837  10.138  11.261   5.464 -0.2756 -0.1155 -0.0012
 1113YOPC   GL215838  10.405  11.114   5.661  0.0129 -0.1398 -0.0595
 1113YOPC   C1A15839   9.899  11.371   5.760  0.2900 -0.1095  0.2892
 1113YOPC   D2A15840   9.503  11.425   5.995  0.1290 -0.2462 -0.0239
 1113YOPC   C3A15841   9.372  11.443   6.501 -0.0676  0.1494  0.0063
 1113YOPC   C4A15842   9.193  11.611   6.743  0.0530  0.1623  0.1985
 1113YOPC   C1B15843  10.352  11.555   5.785 -0.0957  0.1807 -0.1135
 1113YOPC   C2B15844  10.279  11.788   6.136  0.0196  0.1196 -0.0630
 1113YOPC   D3B15845  10.054  12.278   6.071 -0.0641  0.0460  0.0788
 1113YOPC   C4B15846   9.753  12.394   5.757  0.2109 -0.0664 -0.1477
 1114YOPC   NC315847   2.817  10.767   6.083 -0.0265  0.3149 -0.3524
 1114YOPC   PO415848   2.934  11.264   6.045 -0.2478 -0.1928 -0.2371
 1114YOPC   GL115849   3.114  11.107   6.377 -0.1546  0.0298 -0.0265
 1114YOPC   GL215850   3.346  11.252   6.482  0.1394 -0.1673  0.1557
 1114YOPC   C1A15851   3.105  10.931   6.762 -0.1381 -0.3391  0.0755
 1114YOPC   D2A15852   3.198  10.709   7.053  0.0762 -0.2699  0.1465
 1114YOPC   C3A15853   3.186  10.869   7.485  0.3597 -0.2395 -0.2286
 1114YOPC   C4A15854   2.995  11.207   7.685  0.1627 -0.3881  0.4409
 1114YOPC   C1B15855   3.079  11.456   6.707 -0.1000 -0.0103 -0.1809
 1114YOPC   C2B15856   3.005  11.916   6.937  0.3094  0.1539 -0.0648
 1114YOPC   D3B15857   2.938  12.300   6.701  0.2175  0.1255  0.0962
 1114YOPC   C4B15858   2.805  12.620   6.289 -0.0590 -0.0303  0.1725
 1115ERGO   ROH15859  12.157  12.935   5.632 -0.0620  0.1032 -0.0210
 1115ERGO    R115860  12.101  13.055   5.882 -0.1673 -0.0662  0.0388
 1115ERGO    R215861  11.913  12.953   6.057 -0.0194 -0.3685  0.0310
 1115ERGO    R315862  12.121  12.958   6.232  0.0080 -0.1902 -0.0044
 1115ERGO    R415863  11.882  12.991   6.399  0.0278 -0.1575  0.0131
 1115ERGO    R515864  12.057  13.121   6.396 -0.0144 -0.1051 -0.0987
 1115ERGO    C115865  12.059  13.017   6.763  0.0807  0.1325 -0.0305
 1115ERGO    C215866  11.851  13.027   7.005  0.1545  0.0515 -0.3478
 1116ERGO   ROH15867  15.418  12.898   6.015  0.1057  0.0128 -0.0102
 1116ERGO    R115868  15.454  12.708   6.222  0.0230 -0.0061 -0.0121
 1116ERGO    R215869  15.451  12.778   6.490  0.0897 -0.0019 -0.0098
 1116ERGO    R315870  15.260  12.586   6.504 -0.0164  0.1050  0.0088
 1116ERGO    R415871  15.298  12.673   6.781  0.0648  0.0738  0.0041
 1116ERGO    R515872  15.308  12.469   6.707 -0.0591  0.0716 -0.0021
 1116ERGO    C115873  15.029  12.431   6.964 -0.0492  0.2182  0.0296
 1116ERGO    C215874  14.757  12.257   7.198 -0.2232 -0.0460  0.0540
 1117ERGO   ROH15875  10.642   1.212   5.298  0.0758  0.1894  0.0283
 1117ERGO    R115876  10.501   1.426   5.416  0.0157  0.1112  0.1008
 1117ERGO    R215877  10.230   1.467   5.375  0.0116  0.0794  0.0736
 1117ERGO    R315878  10.222   1.464   5.647 -0.0298 -0.0463  0.0708
 1117ERGO    R415879  10.017   1.658   5.569  0.1189  0.1308  0.1415
 1117ERGO    R515880  10.181   1.691   5.709  0.1196 -0.0508  0.1794
 1117ERGO    C115881   9.885   1.766   5.937  0.1425  0.0428  0.1783
 1117ERGO    C215882   9.640   1.974   6.032 -0.2549  0.1603 -0.2317
 1118ERGO   ROH15883  15.145   2.110   6.159  0.1293  0.0613  0.0304
 1118ERGO    R115884  15.129   1.981   6.410  0.0161  0.1138  0.0503
 1118ERGO    R215885  15.353   1.893   6.547 -0.0592 -0.0410  0.0735
 1118ERGO    R315886  15.250   2.045   6.748  0.0513  0.0727  0.0459
 1118ERGO    R415887  15.467   1.894   6.873 -0.1107 -0.1297  0.0925
 1118ERGO    R515888  15.260   1.904   6.941 -0.1158  0.0728  0.0578
 1118ERGO    C115889  15.437   2.037   7.251 -0.0370 -0.0747  0.0776
 1118ERGO    C215890  15.578   2.243   7.544 -0.3091  0.1223 -0.1942
 1119ERGO   ROH15891  18.163  16.226   5.961  0.0395  0.1627 -0.1410
 1119ERGO    R115892  18.352  16.160   6.162  0.0078  0.0746 -0.1397
 1119ERGO    R215893  18.408  16.327   6.374 -0.0231 -0.0176 -0.0601
 1119ERGO    R315894  18.349  16.106   6.522 -0.0472 -0.0803 -0.1622
 1119ERGO    R415895  18.567  16.238   6.668 -0.1702 -0.0572  0.0087
 1119ERGO    R515896  18.562  16.030   6.602 -0.0698 -0.0407 -0.0589
 1119ERGO    C115897  18.604  15.979   6.977 -0.2784 -0.1393 -0.0472
 1119ERGO    C215898  18.903  15.983   7.221  0.0647 -0.0905  0.0138
 1120ERGO   ROH15899  18.339  17.282   5.996  0.1684 -0.0610 -0.1111
 1120ERGO    R115900  18.397  17.358   6.263  0.0199 -0.0744 -0.0734
 1120ERGO    R215901  18.645  17.451   6.340 -0.0024 -0.1329  0.0831
 1120ERGO    R315902  18.501  17.661   6.435 -0.0144 -0.0989 -0.0112
 1120ERGO    R415903  18.748  17.662   6.593 -0.0210 -0.0113 -0.0107
 1120ERGO    R515904  18.544  17.661   6.671 -0.0184  0.0117 -0.0124
 1120ERGO    C115905  18.673  17.983   6.830 -0.0433  0.0914 -0.1538
 1120ERGO    C215906  18.551  18.258   7.031 -0.0347 -0.1262  0.1715
 1121ERGO   ROH15907   9.353   9.697   9.003  0.2173  0.3096 -0.0754
 1121ERGO    R115908   9.349   9.591   8.740  0.0303  0.1963 -0.0273
 1121ERGO    R215909   9.115   9.531   8.608 -0.0723  0.4381  0.0511
 1121ERGO    R315910   9.219   9.692   8.416  0.0969  0.2177 -0.0492
 1121ERGO    R415911   9.098   9.469   8.268 -0.4073  0.3874  0.0718
 1121ERGO    R515912   9.304   9.541   8.250 -0.2781  0.0206 -0.0768
 1121ERGO    C115913   9.187   9.585   7.890 -0.4434  0.1510 -0.0102
 1121ERGO    C215914   9.282   9.667   7.538 -0.1193  0.0620  0.0195
 1122ERGO   ROH15915  13.467   3.953   5.663 -0.1711 -0.0831 -0.0814
 1122ERGO    R115916  13.579   4.002   5.918  0.1199 -0.2106 -0.1811
 1122ERGO    R215917  13.842   4.082   5.953 -0.0145  0.4248 -0.4931
 1122ERGO    R315918  13.727   4.285   6.093 -0.3408 -0.0902  0.0276
 1122ERGO    R415919  13.979   4.232   6.233  0.0393  0.3201 -0.4634
 1122ERGO    R515920  13.780   4.237   6.321  0.1454 -0.3432 -0.1251
 1122ERGO    C115921  13.951   4.508   6.527 -0.2358 -0.2243  0.0428
 1122ERGO    C215922  14.105   4.660   6.797  0.0391  0.1105 -0.0364
 1123ERGO   ROH15923   7.175   9.394   5.971 -0.0449 -0.1079 -0.0697
 1123ERGO    R115924   7.066   9.560   6.173  0.1077 -0.0355 -0.0441
 1123ERGO    R215925   7.107   9.512   6.443  0.1125 -0.0790 -0.0507
 1123ERGO    R315926   7.195   9.769   6.442  0.3051 -0.1447 -0.0518
 1123ERGO    R415927   7.125   9.716   6.721 -0.2248  0.0654 -0.1306
 1123ERGO    R515928   7.053   9.881   6.599  0.1072  0.0510 -0.3584
 1123ERGO    C115929   7.218  10.075   6.883 -0.2404  0.0880 -0.1781
 1123ERGO    C215930   7.477  10.166   7.176  0.3085 -0.0922 -0.1974
 1124ERGO   ROH15931  11.482  14.398   8.438  0.1080  0.1526  0.0253
 1124ERGO    R115932  11.615  14.449   8.194  0.1111  0.0461  0.0024
 1124ERGO    R215933  11.555  14.313   7.961  0.0576 -0.0039  0.0359
 1124ERGO    R315934  11.521  14.564   7.861  0.1229 -0.0195 -0.0214
 1124ERGO    R415935  11.607  14.404   7.631  0.0218 -0.0949  0.0063
 1124ERGO    R515936  11.698  14.589   7.702  0.0941 -0.1130 -0.0606
 1124ERGO    C115937  11.606  14.692   7.346  0.0623 -0.1625 -0.0648
 1124ERGO    C215938  11.519  14.828   7.052 -0.1481 -0.0407  0.0129
 1125ERGO   ROH15939  10.236   8.698   5.578  0.1118  0.0723 -0.0234
 1125ERGO    R115940  10.256   8.581   5.835  0.0979  0.1454  0.0105
 1125ERGO    R215941  10.439   8.382   5.895  0.0187  0.0851  0.0462
 1125ERGO    R315942  10.512   8.553   6.093  0.1229  0.1159 -0.0169
 1125ERGO    R415943  10.530   8.287   6.214  0.2744  0.1273 -0.0117
 1125ERGO    R515944  10.419   8.457   6.292  0.2890  0.1061  0.0586
 1125ERGO    C115945  10.652   8.392   6.586  0.5209  0.1807 -0.1047
 1125ERGO    C215946  10.681   8.400   6.889  0.3533 -0.0284  0.6261
 1126ERGO   ROH15947  13.139  15.979   6.422 -0.0309 -0.3232 -0.0306
 1126ERGO    R115948  13.287  16.066   6.647 -0.0933 -0.1388 -0.0584
 1126ERGO    R215949  13.380  15.892   6.840 -0.0266  0.0013  0.0397
 1126ERGO    R315950  13.619  16.008   6.783 -0.0776  0.0883  0.0035
 1126ERGO    R415951  13.643  15.923   7.062  0.0643 -0.0742 -0.0567
 1126ERGO    R515952  13.679  16.123   6.984 -0.0150 -0.0193  0.0465
 1126ERGO    C115953  14.020  16.050   7.139  0.0693 -0.0366 -0.1469
 1126ERGO    C215954  14.316  15.974   7.270 -0.3040 -0.1554 -0.1860
 1127ERGO   ROH15955  10.585   1.965   7.178  0.1030 -0.0465 -0.0070
 1127ERGO    R115956  10.354   2.127   7.146  0.1520  0.0315  0.0340
 1127ERGO    R215957  10.306   2.275   6.919  0.0808 -0.0854 -0.0258
 1127ERGO    R315958  10.070   2.141   6.919  0.0213  0.0153  0.1932
 1127ERGO    R415959   9.997   2.421   6.871  0.1172  0.0274  0.0774
 1127ERGO    R515960   9.917   2.291   7.027  0.1520  0.1480  0.2029
 1127ERGO    C115961   9.594   2.380   6.844  0.0826  0.1876  0.3431
 1127ERGO    C215962   9.361   2.619   6.768  0.0231 -0.1177  0.2295
 1128ERGO   ROH15963  11.794   1.428   8.642  0.2470 -0.0268 -0.0296
 1128ERGO    R115964  11.835   1.483   8.367  0.3231 -0.2899 -0.0745
 1128ERGO    R215965  11.831   1.286   8.173 -0.1945 -0.4128  0.0421
 1128ERGO    R315966  11.645   1.447   8.059  0.1578 -0.0232 -0.0064
 1128ERGO    R415967  11.683   1.230   7.866 -0.2738 -0.1363  0.0275
 1128ERGO    R515968  11.698   1.443   7.825  0.1868 -0.1641  0.0028
 1128ERGO    C115969  11.422   1.348   7.580  0.0107  0.3903 -0.0266
 1128ERGO    C215970  11.326   1.355   7.285 -0.1278  0.1498  0.2097
 1129ERGO   ROH15971   8.148  14.878   5.355 -0.1245 -0.0014  0.1429
 1129ERGO    R115972   8.283  14.792   5.588 -0.1765 -0.1881  0.1023
 1129ERGO    R215973   8.351  14.528   5.632  0.2592 -0.1501 -0.3416
 1129ERGO    R315974   8.600  14.630   5.665  0.0611  0.2415  0.0782
 1129ERGO    R415975   8.609  14.369   5.799  0.4111 -0.1068 -0.5268
 1129ERGO    R515976   8.664  14.561   5.886  0.0039 -0.1801 -0.0154
 1129ERGO    C115977   8.993  14.373   5.927  0.3136  0.2860 -0.2407
 1129ERGO    C215978   9.304  14.385   6.074 -0.1079 -0.3571  0.2218
 1130ERGO   ROH15979  15.377  11.193   6.241  0.1141  0.2954 -0.0651
 1130ERGO    R115980  15.145  11.293   6.369  0.1727  0.3243  0.0203
 1130ERGO    R215981  15.096  11.563   6.397  0.0861  0.3355 -0.2041
 1130ERGO    R315982  14.860  11.500   6.276  0.0156  0.1188  0.0382
 1130ERGO    R415983  14.827  11.778   6.363  0.0292  0.2434 -0.3424
 1130ERGO    R515984  14.694  11.611   6.408  0.0844  0.2828 -0.0127
 1130ERGO    C115985  14.451  11.844   6.229 -0.0700 -0.0137 -0.1955
 1130ERGO    C215986  14.149  11.949   6.166 -0.4188  0.0144  0.1475
 1131ERGO   ROH15987   8.928   8.333   9.451 -0.1617  0.0133 -0.2242
 1131ERGO    R115988   8.964   8.231   9.190 -0.1574  0.0401 -0.2355
 1131ERGO    R215989   8.787   8.053   9.073 -0.1484  0.0296 -0.2524
 1131ERGO    R315990   8.782   8.239   8.875 -0.1678  0.0554 -0.2258
 1131ERGO    R415991   8.706   7.989   8.743 -0.0560  0.0706 -0.2829
 1131ERGO    R515992   8.865   8.124   8.682 -0.0949  0.1249 -0.2268
 1131ERGO    C115993   8.653   8.126   8.366 -0.0204  0.1187 -0.2756
 1131ERGO    C215994   8.471   8.178   8.183 -0.1042  0.1893 -0.0213
 1132ERGO   ROH15995   2.645  13.702   5.625 -0.0588  0.1244  0.0090
 1132ERGO    R115996   2.760  13.866   5.824  0.0573  0.1360 -0.0660
 1132ERGO    R215997   2.651  14.110   5.896 -0.0103  0.0563  0.1141
 1132ERGO    R315998   2.657  14.003   6.146  0.3145 -0.0118  0.0812
 1132ERGO    R415999   2.707  14.289   6.186 -0.0205  0.0401  0.1259
 1132ERGO    R516000   2.830  14.124   6.258  0.2455  0.1750 -0.0138
 1132ERGO    C116001   2.745  14.293   6.590  0.2784 -0.0333  0.1020
 1132ERGO    C216002   2.457  14.453   6.789 -0.0716  0.0149 -0.0810
 1133ERGO   ROH16003  18.728  16.009   9.237  0.5098 -0.1848  0.1761
 1133ERGO    R116004  18.894  16.028   9.008  0.3291 -0.0235  0.0554
 1133ERGO    R216005  18.960  15.809   8.854  0.4118  0.0455 -0.0042
 1133ERGO    R316006  18.861  15.961   8.652  0.1315 -0.0298  0.0727
 1133ERGO    R416007  19.047  15.778   8.520  0.4695  0.3518 -0.0198
 1133ERGO    R516008  19.046  15.995   8.505  0.0812  0.3707  0.0844
 1133ERGO    C116009  19.003  15.904   8.137  0.2399  0.4593  0.0433
 1133ERGO    C216010  19.040  15.961   7.760 -0.0552 -0.1175  0.3227
 1134ERGO   ROH16011   3.599  17.586   5.344  0.2510  0.0358 -0.3202
 1134ERGO    R116012   3.664  17.814   5.499  0.1283  0.0580 -0.3023
 1134ERGO    R216013   3.791  17.796   5.744 -0.1103  0.0914 -0.1813
 1134ERGO    R316014   3.968  17.967   5.628  0.0233  0.0538 -0.0392
 1134ERGO    R416015   4.023  17.987   5.915  0.0935 -0.2939 -0.0120
 1134ERGO    R516016   3.980  18.152   5.780  0.2134 -0.1077  0.1586
 1134ERGO    C116017   4.323  18.259   5.906  0.3377 -0.5533  0.2200
 1134ERGO    C216018   4.589  18.312   6.181  0.1338 -0.1165  0.3430
 1135ERGO   ROH16019   6.510   3.824   5.227  0.2184  0.0155  0.0487
 1135ERGO    R116020   6.591   3.893   5.489  0.1787 -0.0018  0.0657
 1135ERGO    R216021   6.431   4.037   5.662  0.1864  0.0587  0.0210
 1135ERGO    R316022   6.476   3.826   5.828  0.0753  0.0510  0.0417
 1135ERGO    R416023   6.366   4.036   6.001  0.0512  0.0828 -0.0045
 1135ERGO    R516024   6.552   3.926   6.031  0.0179  0.0409  0.0704
 1135ERGO    C116025   6.370   3.837   6.354 -0.1317  0.0895  0.0001
 1135ERGO    C216026   6.206   3.835   6.667 -0.1725  0.1109 -0.1463
 1136ERGO   ROH16027   3.233  12.266   9.241  0.0789  0.1612 -0.1280
 1136ERGO    R116028   3.223  12.160   8.979 -0.0101  0.2536 -0.1637
 1136ERGO    R216029   3.223  12.320   8.753  0.0295  0.3321 -0.1129
 1136ERGO    R316030   3.436  12.166   8.683 -0.0510  0.2570 -0.1920
 1136ERGO    R416031   3.311  12.239   8.429 -0.1590  0.2348 -0.1403
 1136ERGO    R516032   3.358  12.037   8.497 -0.1814  0.2390 -0.1232
 1136ERGO    C116033   3.562  12.047   8.174 -0.3444  0.1078 -0.2305
 1136ERGO    C216034   3.583  12.127   7.817  0.1785  0.2230  0.1735
 1137ERGO   ROH16035   7.241   7.855   9.163  0.2552 -0.0992  0.0326
 1137ERGO    R116036   7.278   7.820   8.885  0.0726  0.0363 -0.0111
 1137ERGO    R216037   7.305   7.571   8.769  0.2645  0.1036 -0.1118
 1137ERGO    R316038   7.100   7.657   8.612  0.0370 -0.0773  0.0783
 1137ERGO    R416039   7.235   7.450   8.453  0.3499  0.3331 -0.2205
 1137ERGO    R516040   7.191   7.655   8.390 -0.0451  0.3383  0.0306
 1137ERGO    C116041   7.001   7.461   8.122  0.1861  0.2969 -0.1054
 1137ERGO    C216042   6.831   7.301   7.976  0.3146 -0.1843 -0.0430
 1138ERGO   ROH16043  10.533   5.692   6.926  0.1740  0.0579  0.0544
 1138ERGO    R116044  10.364   5.771   7.139 -0.0457 -0.1516 -0.0370
 1138ERGO    R216045  10.291   5.600   7.342  0.2114 -0.1956  0.0252
 1138ERGO    R316046  10.389   5.798   7.501 -0.2028  0.0738 -0.0415
 1138ERGO    R416047  10.295   5.591   7.688  0.5904 -0.2562  0.0240
 1138ERGO    R516048  10.239   5.803   7.688 -0.0372 -0.4056  0.1147
 1138ERGO    C116049  10.388   5.772   8.038  0.4222 -0.0385 -0.0393
 1138ERGO    C216050  10.372   5.548   8.383  0.1367  0.2479  0.2427
 1139ERGO   ROH16051   6.757  13.200   5.344  0.1606 -0.2103  0.2532
 1139ERGO    R116052   6.758  13.242   5.624  0.1406 -0.0599  0.2334
 1139ERGO    R216053   6.955  13.140   5.789  0.1292  0.0160  0.3109
 1139ERGO    R316054   6.980  13.399   5.867  0.1323  0.0593  0.1604
 1139ERGO    R416055   7.047  13.244   6.106 -0.1023  0.2147  0.3139
 1139ERGO    R516056   6.898  13.402   6.092 -0.0450  0.2386  0.0893
 1139ERGO    C116057   7.124  13.548   6.363 -0.2343  0.3711  0.1746
 1139ERGO    C216058   7.310  13.563   6.650 -0.1727 -0.0328  0.3098
 1140ERGO   ROH16059  13.175   1.335   9.263  0.0131  0.0486  0.0013
 1140ERGO    R116060  13.398   1.412   9.107  0.1039 -0.1775  0.0148
 1140ERGO    R216061  13.525   1.239   8.933 -0.1786 -0.2562 -0.1235
 1140ERGO    R316062  13.477   1.437   8.753  0.0763 -0.0627  0.0174
 1140ERGO    R416063  13.681   1.269   8.626 -0.1994 -0.2794 -0.1356
 1140ERGO    R516064  13.692   1.484   8.658  0.1260 -0.3156  0.0058
 1140ERGO    C116065  13.728   1.472   8.279  0.0278 -0.1113 -0.0104
 1140ERGO    C216066  13.722   1.501   8.036 -0.0349 -0.2993 -0.0477
 1141ERGO   ROH16067  17.207   5.207   6.073 -0.0052  0.1552 -0.0898
 1141ERGO    R116068  17.168   5.015   6.277  0.0264  0.0058 -0.2215
 1141ERGO    R216069  17.021   5.067   6.505  0.1696 -0.1123 -0.0976
 1141ERGO    R316070  16.885   4.844   6.430  0.0355  0.0019 -0.2073
 1141ERGO    R416071  16.836   4.868   6.718  0.1666 -0.1839 -0.1683
 1141ERGO    R516072  16.913   4.692   6.614  0.0435 -0.1462 -0.3289
 1141ERGO    C116073  16.600   4.542   6.771  0.0391 -0.1185 -0.3123
 1141ERGO    C216074  16.429   4.509   6.899 -0.0652 -0.1884 -0.1005
 1142ERGO   ROH16075  12.163   3.451   5.696 -0.0921  0.0520 -0.0366
 1142ERGO    R116076  12.180   3.498   5.974 -0.0865  0.0559 -0.0381
 1142ERGO    R216077  12.116   3.742   6.088 -0.1744  0.0285 -0.0304
 1142ERGO    R316078  11.951   3.590   6.242 -0.0999 -0.0395 -0.0166
 1142ERGO    R416079  12.030   3.813   6.415  0.0254 -0.1417  0.0620
 1142ERGO    R516080  12.047   3.600   6.461  0.0312 -0.1702 -0.0656
 1142ERGO    C116081  11.825   3.712   6.750  0.2116 -0.3046  0.1287
 1142ERGO    C216082  11.771   3.833   6.965 -0.0077  0.0397  0.0832
 1143ERGO   ROH16083   6.733  19.323   5.975 -0.0305 -0.1522  0.0017
 1143ERGO    R116084   6.774  19.243   6.243  0.1748  0.0404  0.0308
 1143ERGO    R216085   6.820  19.424   6.447  0.0306  0.2108 -0.0819
 1143ERGO    R316086   6.610  19.298   6.563  0.2292  0.0075  0.0638
 1143ERGO    R416087   6.704  19.487   6.766  0.0845  0.2143 -0.0632
 1143ERGO    R516088   6.674  19.273   6.793  0.3539  0.1895  0.0485
 1143ERGO    C116089   6.438  19.405   7.062  0.3024  0.0255  0.0843
 1143ERGO    C216090   6.336  19.582   7.359 -0.2248 -0.0506 -0.1607
 1144ERGO   ROH16091   4.171   5.130   6.152  0.2451 -0.0405  0.0791
 1144ERGO    R116092   4.259   5.057   6.411  0.3253 -0.0754  0.0445
 1144ERGO    R216093   4.083   4.995   6.616  0.3786  0.0587  0.1445
 1144ERGO    R316094   4.230   4.767   6.628  0.2329 -0.0373  0.0793
 1144ERGO    R416095   4.096   4.782   6.887  0.3998  0.0623  0.1446
 1144ERGO    R516096   4.309   4.758   6.853  0.3568 -0.0817  0.0272
 1144ERGO    C116097   4.241   4.443   7.056  0.2755 -0.0257  0.0834
 1144ERGO    C216098   4.435   4.189   7.261  0.0591 -0.0193 -0.0272
 1145ERGO   ROH16099  15.446   6.697   6.076  0.3517  0.0431 -0.0242
 1145ERGO    R116100  15.333   6.811   6.309  0.2998  0.1242 -0.0883
 1145ERGO    R216101  15.225   6.658   6.512  0.0898  0.1996 -0.1400
 1145ERGO    R316102  15.397   6.800   6.668  0.1002  0.0919 -0.0523
 1145ERGO    R416103  15.247   6.632   6.856 -0.1816  0.2672 -0.1154
 1145ERGO    R516104  15.271   6.849   6.866 -0.0031  0.2501 -0.1549
 1145ERGO    C116105  15.421   6.750   7.202 -0.3298  0.2055 -0.0187
 1145ERGO    C216106  15.733   6.730   7.445 -0.1637  0.0970  0.0095
 1146ERGO   ROH16107   2.284   8.513   7.155  0.1247  0.0063 -0.0502
 1146ERGO    R116108   2.444   8.369   7.339  0.0878  0.0172 -0.0079
 1146ERGO    R216109   2.349   8.281   7.583  0.0450  0.0540 -0.0070
 1146ERGO    R316110   2.438   8.040   7.494  0.0382  0.0380  0.0322
 1146ERGO    R416111   2.470   8.028   7.785  0.1056  0.1077  0.0231
 1146ERGO    R516112   2.624   7.989   7.636  0.0715  0.0807 -0.0001
 1146ERGO    C116113   2.624   7.654   7.819  0.1344  0.1240  0.0775
 1146ERGO    C216114   2.432   7.367   7.986  0.0734 -0.2020 -0.2493
 1147ERGO   ROH16115   4.466  18.313   5.339 -0.3116  0.0412  0.2012
 1147ERGO    R116116   4.356  18.073   5.440 -0.0950 -0.0990  0.1135
 1147ERGO    R216117   4.499  17.837   5.451  0.1426  0.0378  0.0855
 1147ERGO    R316118   4.428  17.844   5.713  0.0733 -0.0976  0.0706
 1147ERGO    R416119   4.462  17.559   5.652  0.3109 -0.0516 -0.0061
 1147ERGO    R516120   4.286  17.652   5.741  0.2163 -0.2168 -0.0197
 1147ERGO    C116121   4.374  17.403   6.016  0.3438 -0.2308 -0.0734
 1147ERGO    C216122   4.355  17.208   6.205 -0.6702 -0.4473 -0.2101
 1148ERGO   ROH16123   4.789   9.936   5.994  0.0130  0.0297  0.2087
 1148ERGO    R116124   4.813   9.777   6.227 -0.0239 -0.1981  0.0596
 1148ERGO    R216125   4.767   9.877   6.480  0.3551 -0.3281  0.1802
 1148ERGO    R316126   4.593   9.669   6.496  0.0433 -0.0788  0.1664
 1148ERGO    R416127   4.586   9.792   6.762  0.4343 -0.2223  0.2644
 1148ERGO    R516128   4.625   9.582   6.717  0.0838 -0.2664  0.0953
 1148ERGO    C116129   4.318   9.546   6.941  0.1876  0.0733  0.3004
 1148ERGO    C216130   4.062   9.454   7.128  0.0203 -0.0758  0.0177
 1149ERGO   ROH16131   5.653  16.970   6.713  0.0021 -0.1471 -0.1435
 1149ERGO    R116132   5.566  16.734   6.844  0.1189 -0.0495  0.1130
 1149ERGO    R216133   5.535  16.494   6.711 -0.3826 -0.0484  0.2312
 1149ERGO    R316134   5.701  16.402   6.905  0.0069 -0.1460 -0.1299
 1149ERGO    R416135   5.577  16.161   6.794 -0.6748 -0.0632  0.3386
 1149ERGO    R516136   5.582  16.219   7.004 -0.0360  0.0943  0.3129
 1149ERGO    C116137   5.758  15.881   7.024 -0.4795 -0.1636  0.0622
 1149ERGO    C216138   5.761  15.568   7.147 -0.1640 -0.0923  0.0695
 1150ERGO   ROH16139   3.456   6.139   9.389 -0.0376 -0.0185  0.0236
 1150ERGO    R116140   3.481   6.294   9.154  0.1576 -0.0368  0.0337
 1150ERGO    R216141   3.654   6.227   8.949 -0.1041 -0.3817 -0.0680
 1150ERGO    R316142   3.429   6.244   8.797 -0.1605  0.1254  0.0510
 1150ERGO    R416143   3.649   6.253   8.604 -0.2136 -0.3282 -0.0651
 1150ERGO    R516144   3.487   6.397   8.622  0.0920  0.0359  0.0417
 1150ERGO    C116145   3.436   6.285   8.261 -0.3303  0.1790  0.0483
 1150ERGO    C216146   3.372   6.424   7.942  0.0772  0.1721  0.0489
 1151ERGO   ROH16147  13.413   3.107   5.898 -0.0575  0.0012  0.0312
 1151ERGO    R116148  13.326   3.289   6.096  0.2782  0.0411  0.1483
 1151ERGO    R216149  13.078   3.271   6.217  0.1633  0.5180  0.0097
 1151ERGO    R316150  13.225   3.272   6.445  0.0696 -0.0353  0.0855
 1151ERGO    R416151  12.954   3.338   6.533  0.1708  0.5139  0.0131
 1151ERGO    R516152  13.135   3.451   6.575  0.4246  0.0634  0.2055
 1151ERGO    C116153  13.021   3.377   6.931  0.0872 -0.0078  0.0862
 1151ERGO    C216154  12.903   3.473   7.123  0.1950 -0.0237 -0.2228
 1152ERGO   ROH16155   9.257   4.864   5.672  0.1383  0.0282 -0.0303
 1152ERGO    R116156   9.499   4.809   5.806  0.1381  0.0388 -0.0245
 1152ERGO    R216157   9.605   4.979   5.997  0.1068  0.0250  0.0084
 1152ERGO    R316158   9.604   4.754   6.151  0.1239  0.0013 -0.0269
 1152ERGO    R416159   9.821   4.918   6.260  0.0298  0.0512  0.0777
 1152ERGO    R516160   9.836   4.711   6.194  0.1203  0.0679  0.0513
 1152ERGO    C116161   9.946   4.672   6.557  0.0008  0.0442  0.0850
 1152ERGO    C216162   9.984   4.630   6.930  0.0393 -0.0326  0.0510
 1153ERGO   ROH16163  18.093   5.271   6.469  0.0020  0.0173 -0.0274
 1153ERGO    R116164  17.991   5.515   6.570  0.0001  0.0004  0.0121
 1153ERGO    R216165  17.742   5.612   6.501  0.0935  0.1266 -0.1578
 1153ERGO    R316166  17.705   5.619   6.770 -0.1409 -0.0056 -0.1840
 1153ERGO    R416167  17.572   5.861   6.670 -0.1111  0.0083 -0.1858
 1153ERGO    R516168  17.724   5.851   6.827 -0.2431 -0.0273 -0.0588
 1153ERGO    C116169  17.439   6.012   7.022 -0.4499 -0.1846 -0.2267
 1153ERGO    C216170  17.232   6.116   7.033  0.2310  0.2671 -0.0112
 1154ERGO   ROH16171   4.551  18.984   5.398 -0.2082 -0.1494 -0.1519
 1154ERGO    R116172   4.437  19.029   5.653 -0.0806 -0.1714 -0.0889
 1154ERGO    R216173   4.427  18.833   5.848  0.0400 -0.1837 -0.0868
 1154ERGO    R316174   4.551  19.022   5.999  0.1032 -0.1760 -0.1501
 1154ERGO    R416175   4.410  18.853   6.193 -0.0764  0.0359 -0.1040
 1154ERGO    R516176   4.395  19.070   6.175  0.0712  0.0311 -0.2371
 1154ERGO    C116177   4.518  19.042   6.535 -0.0847  0.1708 -0.1734
 1154ERGO    C216178   4.378  18.860   6.911  0.1021  0.2366 -0.0358
 1155ERGO   ROH16179  14.482  17.371   9.144 -0.4048  0.0559 -0.0839
 1155ERGO    R116180  14.575  17.253   8.905 -0.3066 -0.1045  0.0312
 1155ERGO    R216181  14.409  17.196   8.692 -0.1821 -0.0291 -0.0862
 1155ERGO    R316182  14.588  17.345   8.553  0.0644 -0.2300  0.0064
 1155ERGO    R416183  14.440  17.197   8.348 -0.1080  0.0443 -0.0797
 1155ERGO    R516184  14.657  17.204   8.372 -0.0967 -0.2703 -0.0274
 1155ERGO    C116185  14.627  17.338   8.017  0.1667 -0.1017  0.0111
 1155ERGO    C216186  14.738  17.536   7.599 -0.5356 -0.2548  0.0969
 1156ERGO   ROH16187   6.249  15.101   5.531 -0.2363 -0.2238  0.1038
 1156ERGO    R116188   6.410  15.066   5.761 -0.1027 -0.0803  0.0332
 1156ERGO    R216189   6.374  15.212   5.992 -0.1042 -0.0842  0.0316
 1156ERGO    R316190   6.360  14.966   6.107  0.1337 -0.0834  0.0696
 1156ERGO    R416191   6.403  15.151   6.331  0.1366 -0.0196  0.0250
 1156ERGO    R516192   6.521  14.974   6.284  0.2357  0.0535 -0.0237
 1156ERGO    C116193   6.406  14.884   6.637  0.5001  0.0188  0.0568
 1156ERGO    C216194   6.452  14.794   7.031  0.1394  0.0309  0.1832
 1157ERGO   ROH16195   9.335   6.687   5.927  0.1704 -0.0371 -0.0285
 1157ERGO    R116196   9.393   6.774   6.190  0.0774  0.0274 -0.0276
 1157ERGO    R216197   9.207   6.767   6.394  0.0328 -0.0211 -0.0613
 1157ERGO    R316198   9.402   6.626   6.522  0.0675  0.0770 -0.0074
 1157ERGO    R416199   9.173   6.617   6.704 -0.0127 -0.1657 -0.1366
 1157ERGO    R516200   9.374   6.682   6.753 -0.0939 -0.0350 -0.0037
 1157ERGO    C116201   9.335   6.397   7.003 -0.0066 -0.1579 -0.1297
 1157ERGO    C216202   9.350   6.143   7.254 -0.0857 -0.4687 -0.0800
 1158ERGO   ROH16203   1.231  10.554   6.350 -0.5101 -0.2334 -0.2367
 1158ERGO    R116204   1.281  10.601   6.625 -0.2949 -0.2890 -0.2638
 1158ERGO    R216205   1.213  10.838   6.751  0.0682 -0.1955 -0.2216
 1158ERGO    R316206   1.082  10.672   6.922 -0.0424 -0.0354 -0.1537
 1158ERGO    R416207   1.106  10.924   7.068 -0.0292  0.0472 -0.3192
 1158ERGO    R516208   1.169  10.728   7.137 -0.1146  0.0843 -0.1612
 1158ERGO    C116209   0.921  10.819   7.413 -0.1897  0.3389 -0.3123
 1158ERGO    C216210   0.686  10.988   7.627  0.0013 -0.2708  0.2190
 1159ERGO   ROH16211   8.622  11.634   5.091 -0.3116  0.0769 -0.2030
 1159ERGO    R116212   8.488  11.584   5.335 -0.0892  0.1289 -0.0668
 1159ERGO    R216213   8.425  11.329   5.421 -0.2106  0.1583 -0.0668
 1159ERGO    R316214   8.558  11.406   5.645  0.1021 -0.0101 -0.1886
 1159ERGO    R416215   8.448  11.143   5.711 -0.1208  0.1041 -0.1077
 1159ERGO    R516216   8.423  11.327   5.825  0.1953  0.1217 -0.0595
 1159ERGO    C116217   8.587  11.107   6.090  0.2250 -0.0855 -0.2459
 1159ERGO    C216218   8.610  10.879   6.430 -0.0420 -0.0129  0.0784
 1160ERGO   ROH16219  11.387  12.157   5.638 -0.0763 -0.1233  0.0619
 1160ERGO    R116220  11.552  12.285   5.828 -0.0943 -0.1872  0.1210
 1160ERGO    R216221  11.541  12.557   5.876  0.0898 -0.1597  0.0181
 1160ERGO    R316222  11.503  12.478   6.133 -0.1359 -0.0422  0.0232
 1160ERGO    R416223  11.537  12.769   6.148  0.0663 -0.0604 -0.0591
 1160ERGO    R516224  11.649  12.620   6.260 -0.1152 -0.1040  0.0677
 1160ERGO    C116225  11.499  12.819   6.549 -0.1593  0.1077 -0.0992
 1160ERGO    C216226  11.417  13.043   6.765 -0.0060  0.1301  0.2354
 1161ERGO   ROH16227   9.203   2.425   8.770  0.3051 -0.0530 -0.0197
 1161ERGO    R116228   9.261   2.582   8.541  0.3363 -0.1408 -0.0721
 1161ERGO    R216229   9.455   2.511   8.357  0.0808 -0.4302 -0.2402
 1161ERGO    R316230   9.251   2.536   8.180 -0.0417 -0.1386 -0.0659
 1161ERGO    R416231   9.493   2.560   8.017 -0.1486 -0.1756 -0.2324
 1161ERGO    R516232   9.326   2.701   8.024 -0.0475 -0.0613  0.0117
 1161ERGO    C116233   9.322   2.612   7.653 -0.3972  0.2463 -0.0642
 1161ERGO    C216234   9.339   2.674   7.238 -0.2218 -0.0306 -0.1949
 1162ERGO   ROH16235   0.477  12.493   6.648 -0.3477 -0.1294  0.0659
 1162ERGO    R116236   0.389  12.629   6.880  0.0284  0.1727  0.0399
 1162ERGO    R216237   0.453  12.894   6.930  0.0058  0.2868 -0.4753
 1162ERGO    R316238   0.184  12.921   6.953  0.0265  0.1823 -0.0051
 1162ERGO    R416239   0.292  13.161   7.079  0.1564  0.3471 -0.4186
 1162ERGO    R516240   0.151  13.021   7.167  0.3752  0.3601 -0.0294
 1162ERGO    C116241  -0.054  13.342   7.187  0.2636  0.2841  0.0558
 1162ERGO    C216242  -0.280  13.444   7.421 -0.3483 -0.2464  0.1420
 1163ERGO   ROH16243   0.796  17.863   9.574  0.1818 -0.1923 -0.2127
 1163ERGO    R116244   0.658  17.961   9.347  0.1389 -0.2566 -0.2135
 1163ERGO    R216245   0.730  18.196   9.220 -0.1465 -0.0732 -0.0356
 1163ERGO    R316246   0.740  18.036   9.001  0.1869  0.0745 -0.1359
 1163ERGO    R416247   0.679  18.302   8.895 -0.1778  0.0647  0.0128
 1163ERGO    R516248   0.567  18.119   8.858  0.1098 -0.0923 -0.1489
 1163ERGO    C116249   0.659  18.214   8.500  0.1170  0.2835 -0.0532
 1163ERGO    C216250   0.608  18.361   8.269 -0.0019 -0.0835  0.2659
 1164ERGO   ROH16251  10.085  12.659   5.454 -0.0261  0.1467 -0.0784
 1164ERGO    R116252  10.142  12.667   5.731 -0.1944  0.2501 -0.0445
 1164ERGO    R216253  10.380  12.575   5.837 -0.3799 -0.0136  0.1721
 1164ERGO    R316254  10.390  12.824   5.946 -0.1125  0.0509  0.0046
 1164ERGO    R416255  10.615  12.682   6.067 -0.4955 -0.2232  0.3918
 1164ERGO    R516256  10.458  12.788   6.172 -0.4572  0.1075  0.1153
 1164ERGO    C116257  10.762  12.977   6.302 -0.3119 -0.2847  0.3625
 1164ERGO    C216258  10.954  13.068   6.603 -0.0292  0.0705  0.2251
 1165ERGO   ROH16259   7.898   5.867   9.439 -0.0512  0.1408  0.0206
 1165ERGO    R116260   7.894   6.049   9.223 -0.0453  0.0997 -0.0135
 1165ERGO    R216261   8.119   6.104   9.071 -0.0685 -0.0082 -0.0820
 1165ERGO    R316262   7.956   6.035   8.864 -0.1455  0.0113 -0.0292
 1165ERGO    R416263   8.158   6.210   8.744 -0.0451 -0.1563 -0.1283
 1165ERGO    R516264   7.942   6.233   8.731 -0.0386 -0.0254 -0.1029
 1165ERGO    C116265   8.028   6.207   8.360 -0.1036 -0.2242 -0.1057
 1165ERGO    C216266   8.016   6.044   7.958  0.1337 -0.2654 -0.0892
 1166ERGO   ROH16267  16.740  12.768   6.316 -0.1147 -0.0064  0.0721
 1166ERGO    R116268  16.750  12.693   6.589 -0.0536  0.0342  0.0812
 1166ERGO    R216269  16.976  12.584   6.705 -0.0190  0.0749  0.0531
 1166ERGO    R316270  16.943  12.788   6.882 -0.0065  0.0978  0.0294
 1166ERGO    R416271  17.116  12.596   7.021  0.1239  0.1866 -0.0135
 1166ERGO    R516272  16.930  12.680   7.095  0.1304  0.1356  0.0574
 1166ERGO    C116273  17.168  12.794   7.370  0.2186  0.2731 -0.0744
 1166ERGO    C216274  17.536  12.765   7.593  0.0940  0.2796  0.0708
 1167ERGO   ROH16275   7.479   0.919   5.543  0.1102 -0.1419  0.0208
 1167ERGO    R116276   7.294   0.918   5.757  0.0531 -0.0731 -0.0263
 1167ERGO    R216277   7.333   0.768   5.987  0.0253  0.0481  0.0637
 1167ERGO    R316278   7.298   1.008   6.110 -0.0561  0.1057 -0.0707
 1167ERGO    R416279   7.226   0.809   6.313 -0.1768  0.2093 -0.0212
 1167ERGO    R516280   7.104   0.977   6.246 -0.1370  0.1729 -0.1751
 1167ERGO    C116281   7.131   1.057   6.618 -0.3709  0.3571 -0.1968
 1167ERGO    C216282   7.100   1.089   6.946 -0.0457  0.1127  0.3484
 1168ERGO   ROH16283   5.123  17.610   8.963  0.1884  0.1312 -0.0331
 1168ERGO    R116284   5.196  17.495   8.715  0.2819  0.2333 -0.0538
 1168ERGO    R216285   5.014  17.372   8.548  0.4026 -0.0150 -0.0112
 1168ERGO    R316286   5.111  17.547   8.365  0.1200  0.1264 -0.0305
 1168ERGO    R416287   5.015  17.321   8.206  0.1030  0.1452 -0.0386
 1168ERGO    R516288   5.213  17.409   8.198  0.0420  0.2659 -0.1938
 1168ERGO    C116289   5.107  17.457   7.835 -0.3369  0.3712 -0.0727
 1168ERGO    C216290   5.126  17.477   7.488 -0.1897  0.0206  0.4607
 1169ERGO   ROH16291   2.118   6.459   9.499 -0.3763 -0.2141  0.0212
 1169ERGO    R116292   2.052   6.583   9.253 -0.2245 -0.1760 -0.0018
 1169ERGO    R216293   2.238   6.630   9.055 -0.0909 -0.1018  0.1383
 1169ERGO    R316294   2.061   6.493   8.900  0.0419 -0.1030 -0.0153
 1169ERGO    R416295   2.185   6.687   8.718 -0.1932  0.2735  0.2139
 1169ERGO    R516296   1.971   6.659   8.752 -0.1599 -0.0082  0.2077
 1169ERGO    C116297   1.987   6.592   8.377 -0.1281  0.4909  0.1137
 1169ERGO    C216298   1.898   6.471   8.058  0.0783 -0.1802  0.0191
 1170ERGO   ROH16299  16.147  10.633   6.193 -0.2021  0.0012  0.0722
 1170ERGO    R116300  16.240  10.756   6.431 -0.1849 -0.0023  0.0678
 1170ERGO    R216301  16.089  10.769   6.661 -0.1094 -0.1456  0.1302
 1170ERGO    R316302  16.308  10.653   6.773  0.0002 -0.0496  0.0176
 1170ERGO    R416303  16.131  10.711   6.999  0.0787 -0.1672  0.1040
 1170ERGO    R516304  16.339  10.771   6.979  0.0370 -0.0614  0.0159
 1170ERGO    C116305  16.361  10.569   7.301  0.2911 -0.0898 -0.0171
 1170ERGO    C216306  16.293  10.516   7.655  0.1752  0.3537 -0.0382
 1171ERGO   ROH16307  17.411  16.476   6.201 -0.1610 -0.0019 -0.0045
 1171ERGO    R116308  17.447  16.350   6.452  0.0896  0.1206  0.0270
 1171ERGO    R216309  17.414  16.484   6.692 -0.0791  0.1424  0.0068
 1171ERGO    R316310  17.242  16.280   6.744  0.2482 -0.1215  0.0789
 1171ERGO    R416311  17.273  16.419   7.001 -0.2675  0.2361 -0.0601
 1171ERGO    R516312  17.302  16.206   6.964  0.1674  0.2489  0.2228
 1171ERGO    C116313  17.029  16.189   7.230 -0.0698  0.0432 -0.0312
 1171ERGO    C216314  16.905  16.248   7.579 -0.2666 -0.0639 -0.1501
 1172ERGO   ROH16315  11.566  19.107   5.858 -0.2955  0.2090  0.1032
 1172ERGO    R116316  11.737  19.138   6.081 -0.1973 -0.0524  0.0676
 1172ERGO    R216317  11.935  19.331   6.091 -0.0154 -0.2321  0.1015
 1172ERGO    R316318  11.811  19.399   6.324  0.1120 -0.2314  0.1698
 1172ERGO    R416319  12.052  19.566   6.316 -0.1600  0.1460 -0.2066
 1172ERGO    R516320  11.991  19.434   6.478  0.2120  0.1838 -0.0332
 1172ERGO    C116321  12.005  19.766   6.665 -0.1245  0.3669 -0.3219
 1172ERGO    C216322  11.872  19.935   6.857 -0.0909 -0.0714 -0.0770
 1173ERGO   ROH16323  12.020  13.703   8.895  0.2474  0.1370 -0.0484
 1173ERGO    R116324  12.182  13.695   8.663  0.1925 -0.0216 -0.0814
 1173ERGO    R216325  12.254  13.457   8.540 -0.0358 -0.0928 -0.0745
 1173ERGO    R316326  12.147  13.577   8.320  0.0226 -0.0222 -0.0655
 1173ERGO    R416327  12.386  13.442   8.221 -0.0804 -0.2017 -0.0888
 1173ERGO    R516328  12.336  13.652   8.195  0.0662 -0.1622 -0.0895
 1173ERGO    C116329  12.363  13.546   7.830 -0.0514 -0.1988 -0.0886
 1173ERGO    C216330  12.162  13.601   7.416  0.0173 -0.1557  0.1555
 1174ERGO   ROH16331   6.834   4.389   9.006  0.1822 -0.0142 -0.1713
 1174ERGO    R116332   6.700   4.508   8.787  0.0791 -0.0193 -0.1141
 1174ERGO    R216333   6.809   4.715   8.640 -0.0271  0.0487 -0.1161
 1174ERGO    R316334   6.761   4.549   8.431 -0.0304  0.0585 -0.1218
 1174ERGO    R416335   6.833   4.805   8.308 -0.0289  0.0470 -0.1150
 1174ERGO    R516336   6.653   4.688   8.268 -0.0247  0.0565 -0.1183
 1174ERGO    C116337   6.801   4.701   7.917 -0.0331  0.0553 -0.1196
 1174ERGO    C216338   6.815   4.747   7.682  0.2418 -0.0885  0.2244
 1175ERGO   ROH16339   7.200  12.314   5.352 -0.1095 -0.1946  0.1862
 1175ERGO    R116340   7.280  12.252   5.616 -0.0285 -0.1172  0.1811
 1175ERGO    R216341   7.533  12.307   5.712 -0.0066 -0.0583  0.1008
 1175ERGO    R316342   7.395  12.437   5.908  0.0266 -0.0266  0.1008
 1175ERGO    R416343   7.605  12.288   6.049 -0.0857 -0.1653  0.1117
 1175ERGO    R516344   7.391  12.281   6.090 -0.0935 -0.0584  0.0677
 1175ERGO    C116345   7.518  12.398   6.430 -0.1006 -0.1979  0.1182
 1175ERGO    C216346   7.745  12.385   6.695 -0.2224 -0.1451 -0.0952
 1176ERGO   ROH16347  13.296   5.267   5.931  0.0717  0.0480  0.0454
 1176ERGO    R116348  13.432   5.221   6.175  0.0997  0.2278  0.0649
 1176ERGO    R216349  13.401   5.384   6.396 -0.2629  0.1062  0.1080
 1176ERGO    R316350  13.341   5.149   6.519  0.1431 -0.0519  0.0205
 1176ERGO    R416351  13.357   5.346   6.736 -0.5329 -0.0177  0.0625
 1176ERGO    R516352  13.465   5.157   6.724 -0.0789  0.2206  0.1522
 1176ERGO    C116353  13.275   5.104   7.051 -0.3089 -0.2383 -0.0461
 1176ERGO    C216354  13.045   4.939   7.381  0.2449 -0.0733 -0.0782
 1177ERGO   ROH16355  11.758  15.887   8.428 -0.1731  0.1523  0.0367
 1177ERGO    R116356  11.891  16.004   8.207 -0.0401 -0.0429  0.0107
 1177ERGO    R216357  12.034  15.855   8.024 -0.3301 -0.2660 -0.0431
 1177ERGO    R316358  11.872  15.980   7.845 -0.1818  0.0166  0.0138
 1177ERGO    R416359  12.133  15.968   7.713 -0.2028 -0.2665 -0.0034
 1177ERGO    R516360  12.011  16.146   7.744  0.0271 -0.1201  0.0732
 1177ERGO    C116361  12.039  16.152   7.364  0.0106 -0.0015  0.0733
 1177ERGO    C216362  11.866  16.165   7.017 -0.1054  0.1741 -0.2772
 1178ERGO   ROH16363  16.234  18.353   9.765  0.0016 -0.0451 -0.0722
 1178ERGO    R116364  16.059  18.497   9.595 -0.0474  0.0073  0.0194
 1178ERGO    R216365  16.150  18.685   9.413 -0.0960  0.0627  0.0394
 1178ERGO    R316366  16.009  18.533   9.236 -0.1478  0.1061  0.0454
 1178ERGO    R416367  16.048  18.790   9.100 -0.0353  0.0582  0.0194
 1178ERGO    R516368  15.859  18.688   9.132 -0.0733  0.1476  0.0145
 1178ERGO    C116369  15.858  18.708   8.751 -0.0484  0.0964  0.0131
 1178ERGO    C216370  15.824  18.749   8.408  0.0113 -0.3497  0.1705
 1179ERGO   ROH16371  17.193   1.894   9.614 -0.0128  0.0045 -0.0760
 1179ERGO    R116372  17.213   2.001   9.353  0.1155 -0.0042 -0.0712
 1179ERGO    R216373  17.425   1.946   9.185  0.1374 -0.1149 -0.0159
 1179ERGO    R316374  17.228   1.870   9.013  0.1418 -0.0139 -0.0647
 1179ERGO    R416375  17.460   1.920   8.842  0.1321  0.0899 -0.0321
 1179ERGO    R516376  17.262   2.007   8.820  0.1367  0.0982  0.0183
 1179ERGO    C116377  17.296   1.835   8.481  0.1332  0.3039 -0.0874
 1179ERGO    C216378  17.449   1.675   8.229  0.1895  0.0994  0.2067
 1180ERGO   ROH16379   8.509   1.356   5.554 -0.0613  0.2140  0.0532
 1180ERGO    R116380   8.434   1.387   5.825 -0.0351  0.1548  0.0679
 1180ERGO    R216381   8.388   1.172   5.993 -0.1038  0.1150  0.0043
 1180ERGO    R316382   8.572   1.296   6.149 -0.0480  0.0009  0.0295
 1180ERGO    R416383   8.412   1.135   6.335 -0.1149  0.0453 -0.0024
 1180ERGO    R516384   8.453   1.349   6.350 -0.0180  0.0192  0.0382
 1180ERGO    C116385   8.600   1.230   6.682 -0.0690 -0.1025  0.0174
 1180ERGO    C216386   8.628   0.948   6.730  0.4502 -0.1588  0.0944
 1181ERGO   ROH16387   9.079   5.715   5.758  0.2994  0.3459  0.1707
 1181ERGO    R116388   9.070   5.719   6.041  0.1724  0.1529  0.1715
 1181ERGO    R216389   8.850   5.808   6.181  0.1566  0.1785  0.1333
 1181ERGO    R316390   8.867   5.565   6.301 -0.0349  0.0827 -0.0288
 1181ERGO    R416391   8.740   5.737   6.501 -0.0168  0.0147  0.0390
 1181ERGO    R516392   8.918   5.614   6.529 -0.1001 -0.1085  0.0280
 1181ERGO    C116393   8.693   5.466   6.799 -0.2976 -0.1707 -0.1680
 1181ERGO    C216394   8.791   5.232   7.104 -0.0812 -0.1652 -0.0320
 1182ERGO   ROH16395  12.804   0.341   6.041  0.1687  0.3622 -0.1575
 1182ERGO    R116396  12.948   0.117   6.136  0.0302  0.3065 -0.0758
 1182ERGO    R216397  13.221   0.090   6.104  0.0194  0.1300 -0.0579
 1182ERGO    R316398  13.217   0.056   6.374 -0.0150  0.2273 -0.0462
 1182ERGO    R416399  13.501   0.061   6.304  0.0017  0.6353  0.0547
 1182ERGO    R516400  13.398  -0.094   6.417  0.2020  0.5209  0.0763
 1182ERGO    C116401  13.661   0.011   6.673 -0.0411  1.0210  0.1314
 1182ERGO    C216402  14.053  -0.135   6.713  0.1146  0.0003  0.0672
 1183ERGO   ROH16403  10.646  12.129   8.541  0.1445 -0.1708  0.1316
 1183ERGO    R116404  10.624  12.033   8.276  0.0255 -0.2091  0.1542
 1183ERGO    R216405  10.609  12.201   8.057 -0.1299 -0.2388  0.1378
 1183ERGO    R316406  10.820  12.054   7.970 -0.1408 -0.2007  0.0480
 1183ERGO    R416407  10.731  12.200   7.733 -0.0595  0.0293  0.1616
 1183ERGO    R516408  10.759  11.985   7.750 -0.1047  0.0104 -0.0279
 1183ERGO    C116409  11.000  12.062   7.464 -0.0287  0.2213  0.0911
 1183ERGO    C216410  11.023  11.922   7.194 -0.0459 -0.1251 -0.1447
 1184ERGO   ROH16411  17.476  15.500   9.311  0.0475  0.1969 -0.0179
 1184ERGO    R116412  17.431  15.497   9.031  0.0398  0.2203 -0.0173
 1184ERGO    R216413  17.634  15.457   8.848  0.0261  0.1729 -0.0257
 1184ERGO    R316414  17.471  15.258   8.760 -0.0301  0.2199 -0.0263
 1184ERGO    R416415  17.481  15.450   8.538 -0.0638  0.2636  0.0165
 1184ERGO    R516416  17.301  15.372   8.634 -0.0470  0.2716  0.0470
 1184ERGO    C116417  17.239  15.259   8.275 -0.1689  0.3605  0.0405
 1184ERGO    C216418  17.003  15.136   8.059 -0.1140 -0.2469  0.3781
 1185ERGO   ROH16419   9.961  13.141   8.857 -0.2001 -0.2696  0.1067
 1185ERGO    R116420  10.087  13.015   8.638 -0.1817 -0.1948  0.0734
 1185ERGO    R216421   9.946  12.882   8.440 -0.1775 -0.0081 -0.0630
 1185ERGO    R316422  10.083  13.049   8.275 -0.0388  0.0331  0.0921
 1185ERGO    R416423   9.996  12.830   8.102  0.0280  0.1301 -0.0557
 1185ERGO    R516424  10.199  12.903   8.126  0.0257  0.0778  0.1029
 1185ERGO    C116425  10.153  12.956   7.751  0.2779  0.2493  0.0941
 1185ERGO    C216426  10.191  13.005   7.475 -0.1435 -0.1639 -0.0034
 1186ERGO   ROH16427  14.581   8.240   9.464 -0.0066 -0.3355  0.1202
 1186ERGO    R116428  14.770   8.290   9.260  0.1191 -0.3611  0.2292
 1186ERGO    R216429  14.961   8.105   9.185 -0.1274 -0.5530  0.0623
 1186ERGO    R316430  14.855   8.143   8.938 -0.0118 -0.1047  0.0738
 1186ERGO    R416431  15.146   8.138   8.895  0.0014 -0.3244  0.1670
 1186ERGO    R516432  15.008   8.294   8.831  0.1716 -0.0972  0.3351
 1186ERGO    C116433  15.154   8.193   8.494  0.1849  0.2296  0.2389
 1186ERGO    C216434  15.261   8.074   8.175  0.0605 -0.1072 -0.1931
 1187ERGO   ROH16435  12.807   7.486   9.108  0.1486 -0.0847 -0.3116
 1187ERGO    R116436  12.691   7.710   8.980  0.1689  0.0406 -0.1157
 1187ERGO    R216437  12.834   7.939   8.920  0.2390  0.0070 -0.0872
 1187ERGO    R316438  12.741   7.892   8.669  0.0517  0.1821 -0.0520
 1187ERGO    R416439  12.799   8.179   8.674  0.2171  0.1440  0.0486
 1187ERGO    R516440  12.611   8.086   8.617  0.1284  0.2808  0.1227
 1187ERGO    C116441  12.691   8.275   8.295  0.0284  0.3882  0.1607
 1187ERGO    C216442  12.734   8.200   7.946 -0.0448 -0.2218 -0.2373
 1188ERGO   ROH16443   8.013  15.877   5.265  0.0251 -0.0638  0.0512
 1188ERGO    R116444   8.042  15.774   5.527  0.0093  0.0750  0.1066
 1188ERGO    R216445   8.251  15.607   5.599 -0.0719  0.0081  0.1697
 1188ERGO    R316446   8.290  15.794   5.792  0.0594  0.0985  0.0595
 1188ERGO    R416447   8.413  15.550   5.899 -0.1029  0.0733  0.2008
 1188ERGO    R516448   8.264  15.674   5.998 -0.0194  0.2355  0.1333
 1188ERGO    C116449   8.545  15.693   6.254  0.0023  0.1961  0.1156
 1188ERGO    C216450   8.621  15.673   6.618 -0.2066  0.0951  0.0269
 1189ERGO   ROH16451   0.749  11.476   6.072  0.0516 -0.2981  0.0862
 1189ERGO    R116452   0.830  11.614   6.305 -0.0867 -0.0837  0.0102
 1189ERGO    R216453   1.079  11.580   6.419 -0.2503 -0.1960  0.3501
 1189ERGO    R316454   1.092  11.850   6.394  0.0481 -0.2346  0.0151
 1189ERGO    R416455   1.299  11.784   6.592 -0.1976 -0.1988  0.2863
 1189ERGO    R516456   1.138  11.929   6.616 -0.0744  0.0021 -0.0418
 1189ERGO    C116457   1.439  12.157   6.668  0.1132 -0.2367 -0.0654
 1189ERGO    C216458   1.631  12.240   6.958 -0.3728  0.0516  0.0063
 1190ERGO   ROH16459   9.928   1.082   8.608 -0.0784  0.2909 -0.0621
 1190ERGO    R116460  10.008   1.166   8.349  0.0316  0.0474 -0.1111
 1190ERGO    R216461  10.101   0.989   8.157 -0.1404 -0.1765 -0.0014
 1190ERGO    R316462   9.904   1.100   8.007 -0.0163 -0.0564 -0.0754
 1190ERGO    R416463  10.068   0.952   7.815 -0.0576 -0.1702 -0.0095
 1190ERGO    R516464  10.012   1.162   7.803  0.0859 -0.1393 -0.0421
 1190ERGO    C116465   9.864   1.035   7.475  0.1071 -0.0539 -0.0837
 1190ERGO    C216466   9.609   0.854   7.295  0.4343  0.0636 -0.0531
 1191ERGO   ROH16467   7.667   4.202   6.079 -0.0004 -0.0656  0.0518
 1191ERGO    R116468   7.461   4.174   6.271  0.0346 -0.0492  0.0926
 1191ERGO    R216469   7.513   4.158   6.542  0.0638  0.2926  0.1120
 1191ERGO    R316470   7.336   4.365   6.555 -0.1292  0.1454 -0.1068
 1191ERGO    R416471   7.361   4.270   6.832  0.0698  0.5401  0.0213
 1191ERGO    R516472   7.176   4.295   6.719 -0.0006  0.2097  0.0500
 1191ERGO    C116473   7.108   4.529   7.013 -0.1079  0.5461 -0.2370
 1191ERGO    C216474   7.166   4.618   7.345 -0.0960 -0.3201 -0.2229
 1192ERGO   ROH16475   7.409  17.105   5.119  0.2099 -0.3924  0.2319
 1192ERGO    R116476   7.409  17.216   5.379  0.1811 -0.2471  0.1713
 1192ERGO    R216477   7.179  17.308   5.501  0.1799 -0.1059  0.0671
 1192ERGO    R316478   7.255  17.138   5.699  0.0789 -0.0204  0.1788
 1192ERGO    R416479   7.127  17.361   5.839 -0.0082  0.0276  0.0183
 1192ERGO    R516480   7.326  17.281   5.877 -0.0272  0.0532  0.1604
 1192ERGO    C116481   7.168  17.233   6.221 -0.2125  0.1854  0.0948
 1192ERGO    C216482   7.176  17.126   6.605  0.3937  0.0133  0.1034
 1193ERGO   ROH16483  10.853   6.821   5.591  0.0645 -0.0842 -0.0903
 1193ERGO    R116484  10.747   6.855   5.852  0.1496  0.0406 -0.0691
 1193ERGO    R216485  10.807   6.684   6.060 -0.0851 -0.0966 -0.0974
 1193ERGO    R316486  10.879   6.914   6.186  0.2975 -0.2195 -0.0824
 1193ERGO    R416487  10.749   6.754   6.393 -0.3769  0.1728 -0.2011
 1193ERGO    R516488  10.699   6.958   6.337  0.1927  0.2757 -0.3450
 1193ERGO    C116489  10.782   7.010   6.705 -0.1878  0.2142 -0.2474
 1193ERGO    C216490  11.007   6.996   7.085 -0.1070  0.2020  0.1765
 1194ERGO   ROH16491  15.345  17.768   9.289  0.2241  0.0203 -0.0609
 1194ERGO    R116492  15.387  17.905   9.044 -0.0930  0.1528 -0.0471
 1194ERGO    R216493  15.568  17.817   8.854  0.0439  0.5338 -0.1050
 1194ERGO    R316494  15.351  17.831   8.690 -0.0273  0.1432 -0.0513
 1194ERGO    R416495  15.580  17.834   8.509 -0.0793  0.4945 -0.1117
 1194ERGO    R516496  15.418  17.978   8.514 -0.3214  0.2259 -0.0965
 1194ERGO    C116497  15.385  17.856   8.154 -0.2179  0.1048 -0.0651
 1194ERGO    C216498  15.259  17.900   7.798  0.0388  0.1123 -0.2490
 1195ERGO   ROH16499  17.365  10.688   6.232 -0.1262  0.5642 -0.0053
 1195ERGO    R116500  17.276  10.696   6.501 -0.0141  0.2964  0.0427
 1195ERGO    R216501  17.302  10.481   6.672  0.1432  0.1550 -0.1541
 1195ERGO    R316502  17.428  10.663   6.830  0.1405  0.0672 -0.0486
 1195ERGO    R416503  17.329  10.461   7.016  0.1394 -0.0391 -0.1638
 1195ERGO    R516504  17.293  10.675   7.027  0.1382 -0.0447 -0.0427
 1195ERGO    C116505  17.462  10.620   7.364  0.1346 -0.2344 -0.0704
 1195ERGO    C216506  17.485  10.772   7.677  0.0726 -0.1486 -0.0253
 1196ERGO   ROH16507   9.803  14.070   5.196  0.0499 -0.0265 -0.1403
 1196ERGO    R116508   9.878  13.986   5.456  0.0213 -0.0374 -0.1356
 1196ERGO    R216509  10.088  13.812   5.501  0.0708  0.0275 -0.1139
 1196ERGO    R316510  10.174  14.010   5.667 -0.0333  0.0342 -0.0673
 1196ERGO    R416511  10.262  13.762   5.796  0.0179  0.0488 -0.0787
 1196ERGO    R516512  10.143  13.921   5.887 -0.0553 -0.0028 -0.0861
 1196ERGO    C116513  10.443  13.919   6.123 -0.1104  0.0675 -0.0146
 1196ERGO    C216514  10.505  14.025   6.502  0.0760  0.2347  0.1323
 1197ERGO   ROH16515  10.623  10.048   5.598 -0.2285  0.1394  0.1344
 1197ERGO    R116516  10.640  10.126   5.870 -0.0803  0.0657  0.1457
 1197ERGO    R216517  10.688   9.946   6.073 -0.0032  0.0095  0.0697
 1197ERGO    R316518  10.892  10.115   6.133  0.0504 -0.0355  0.0208
 1197ERGO    R416519  10.805  10.007   6.392  0.0054  0.0572  0.0583
 1197ERGO    R516520  10.824  10.218   6.339  0.0721  0.0435 -0.0048
 1197ERGO    C116521  11.065  10.202   6.635  0.0610  0.0426  0.0057
 1197ERGO    C216522  10.963  10.061   7.026 -0.3563  0.3618 -0.1166
 1198ERGO   ROH16523  12.589  16.424   8.615 -0.4106 -0.2330 -0.2191
 1198ERGO    R116524  12.742  16.500   8.390 -0.1632 -0.1997 -0.0434
 1198ERGO    R216525  12.930  16.334   8.275 -0.2378 -0.2942 -0.0345
 1198ERGO    R316526  12.788  16.383   8.049 -0.0240  0.0305 -0.1054
 1198ERGO    R416527  13.025  16.237   7.957 -0.1700 -0.2558 -0.0261
 1198ERGO    R516528  12.954  16.429   7.882  0.1503 -0.1132  0.0275
 1198ERGO    C116529  12.946  16.226   7.560  0.0701  0.0713 -0.0877
 1198ERGO    C216530  13.166  16.190   7.316 -0.2243  0.0317 -0.0234
 1199ERGO   ROH16531   9.651  14.339   8.701 -0.1816 -0.0582 -0.0925
 1199ERGO    R116532   9.523  14.371   8.451 -0.2656 -0.2704 -0.0774
 1199ERGO    R216533   9.651  14.476   8.230 -0.5116  0.1246 -0.0362
 1199ERGO    R316534   9.567  14.246   8.112  0.0339 -0.0414 -0.1281
 1199ERGO    R416535   9.624  14.429   7.889 -0.5303  0.2565 -0.0544
 1199ERGO    R516536   9.438  14.320   7.924 -0.2476 -0.2584 -0.0310
 1199ERGO    C116537   9.530  14.185   7.579 -0.0291  0.1776 -0.1512
 1199ERGO    C216538   9.818  14.132   7.302  0.2445  0.3199 -0.0999
 1200ERGO   ROH16539   0.725  14.923   5.874  0.3513 -0.0831  0.0183
 1200ERGO    R116540   0.741  14.860   6.149  0.1469 -0.0319  0.0433
 1200ERGO    R216541   0.624  15.015   6.346  0.0283  0.0218 -0.0717
 1200ERGO    R316542   0.507  14.780   6.417 -0.0545  0.0512 -0.1053
 1200ERGO    R416543   0.435  14.966   6.631 -0.2942  0.1383 -0.2578
 1200ERGO    R516544   0.531  14.772   6.655 -0.3204  0.1459 -0.0724
 1200ERGO    C116545   0.217  14.717   6.864 -0.5598  0.2336 -0.3978
 1200ERGO    C216546  -0.008  14.645   7.052 -0.3636 -0.0914 -0.0122
 1201ERGO   ROH16547   5.845   9.359   9.217  0.1602  0.1356 -0.0725
 1201ERGO    R116548   5.924   9.197   8.999  0.0676  0.1581 -0.1232
 1201ERGO    R216549   5.777   8.978   8.915  0.1231  0.0591  0.0314
 1201ERGO    R316550   5.787   9.105   8.674 -0.1629  0.0395  0.0057
 1201ERGO    R416551   5.668   8.843   8.616  0.0100 -0.0655  0.1277
 1201ERGO    R516552   5.842   8.931   8.518 -0.1359  0.0675 -0.0147
 1201ERGO    C116553   5.614   8.882   8.216 -0.3244 -0.1563  0.1598
 1201ERGO    C216554   5.550   8.701   7.892  0.1365 -0.1995 -0.0961
 1202ERGO   ROH16555  12.037   4.180   6.070 -0.0342  0.0133 -0.0920
 1202ERGO    R116556  11.770   4.123   6.143 -0.0286  0.0636 -0.0307
 1202ERGO    R216557  11.647   3.882   6.084 -0.1175  0.1161 -0.0812
 1202ERGO    R316558  11.600   3.878   6.351 -0.0304  0.0369 -0.0670
 1202ERGO    R416559  11.442   3.655   6.245  0.2101 -0.1424 -0.0183
 1202ERGO    R516560  11.369   3.817   6.370  0.0523 -0.2455  0.0112
 1202ERGO    C116561  11.279   3.519   6.590  0.4824 -0.3672  0.0317
 1202ERGO    C216562  11.101   3.302   6.552 -0.0428 -0.0185  0.1402
 1203ERGO   ROH16563   7.039   3.506   5.427  0.3138  0.1969 -0.1055
 1203ERGO    R116564   7.130   3.682   5.629  0.1851  0.1061  0.0340
 1203ERGO    R216565   6.961   3.791   5.819  0.0625  0.0169 -0.0185
 1203ERGO    R316566   7.140   3.683   5.993 -0.0441 -0.0632  0.0420
 1203ERGO    R416567   6.995   3.883   6.150 -0.0503 -0.0533  0.0127
 1203ERGO    R516568   7.210   3.868   6.128 -0.0479 -0.1108  0.1049
 1203ERGO    C116569   7.182   3.835   6.507 -0.2160 -0.1694  0.0878
 1203ERGO    C216570   7.276   3.760   6.735 -0.0206  0.2860  0.1007
 1204ERGO   ROH16571  12.754  13.873   5.975 -0.5121 -0.0888 -0.2459
 1204ERGO    R116572  12.535  13.953   6.137 -0.3601  0.0028 -0.0809
 1204ERGO    R216573  12.536  13.925   6.412 -0.1651 -0.0122 -0.0798
 1204ERGO    R316574  12.479  14.191   6.406 -0.0509  0.0210 -0.0260
 1204ERGO    R416575  12.331  14.088   6.637 -0.1598  0.0135 -0.0932
 1204ERGO    R516576  12.249  14.204   6.472 -0.0680  0.0978 -0.0894
 1204ERGO    C116577  12.158  14.432   6.763 -0.0496  0.0597 -0.0504
 1204ERGO    C216578  12.117  14.672   7.115  0.1124 -0.0833 -0.0143
 1205ERGO   ROH16579   6.070   3.126   8.762  0.1296 -0.1327 -0.0466
 1205ERGO    R116580   6.123   3.042   8.497 -0.0832  0.1386 -0.1818
 1205ERGO    R216581   6.051   3.192   8.275  0.1569  0.6061  0.0325
 1205ERGO    R316582   6.314   3.166   8.213  0.1068  0.1858 -0.0321
 1205ERGO    R416583   6.186   3.244   7.962  0.1626  0.2292 -0.0312
 1205ERGO    R516584   6.315   3.071   7.994 -0.0834  0.0618  0.0252
 1205ERGO    C116585   6.512   3.250   7.721  0.1189 -0.3849 -0.1291
 1205ERGO    C216586   6.727   3.324   7.475  0.0921 -0.0846  0.5236
 1206ERGO   ROH16587  13.943  14.396   9.030  0.1265  0.0703  0.1920
 1206ERGO    R116588  13.871  14.389   8.756 -0.0208 -0.0861  0.2326
 1206ERGO    R216589  13.838  14.618   8.605 -0.0430 -0.1726  0.1043
 1206ERGO    R316590  14.019  14.497   8.442 -0.1592 -0.3215  0.0834
 1206ERGO    R416591  13.848  14.652   8.261 -0.0113 -0.1212  0.1102
 1206ERGO    R516592  13.894  14.439   8.246 -0.2177 -0.1657  0.0731
 1206ERGO    C116593  14.023  14.559   7.908 -0.1018 -0.2311  0.0942
 1206ERGO    C216594  14.278  14.694   7.668 -0.1243 -0.0080 -0.0059
 1207ERGO   ROH16595   1.526  17.645   5.655  0.1130 -0.0956  0.1410
 1207ERGO    R116596   1.564  17.738   5.919  0.1347 -0.1521  0.1578
 1207ERGO    R216597   1.354  17.777   6.094  0.1267  0.0269  0.1095
 1207ERGO    R316598   1.499  17.613   6.255 -0.0627 -0.1223  0.1322
 1207ERGO    R416599   1.387  17.815   6.436  0.3758  0.1916  0.0699
 1207ERGO    R516600   1.597  17.760   6.417  0.2785 -0.1803 -0.0134
 1207ERGO    C116601   1.543  17.683   6.786  0.3430  0.1476  0.0681
 1207ERGO    C216602   1.567  17.639   7.089 -0.2660  0.0342  0.4635
 1208ERGO   ROH16603  18.571  10.573   9.737  0.0811 -0.3627  0.1187
 1208ERGO    R116604  18.542  10.425   9.497  0.0313 -0.2250  0.0393
 1208ERGO    R216605  18.385  10.511   9.287 -0.0623 -0.1368  0.1521
 1208ERGO    R316606  18.613  10.476   9.144 -0.1088  0.0015  0.0400
 1208ERGO    R416607  18.399  10.463   8.945 -0.2369 -0.3676  0.1740
 1208ERGO    R516608  18.556  10.315   8.977 -0.0538 -0.1874  0.1910
 1208ERGO    C116609  18.623  10.403   8.612 -0.3822 -0.3723  0.0814
 1208ERGO    C216610  18.753  10.601   8.380  0.1131  0.0120  0.1806
 1209ERGO   ROH16611  14.059  13.848   5.861  0.0892  0.0035 -0.0171
 1209ERGO    R116612  13.892  13.900   6.084 -0.1278 -0.1889 -0.1307
 1209ERGO    R216613  13.785  13.699   6.240  0.3234 -0.3171  0.0257
 1209ERGO    R316614  13.903  13.837   6.442 -0.0882  0.1926 -0.0590
 1209ERGO    R416615  13.695  13.676   6.572  0.3464 -0.3327  0.0314
 1209ERGO    R516616  13.722  13.892   6.589 -0.2820 -0.2180 -0.1258
 1209ERGO    C116617  13.753  13.792   6.956 -0.0268  0.1368 -0.0448
 1209ERGO    C216618  13.700  13.662   7.209  0.1561  0.0016  0.2039
 1210ERGO   ROH16619   7.437   1.136   8.545  0.2250 -0.1628  0.0739
 1210ERGO    R116620   7.577   1.035   8.320  0.1813 -0.0178 -0.0206
 1210ERGO    R216621   7.605   0.764   8.272  0.2943  0.0081 -0.1221
 1210ERGO    R316622   7.497   0.829   8.031  0.1564  0.0412 -0.0562
 1210ERGO    R416623   7.658   0.590   7.978  0.2416  0.1352 -0.2073
 1210ERGO    R516624   7.671   0.780   7.873  0.1076  0.1760 -0.1507
 1210ERGO    C116625   7.588   0.549   7.581  0.0815  0.2404 -0.1952
 1210ERGO    C216626   7.587   0.333   7.317 -0.2141 -0.2013  0.1772
 1211ERGO   ROH16627  14.387   3.191   6.248  0.3353  0.0097  0.1764
 1211ERGO    R116628  14.186   3.148   6.443  0.1289 -0.0727 -0.0487
 1211ERGO    R216629  14.104   2.897   6.519  0.2298 -0.1094 -0.0614
 1211ERGO    R316630  14.164   2.987   6.769 -0.1393  0.0266 -0.0160
 1211ERGO    R416631  13.972   2.768   6.812 -0.0000 -0.1226 -0.1681
 1211ERGO    R516632  13.956   2.972   6.888 -0.2673 -0.1112 -0.2515
 1211ERGO    C116633  13.951   2.778   7.216 -0.4805 -0.0028 -0.1876
 1211ERGO    C216634  13.921   2.614   7.493 -0.0074  0.4071 -0.1054
 1212ERGO   ROH16635   0.581   5.186   9.372  0.3001 -0.1616  0.1799
 1212ERGO    R116636   0.689   5.009   9.179  0.1922  0.0548 -0.0849
 1212ERGO    R216637   0.552   4.786   9.089  0.2762 -0.0272 -0.0032
 1212ERGO    R316638   0.599   4.896   8.845 -0.1964  0.1597 -0.0226
 1212ERGO    R416639   0.538   4.615   8.789  0.1551  0.0797 -0.0600
 1212ERGO    R516640   0.715   4.725   8.724 -0.0833  0.3803 -0.2413
 1212ERGO    C116641   0.575   4.619   8.385 -0.3590  0.3175 -0.1112
 1212ERGO    C216642   0.717   4.574   7.951  0.0318  0.0187  0.1947
 1213ERGO   ROH16643  18.203   8.611  10.042  0.0545 -0.2212  0.0092
 1213ERGO    R116644  18.208   8.517   9.775  0.1206 -0.0650 -0.0462
 1213ERGO    R216645  17.977   8.460   9.633  0.1604 -0.2499 -0.0414
 1213ERGO    R316646  18.084   8.632   9.452 -0.0643 -0.0200  0.0394
 1213ERGO    R416647  17.979   8.411   9.291  0.2783 -0.1158 -0.0600
 1213ERGO    R516648  18.182   8.491   9.286  0.1670  0.1843 -0.0035
 1213ERGO    C116649  18.081   8.545   8.922  0.1358  0.1782  0.0049
 1213ERGO    C216650  18.169   8.498   8.692  0.0231  0.1308  0.1663
 1214ERGO   ROH16651  16.045   5.795   6.080 -0.2346  0.1542 -0.0333
 1214ERGO    R116652  16.041   5.565   6.246 -0.0937  0.2185  0.0609
 1214ERGO    R216653  16.198   5.543   6.472 -0.0772  0.4061  0.0696
 1214ERGO    R316654  15.960   5.491   6.593 -0.0453  0.3105  0.0925
 1214ERGO    R416655  16.158   5.479   6.809  0.0105  0.1780  0.0386
 1214ERGO    R516656  16.012   5.325   6.758  0.0070  0.2020 -0.0299
 1214ERGO    C116657  15.911   5.394   7.119  0.0916 -0.0445  0.0421
 1214ERGO    C216658  15.800   5.503   7.429 -0.0810  0.0613 -0.0462
 1215ERGO   ROH16659   2.860   3.745   9.258 -0.1400 -0.0567 -0.0554
 1215ERGO    R116660   2.933   3.685   8.992 -0.0536 -0.0381 -0.0361
 1215ERGO    R216661   2.812   3.484   8.846  0.1207 -0.1535 -0.0274
 1215ERGO    R316662   2.771   3.684   8.666 -0.0063 -0.2083 -0.0600
 1215ERGO    R416663   2.877   3.462   8.507 -0.3321 -0.3311 -0.1092
 1215ERGO    R516664   2.954   3.666   8.513 -0.2132 -0.3695 -0.2954
 1215ERGO    C116665   2.875   3.637   8.141 -0.7150 -0.4859 -0.1876
 1215ERGO    C216666   2.823   3.725   7.801  0.2489  0.0612 -0.1461
 1216ERGO   ROH16667   5.759  12.851   5.886  0.2559 -0.3791  0.1050
 1216ERGO    R116668   5.644  13.026   6.076  0.2749  0.0793 -0.2879
 1216ERGO    R216669   5.619  12.960   6.343 -0.4640  0.3542 -0.2732
 1216ERGO    R316670   5.751  13.195   6.380  0.0529  0.0669 -0.1972
 1216ERGO    R416671   5.623  13.139   6.638 -0.5126  0.4802 -0.3475
 1216ERGO    R516672   5.606  13.323   6.522  0.1106  0.4864 -0.4857
 1216ERGO    C116673   5.750  13.464   6.845 -0.0557  0.2838 -0.3194
 1216ERGO    C216674   5.991  13.638   7.041 -0.1155  0.0325  0.1022
 1217ERGO   ROH16675   1.874   3.423   9.068  0.0776  0.3851 -0.1034
 1217ERGO    R116676   1.995   3.340   8.826  0.1056  0.2664 -0.0498
 1217ERGO    R216677   1.885   3.145   8.663  0.1910  0.0900  0.0956
 1217ERGO    R316678   1.906   3.338   8.473  0.0855 -0.0351 -0.0453
 1217ERGO    R416679   1.866   3.091   8.322 -0.0101 -0.1293  0.1394
 1217ERGO    R516680   2.027   3.234   8.295 -0.0231 -0.1520 -0.0492
 1217ERGO    C116681   1.875   3.240   7.945 -0.2262 -0.3743  0.0327
 1217ERGO    C216682   1.913   3.174   7.560 -0.0127 -0.1880  0.2219
 1218ERGO   ROH16683  14.929   9.724   9.414 -0.0338  0.0524 -0.1518
 1218ERGO    R116684  15.095   9.858   9.227 -0.0248  0.0849 -0.1206
 1218ERGO    R216685  15.274   9.724   9.065  0.0540  0.1268 -0.0703
 1218ERGO    R316686  15.143   9.855   8.866  0.0673  0.0735 -0.1066
 1218ERGO    R416687  15.407   9.796   8.754  0.0811  0.0986 -0.0649
 1218ERGO    R516688  15.310   9.991   8.764  0.0555  0.0784 -0.1088
 1218ERGO    C116689  15.361   9.961   8.387  0.1094  0.0320 -0.0960
 1218ERGO    C216690  15.465   9.718   8.083  0.0780 -0.0181 -0.0092
 1219ERGO   ROH16691   3.487   7.139   6.775  0.1335  0.0264 -0.1519
 1219ERGO    R116692   3.650   7.199   6.998  0.0903 -0.0962 -0.0864
 1219ERGO    R216693   3.762   7.448   7.037  0.2353 -0.1700 -0.0256
 1219ERGO    R316694   3.640   7.430   7.279  0.1335 -0.1119 -0.0718
 1219ERGO    R416695   3.792   7.680   7.292  0.1821 -0.1432 -0.0433
 1219ERGO    R516696   3.802   7.514   7.434  0.0894 -0.1266 -0.0175
 1219ERGO    C116697   3.695   7.797   7.668  0.0554 -0.0730 -0.0970
 1219ERGO    C216698   3.720   7.907   7.942  0.2645  0.1224 -0.0336
 1220ERGO   ROH16699   7.470   2.286   9.026 -0.0696  0.0712 -0.0230
 1220ERGO    R116700   7.465   2.143   8.782 -0.1040  0.0361 -0.0017
 1220ERGO    R216701   7.386   2.259   8.543 -0.0645  0.0235 -0.0208
 1220ERGO    R316702   7.628   2.169   8.457 -0.0875 -0.0590 -0.0012
 1220ERGO    R416703   7.480   2.229   8.212 -0.0235  0.0502 -0.0120
 1220ERGO    R516704   7.578   2.041   8.261 -0.1087  0.0002 -0.0342
 1220ERGO    C116705   7.762   2.128   7.938 -0.0213 -0.0117  0.0116
 1220ERGO    C216706   7.726   2.065   7.506 -0.2090  0.1059 -0.1342
 1221ERGO   ROH16707  18.396  13.117   5.848  0.0317 -0.0722  0.0039
 1221ERGO    R116708  18.308  13.277   6.065 -0.0412  0.0122 -0.0857
 1221ERGO    R216709  18.122  13.478   6.035 -0.1396 -0.0872 -0.2004
 1221ERGO    R316710  17.992  13.344   6.232 -0.0723 -0.0406 -0.1256
 1221ERGO    R416711  17.818  13.571   6.171 -0.0539 -0.0172 -0.0575
 1221ERGO    R516712  17.895  13.515   6.367  0.0278 -0.0133 -0.0933
 1221ERGO    C116713  17.520  13.498   6.436  0.0591  0.0674  0.0960
 1221ERGO    C216714  17.257  13.412   6.640 -0.3008  0.2959  0.2057
 1222ERGO   ROH16715   1.806   5.819   6.071 -0.0412  0.1132 -0.2041
 1222ERGO    R116716   1.627   5.862   6.287 -0.1258  0.0923 -0.2696
 1222ERGO    R216717   1.711   5.870   6.550 -0.2594 -0.1612 -0.2153
 1222ERGO    R316718   1.584   6.111   6.549 -0.0769 -0.0617 -0.1135
 1222ERGO    R416719   1.582   6.026   6.830 -0.1941 -0.2061 -0.1593
 1222ERGO    R516720   1.409   6.086   6.711 -0.1268 -0.0118 -0.1606
 1222ERGO    C116721   1.387   6.342   6.992  0.0153 -0.1388 -0.0312
 1222ERGO    C216722   1.342   6.570   7.232  0.1000  0.0692 -0.1590
 1223ERGO   ROH16723  14.042   7.047   5.939  0.0735 -0.0850 -0.0613
 1223ERGO    R116724  14.057   7.077   6.220  0.0352 -0.0229 -0.0658
 1223ERGO    R216725  14.292   7.041   6.362  0.0111 -0.0159 -0.0225
 1223ERGO    R316726  14.236   7.291   6.454  0.0237  0.0111 -0.0882
 1223ERGO    R416727  14.405   7.172   6.661 -0.3153 -0.0898  0.1387
 1223ERGO    R516728  14.210   7.263   6.690 -0.3079  0.0158 -0.1199
 1223ERGO    C116729  14.420   7.483   6.921 -0.4935 -0.1074  0.1709
 1223ERGO    C216730  14.553   7.594   7.179  0.0847  0.3523 -0.1196
 1224ERGO   ROH16731   0.957   1.157   5.695  0.1468  0.0507 -0.1756
 1224ERGO    R116732   0.875   1.225   5.957  0.0877  0.0437 -0.1916
 1224ERGO    R216733   0.911   1.056   6.173  0.0751  0.0530 -0.1788
 1224ERGO    R316734   1.035   1.273   6.280  0.0222  0.0757 -0.1645
 1224ERGO    R416735   0.941   1.120   6.512  0.1527 -0.0120 -0.1734
 1224ERGO    R516736   0.901   1.331   6.470  0.0590 -0.0197 -0.1117
 1224ERGO    C116737   1.074   1.361   6.809  0.1483 -0.0285 -0.1568
 1224ERGO    C216738   1.053   1.345   7.078 -0.4867  0.1334 -0.0045
 1225ERGO   ROH16739   3.383   9.621   9.465 -0.0592 -0.2411 -0.0437
 1225ERGO    R116740   3.382   9.502   9.208 -0.3010 -0.2477 -0.0418
 1225ERGO    R216741   3.156   9.495   9.049 -0.3193  0.2289 -0.0518
 1225ERGO    R316742   3.321   9.611   8.866 -0.0562 -0.1187 -0.0464
 1225ERGO    R416743   3.085   9.530   8.712 -0.1818  0.2782 -0.0761
 1225ERGO    R516744   3.293   9.480   8.668 -0.2576 -0.1205 -0.0186
 1225ERGO    C116745   3.199   9.659   8.345  0.1453 -0.0195 -0.0851
 1225ERGO    C216746   3.021   9.632   8.029 -0.1613 -0.0224  0.2859
 1226ERGO   ROH16747   8.421   1.270   8.606  0.3366 -0.1284  0.0500
 1226ERGO    R116748   8.397   1.361   8.339  0.1460 -0.1143  0.0700
 1226ERGO    R216749   8.615   1.431   8.185  0.0252  0.0871 -0.0176
 1226ERGO    R316750   8.509   1.252   8.010  0.0980  0.0186  0.0086
 1226ERGO    R416751   8.667   1.434   7.843 -0.1607  0.1996 -0.0458
 1226ERGO    R516752   8.457   1.382   7.816 -0.1291  0.0075  0.0592
 1226ERGO    C116753   8.598   1.267   7.480 -0.2007  0.2008 -0.0376
 1226ERGO    C216754   8.613   1.396   7.257 -0.1505 -0.0337  0.0423
 1227ERGO   ROH16755  13.777   5.154   6.398  0.0228  0.0531 -0.1140
 1227ERGO    R116756  13.899   5.067   6.638 -0.0218 -0.0553 -0.1300
 1227ERGO    R216757  14.016   5.241   6.816  0.2432 -0.1653 -0.1916
 1227ERGO    R316758  13.849   5.120   6.995  0.1364  0.0735 -0.1261
 1227ERGO    R416759  14.094   5.177   7.147  0.2657 -0.2333 -0.2101
 1227ERGO    R516760  13.994   4.984   7.128  0.0003 -0.1069 -0.1585
 1227ERGO    C116761  13.984   5.027   7.507  0.1785 -0.0487 -0.1594
 1227ERGO    C216762  14.073   4.991   7.824  0.0034 -0.2417 -0.0163
 1228ERGO   ROH16763  16.626  14.323   5.941 -0.2182  0.2977 -0.0146
 1228ERGO    R116764  16.617  14.261   6.217 -0.0115  0.0597 -0.0566
 1228ERGO    R216765  16.779  14.069   6.332  0.3499  0.2205 -0.2699
 1228ERGO    R316766  16.846  14.273   6.499  0.0857  0.2059 -0.1427
 1228ERGO    R416767  16.918  14.029   6.646  0.3197  0.2128 -0.2584
 1228ERGO    R516768  16.790  14.191   6.717  0.1256  0.0317 -0.2007
 1228ERGO    C116769  17.061  14.197   6.986  0.0542  0.1947 -0.1322
 1228ERGO    C216770  17.241  13.991   7.289  0.2801  0.0805 -0.0153
 1229ERGO   ROH16771  13.846  14.733   5.958  0.1434 -0.0214 -0.1969
 1229ERGO    R116772  13.904  14.500   6.108  0.0281  0.1920  0.1926
 1229ERGO    R216773  14.068  14.300   6.013 -0.3315 -0.1978  0.3775
 1229ERGO    R316774  14.200  14.341   6.247 -0.0002  0.0974  0.1500
 1229ERGO    R416775  14.335  14.111   6.123 -0.4464 -0.3398  0.4191
 1229ERGO    R516776  14.252  14.120   6.325 -0.2048  0.1677  0.5183
 1229ERGO    C116777  14.615  14.039   6.407 -0.2024 -0.1452  0.2298
 1229ERGO    C216778  14.912  13.838   6.419 -0.2670 -0.3460  0.2060
 1230ERGO   ROH16779  18.916  18.634   6.185  0.2509 -0.2277 -0.1115
 1230ERGO    R116780  18.937  18.734   6.449  0.2872 -0.3008 -0.0866
 1230ERGO    R216781  18.719  18.826   6.592  0.3701  0.0931 -0.2037
 1230ERGO    R316782  18.805  18.646   6.777 -0.0722 -0.0999 -0.1727
 1230ERGO    R416783  18.706  18.874   6.934  0.4812  0.1882 -0.2118
 1230ERGO    R516784  18.902  18.781   6.949  0.2647 -0.3032 -0.1944
 1230ERGO    C116785  18.778  18.733   7.307  0.1306  0.0623 -0.1874
 1230ERGO    C216786  18.640  18.584   7.654  0.0507 -0.1118  0.1492
 1231ERGO   ROH16787   6.974  10.338   9.006  0.0681  0.1812  0.0335
 1231ERGO    R116788   6.841  10.234   8.779 -0.0536  0.1360  0.1236
 1231ERGO    R216789   6.832  10.368   8.537 -0.1251  0.0588  0.0801
 1231ERGO    R316790   6.934  10.135   8.441 -0.2188  0.0029  0.1171
 1231ERGO    R416791   6.783  10.248   8.216 -0.2251 -0.0093  0.1206
 1231ERGO    R516792   6.761  10.048   8.300 -0.2717  0.0209  0.1737
 1231ERGO    C116793   6.850   9.959   7.940 -0.3713 -0.1014  0.1791
 1231ERGO    C216794   6.887   9.828   7.629 -0.2016 -0.1778 -0.1160
 1232ERGO   ROH16795  14.733   1.318   6.176  0.1885  0.1417  0.1222
 1232ERGO    R116796  14.881   1.278   6.414  0.1785  0.1397  0.1274
 1232ERGO    R216797  14.780   1.137   6.629  0.1604  0.1588  0.1299
 1232ERGO    R316798  15.010   0.994   6.601  0.1493  0.1370  0.1440
 1232ERGO    R416799  14.901   0.910   6.860  0.0912  0.0971  0.1066
 1232ERGO    R516800  15.102   0.985   6.822  0.1076  0.0813  0.1597
 1232ERGO    C116801  15.187   0.643   6.968  0.0405  0.0408  0.1063
 1232ERGO    C216802  15.285   0.342   6.985 -0.0804  0.1598  0.0550
 1233ERGO   ROH16803   1.756   0.327   8.778 -0.0033 -0.1971 -0.1174
 1233ERGO    R116804   1.729   0.380   8.501  0.0008 -0.0683 -0.0933
 1233ERGO    R216805   1.810   0.618   8.387  0.0870 -0.0545  0.0053
 1233ERGO    R316806   1.952   0.453   8.224  0.0114 -0.0376 -0.0787
 1233ERGO    R416807   1.913   0.698   8.067 -0.3277 -0.1195 -0.1510
 1233ERGO    R516808   1.863   0.495   8.005 -0.2693 -0.1875 -0.0031
 1233ERGO    C116809   2.106   0.590   7.727 -0.6400 -0.1415 -0.3208
 1233ERGO    C216810   2.135   0.611   7.389 -0.4840  0.0107  0.2176
 1234ERGO   ROH16811   0.264  17.853   6.329  0.2511 -0.0012 -0.0551
 1234ERGO    R116812   0.225  18.041   6.537  0.2042 -0.0977  0.0250
 1234ERGO    R216813   0.409  18.081   6.739  0.2948  0.0135 -0.0757
 1234ERGO    R316814   0.393  18.340   6.658  0.0048  0.0236  0.0066
 1234ERGO    R416815   0.508  18.353   6.928  0.2047  0.0472 -0.0781
 1234ERGO    R516816   0.332  18.460   6.857  0.0532 -0.0854  0.0879
 1234ERGO    C116817   0.550  18.755   6.963 -0.1200  0.0764 -0.0023
 1234ERGO    C216818   0.592  19.013   7.217 -0.2231 -0.2297  0.3736
 1235ERGO   ROH16819  15.181   0.207   5.902  0.0389 -0.0228 -0.1990
 1235ERGO    R116820  15.082   0.173   6.165  0.0255  0.0024 -0.2017
 1235ERGO    R216821  15.075  -0.072   6.292  0.0696  0.0255 -0.1604
 1235ERGO    R316822  15.213   0.061   6.485  0.0239  0.0888 -0.1697
 1235ERGO    R416823  15.143  -0.195   6.608 -0.0871  0.1637 -0.0706
 1235ERGO    R516824  15.102   0.003   6.689 -0.0737  0.2152 -0.1841
 1235ERGO    C116825  15.311  -0.142   6.973 -0.2212  0.3034 -0.0271
 1235ERGO    C216826  15.414  -0.457   7.287  0.0587 -0.1301 -0.1565
 1236ERGO   ROH16827   0.215   5.514   6.404  0.1257 -0.1319  0.0694
 1236ERGO    R116828   0.153   5.432   6.668  0.0277 -0.0659  0.0664
 1236ERGO    R216829   0.260   5.203   6.781 -0.0742 -0.0748  0.1341
 1236ERGO    R316830   0.336   5.376   6.977 -0.0767 -0.0667  0.1302
 1236ERGO    R416831   0.327   5.114   7.108  0.0959 -0.0954  0.0954
 1236ERGO    R516832   0.226   5.295   7.174  0.0352 -0.1493  0.1629
 1236ERGO    C116833   0.438   5.224   7.482  0.1925 -0.0998  0.0691
 1236ERGO    C216834   0.482   5.105   7.733  0.0597 -0.0447  0.1837
 1237ERGO   ROH16835   8.886   0.239   8.828 -0.1912 -0.1053  0.0791
 1237ERGO    R116836   8.968   0.229   8.557 -0.0010 -0.0076  0.1316
 1237ERGO    R216837   9.049  -0.005   8.434  0.0244  0.0269  0.0881
 1237ERGO    R316838   8.857   0.062   8.254  0.1708  0.1541 -0.0240
 1237ERGO    R416839   9.016  -0.145   8.120 -0.0934 -0.2185  0.2062
 1237ERGO    R516840   8.969   0.053   8.042  0.2244 -0.2089  0.0099
 1237ERGO    C116841   8.817  -0.163   7.767 -0.0246 -0.2421  0.1698
 1237ERGO    C216842   8.745  -0.212   7.455 -0.1094 -0.2405  0.2069
 1238ERGO   ROH16843  12.012  17.362   8.824 -0.1632 -0.1269  0.0508
 1238ERGO    R116844  11.954  17.250   8.570 -0.1124 -0.1061  0.0306
 1238ERGO    R216845  11.713  17.290   8.442 -0.0303  0.0231 -0.0778
 1238ERGO    R316846  11.872  17.376   8.239  0.1062 -0.0773 -0.0152
 1238ERGO    R416847  11.599  17.397   8.133  0.1543  0.0483 -0.1389
 1238ERGO    R516848  11.767  17.292   8.041  0.1477 -0.0482 -0.0541
 1238ERGO    C116849  11.683  17.539   7.763  0.3901 -0.0317 -0.1156
 1238ERGO    C216850  11.387  17.615   7.562 -0.3443 -0.2056  0.1609
 1239ERGO   ROH16851   3.947   0.113   8.670 -0.2932  0.0280 -0.1280
 1239ERGO    R116852   3.893   0.021   8.408 -0.2136  0.0085 -0.1382
 1239ERGO    R216853   3.899   0.188   8.187  0.0014 -0.0369 -0.1715
 1239ERGO    R316854   4.074   0.002   8.092 -0.0601 -0.1622 -0.0419
 1239ERGO    R416855   3.946   0.112   7.853  0.1318 -0.1355 -0.1312
 1239ERGO    R516856   3.960  -0.098   7.907 -0.0229 -0.1321 -0.0798
 1239ERGO    C116857   4.137  -0.106   7.570  0.1500 -0.3105  0.0137
 1239ERGO    C216858   4.147  -0.096   7.184  0.1421  0.0571  0.1517
 1240ERGO   ROH16859  14.425  17.418   5.654  0.0122 -0.0984 -0.0350
 1240ERGO    R116860  14.396  17.535   5.910  0.1305 -0.0337 -0.0515
 1240ERGO    R216861  14.160  17.650   5.996  0.2046  0.0813 -0.0122
 1240ERGO    R316862  14.191  17.478   6.205  0.1872  0.1149  0.0189
 1240ERGO    R416863  13.944  17.625   6.265  0.1967  0.1568 -0.0108
 1240ERGO    R516864  14.117  17.604   6.396  0.1979  0.1624 -0.0038
 1240ERGO    C116865  13.846  17.450   6.617  0.1758  0.2321  0.0194
 1240ERGO    C216866  13.738  17.394   6.852  0.2953  0.1008 -0.1541
 1241ERGO   ROH16867   9.180  11.796   8.476 -0.1147  0.1029 -0.2075
 1241ERGO    R116868   9.239  11.562   8.328 -0.2050  0.0950 -0.2330
 1241ERGO    R216869   9.175  11.536   8.060 -0.0591  0.2182 -0.2866
 1241ERGO    R316870   9.439  11.478   8.035 -0.0855  0.0210 -0.1291
 1241ERGO    R416871   9.322  11.400   7.778  0.0213  0.1286 -0.2018
 1241ERGO    R516872   9.444  11.275   7.908 -0.1541  0.0292 -0.1377
 1241ERGO    C116873   9.655  11.267   7.591  0.0434 -0.1089 -0.0046
 1241ERGO    C216874   9.778  11.309   7.382  0.2426 -0.0759 -0.3573
 1242ERGO   ROH16875  15.772   7.001   9.500 -0.0772  0.0273  0.0944
 1242ERGO    R116876  15.894   6.882   9.274 -0.0760 -0.0234  0.1235
 1242ERGO    R216877  15.788   6.902   9.019 -0.0275 -0.0086  0.1128
 1242ERGO    R316878  16.035   6.998   8.960  0.0125 -0.0894  0.1357
 1242ERGO    R416879  15.897   6.986   8.702  0.0225 -0.0554  0.1157
 1242ERGO    R516880  16.090   6.897   8.750 -0.0036 -0.1203  0.1396
 1242ERGO    C116881  16.193   7.125   8.462  0.0891 -0.1586  0.1389
 1242ERGO    C216882  16.338   7.423   8.368 -0.1359 -0.0673  0.0613
 1243ERGO   ROH16883  18.725   8.676   6.405 -0.1777 -0.0491 -0.2365
 1243ERGO    R116884  18.520   8.539   6.545 -0.0889 -0.0583 -0.1125
 1243ERGO    R216885  18.545   8.463   6.809  0.0538 -0.0134 -0.1096
 1243ERGO    R316886  18.312   8.601   6.837  0.0479 -0.0421 -0.0187
 1243ERGO    R416887  18.338   8.447   7.086  0.1325 -0.0783 -0.0545
 1243ERGO    R516888  18.167   8.449   6.951  0.0957 -0.0728 -0.0029
 1243ERGO    C116889  17.999   8.567   7.273  0.1730 -0.1432  0.0631
 1243ERGO    C216890  17.879   8.690   7.565 -0.2006 -0.2309 -0.0251
 1244ERGO   ROH16891   2.530  17.685   5.475  0.3290  0.2389  0.1172
 1244ERGO    R116892   2.637  17.506   5.666  0.2252  0.0852  0.0328
 1244ERGO    R216893   2.876  17.553   5.798  0.2371 -0.0994  0.0802
 1244ERGO    R316894   2.723  17.516   6.019  0.1988 -0.1428  0.0470
 1244ERGO    R416895   2.994  17.555   6.122  0.1198  0.2058  0.1257
 1244ERGO    R516896   2.861  17.388   6.166  0.2846  0.0863  0.1682
 1244ERGO    C116897   2.919  17.520   6.519  0.0155  0.3427  0.1209
 1244ERGO    C216898   3.015  17.495   6.896  0.0032  0.1829 -0.2556
 1245ERGO   ROH16899   0.575   7.482   6.147  0.0354 -0.1404  0.0346
 1245ERGO    R116900   0.617   7.331   6.382  0.0037 -0.0346  0.1102
 1245ERGO    R216901   0.754   7.430   6.601 -0.1517  0.1191  0.1477
 1245ERGO    R316902   0.529   7.359   6.734 -0.1828  0.0484  0.0557
 1245ERGO    R416903   0.747   7.282   6.913 -0.2377 -0.1436  0.0232
 1245ERGO    R516904   0.586   7.154   6.843 -0.2463 -0.0510 -0.1064
 1245ERGO    C116905   0.531   7.129   7.220 -0.3169 -0.3628 -0.1356
 1245ERGO    C216906   0.408   7.135   7.525  0.3732  0.2273 -0.0034
 1246ERGO   ROH16907  18.420   6.649   6.050  0.2222 -0.1490  0.2217
 1246ERGO    R116908  18.230   6.685   6.256  0.1672 -0.0214  0.1500
 1246ERGO    R216909  18.244   6.550   6.496  0.0661  0.0764  0.2120
 1246ERGO    R316910  18.233   6.800   6.602  0.0870  0.1233  0.1037
 1246ERGO    R416911  18.196   6.621   6.831  0.0794  0.2253  0.1828
 1246ERGO    R516912  18.066   6.786   6.772  0.0899  0.2096  0.1144
 1246ERGO    C116913  18.159   6.898   7.125  0.1069  0.3560  0.0642
 1246ERGO    C216914  18.384   7.023   7.365  0.4218  0.4652 -0.1883
 1247ERGO   ROH16915  18.301   1.639   9.488  0.1787  0.2671  0.2486
 1247ERGO    R116916  18.347   1.779   9.247  0.1782 -0.0294  0.0709
 1247ERGO    R216917  18.364   2.055   9.236 -0.1056 -0.0182 -0.3139
 1247ERGO    R316918  18.602   2.004   9.116  0.0248  0.0531 -0.0896
 1247ERGO    R416919  18.529   2.273   9.025  0.0099  0.0109 -0.1939
 1247ERGO    R516920  18.582   2.103   8.899  0.1884  0.0140 -0.1224
 1247ERGO    C116921  18.850   2.352   8.790  0.1996  0.0949  0.0865
 1247ERGO    C216922  19.027   2.635   8.639  0.0110  0.0241 -0.1796
 1248ERGO   ROH16923   9.082   3.238   5.943  0.0352  0.0774 -0.1082
 1248ERGO    R116924   9.096   3.293   6.220  0.1092  0.0783 -0.1116
 1248ERGO    R216925   8.991   3.523   6.332  0.0714  0.0436 -0.0746
 1248ERGO    R316926   8.858   3.347   6.491  0.1806 -0.0017 -0.0323
 1248ERGO    R416927   8.839   3.604   6.631 -0.0819  0.0476 -0.1528
 1248ERGO    R516928   8.912   3.416   6.714  0.0603  0.1474 -0.0477
 1248ERGO    C116929   8.625   3.486   6.955 -0.0687  0.0074 -0.1588
 1248ERGO    C216930   8.204   3.543   7.006 -0.1586 -0.1492 -0.2756
 1249ERGO   ROH16931  18.381  14.268   9.397  0.0013  0.1958  0.1181
 1249ERGO    R116932  18.314  14.269   9.121 -0.0973  0.2727  0.1416
 1249ERGO    R216933  18.269  14.502   8.980  0.2539  0.3362  0.1307
 1249ERGO    R316934  18.460  14.401   8.815  0.0243 -0.0166  0.0700
 1249ERGO    R416935  18.257  14.510   8.634  0.0730  0.2082  0.1327
 1249ERGO    R516936  18.337  14.308   8.632 -0.2198  0.0799  0.1745
 1249ERGO    C116937  18.429  14.419   8.279 -0.2480 -0.1974  0.0768
 1249ERGO    C216938  18.608  14.617   7.888  0.1365  0.1184 -0.0380
 1250ERGO   ROH16939   9.649  14.604   5.118  0.2176 -0.1994  0.0007
 1250ERGO    R116940   9.713  14.733   5.362  0.0525 -0.1332  0.0100
 1250ERGO    R216941   9.521  14.802   5.548 -0.0599 -0.2008 -0.0802
 1250ERGO    R316942   9.681  14.660   5.716 -0.0593 -0.0986  0.0075
 1250ERGO    R416943   9.515  14.825   5.893 -0.1646 -0.1006 -0.0879
 1250ERGO    R516944   9.732  14.813   5.893 -0.1598 -0.0285 -0.0225
 1250ERGO    C116945   9.660  14.704   6.252 -0.2250  0.0537 -0.0100
 1250ERGO    C216946   9.592  14.510   6.543 -0.2911  0.1831  0.1692
 1251ERGO   ROH16947  13.234  11.432   6.026 -0.1212  0.0788 -0.0991
 1251ERGO    R116948  13.462  11.373   6.184 -0.1759  0.0525 -0.0300
 1251ERGO    R216949  13.537  11.528   6.400 -0.2086  0.0594 -0.0243
 1251ERGO    R316950  13.528  11.291   6.532 -0.2881  0.0735 -0.0034
 1251ERGO    R416951  13.735  11.445   6.670 -0.0130 -0.1001 -0.2131
 1251ERGO    R516952  13.756  11.244   6.587 -0.2710 -0.1250 -0.2255
 1251ERGO    C116953  13.842  11.173   6.952  0.0263 -0.1799 -0.3033
 1251ERGO    C216954  13.826  11.246   7.343  0.1677  0.1477  0.3791
 1252ERGO   ROH16955   5.766  16.196   5.364 -0.0857 -0.1255  0.0935
 1252ERGO    R116956   5.898  16.247   5.610 -0.0773 -0.0226  0.0671
 1252ERGO    R216957   5.895  16.494   5.731 -0.3099 -0.0443  0.1005
 1252ERGO    R316958   5.802  16.354   5.944 -0.1061 -0.1733  0.1092
 1252ERGO    R416959   5.959  16.571   6.062 -0.3560  0.0302  0.0933
 1252ERGO    R516960   5.982  16.358   6.102 -0.0818  0.0493  0.0838
 1252ERGO    C116961   5.908  16.483   6.455 -0.1916 -0.0473  0.0973
 1252ERGO    C216962   6.120  16.661   6.735  0.0337  0.2710 -0.1146
 1253ERGO   ROH16963  10.294  16.802   5.412 -0.2051 -0.1493  0.0578
 1253ERGO    R116964  10.280  16.792   5.694 -0.1840 -0.0517  0.0621
 1253ERGO    R216965  10.500  16.734   5.852 -0.2074 -0.1471  0.0553
 1253ERGO    R316966  10.434  16.968   5.973 -0.0403 -0.0650 -0.0072
 1253ERGO    R416967  10.557  16.807   6.185 -0.1959 -0.1168  0.0476
 1253ERGO    R516968  10.362  16.903   6.192 -0.1235  0.0401 -0.0015
 1253ERGO    C116969  10.528  17.069   6.493 -0.0325 -0.0222 -0.0156
 1253ERGO    C216970  10.521  17.267   6.729  0.0882  0.4678 -0.1715
 1254ERGO   ROH16971  14.517  13.160   9.127 -0.1185  0.2035 -0.1060
 1254ERGO    R116972  14.642  13.272   8.899  0.0115  0.1047 -0.0834
 1254ERGO    R216973  14.827  13.133   8.747 -0.1220 -0.0647 -0.0850
 1254ERGO    R316974  14.659  13.197   8.543 -0.0401  0.1335 -0.0934
 1254ERGO    R416975  14.899  13.093   8.411 -0.2586 -0.4548 -0.0733
 1254ERGO    R516976  14.803  13.284   8.373  0.1159 -0.2739 -0.1870
 1254ERGO    C116977  14.784  13.129   8.025 -0.2613 -0.4960 -0.0745
 1254ERGO    C216978  14.742  12.985   7.719  0.2668 -0.0894 -0.1729
 1255ERGO   ROH16979   5.691   9.229   5.816  0.0546  0.0796 -0.0538
 1255ERGO    R116980   5.772   9.343   6.062 -0.0607  0.1582 -0.0517
 1255ERGO    R216981   5.593   9.454   6.241 -0.1936 -0.1589  0.0170
 1255ERGO    R316982   5.710   9.281   6.416  0.1251 -0.0146 -0.0471
 1255ERGO    R416983   5.542   9.453   6.583 -0.1553 -0.3424  0.0234
 1255ERGO    R516984   5.755   9.414   6.610 -0.0775  0.0113 -0.0147
 1255ERGO    C116985   5.623   9.291   6.946  0.1661 -0.3137 -0.0330
 1255ERGO    C216986   5.615   9.119   7.136  0.1040 -0.1367 -0.5112
 1256ERGO   ROH16987   4.829   1.720   8.407  0.2697  0.2160  0.0119
 1256ERGO    R116988   4.974   1.754   8.166  0.1192  0.0670 -0.1041
 1256ERGO    R216989   4.899   1.633   7.929 -0.1556  0.0863 -0.0407
 1256ERGO    R316990   4.907   1.888   7.834 -0.0301  0.0703 -0.0708
 1256ERGO    R416991   4.885   1.721   7.595 -0.0258  0.0650 -0.0512
 1256ERGO    R516992   5.035   1.873   7.633  0.0165  0.0054 -0.0291
 1256ERGO    C116993   4.883   2.012   7.312  0.1677  0.0375 -0.0857
 1256ERGO    C216994   4.889   2.035   7.109 -0.0151 -0.1344 -0.1636
 1257ERGO   ROH16995   5.837   0.924   5.557  0.2105 -0.3886  0.0699
 1257ERGO    R116996   5.571   0.867   5.632  0.1448 -0.2248 -0.0313
 1257ERGO    R216997   5.441   0.635   5.557  0.0568 -0.1840 -0.0154
 1257ERGO    R316998   5.400   0.609   5.824 -0.0753 -0.0751 -0.0242
 1257ERGO    R416999   5.244   0.392   5.702  0.3042 -0.3718  0.0124
 1257ERGO    R517000   5.170   0.543   5.842  0.0040 -0.3859 -0.1281
 1257ERGO    C117001   5.090   0.225   6.038  0.3243 -0.3790  0.0203
 1257ERGO    C217002   4.816   0.068   6.109  0.0563 -0.1240  0.2328
 1258ERGO   ROH17003   1.020   4.269   5.994  0.1987 -0.3477  0.1955
 1258ERGO    R117004   0.966   4.247   6.271  0.0768 -0.0827  0.1960
 1258ERGO    R217005   1.166   4.226   6.460 -0.0103 -0.2500  0.2714
 1258ERGO    R317006   1.040   4.440   6.570  0.2652  0.0153  0.0886
 1258ERGO    R417007   1.210   4.334   6.785 -0.1471 -0.2630  0.2942
 1258ERGO    R517008   0.995   4.372   6.796 -0.0987  0.1403  0.0611
 1258ERGO    C117009   1.116   4.598   7.078  0.0319 -0.0214  0.1360
 1258ERGO    C217010   1.417   4.590   7.392  0.2562 -0.2463  0.0471
 1259ERGO   ROH17011   7.485   1.827   5.292  0.1173 -0.1131 -0.2670
 1259ERGO    R117012   7.569   2.014   5.488  0.0903 -0.1178 -0.2515
 1259ERGO    R217013   7.476   2.008   5.748  0.0572 -0.1256 -0.2655
 1259ERGO    R317014   7.741   2.002   5.808  0.0495 -0.1232 -0.2290
 1259ERGO    R417015   7.613   2.101   6.052  0.0120 -0.1134 -0.2485
 1259ERGO    R517016   7.776   2.196   5.944  0.0284 -0.1162 -0.2307
 1259ERGO    C117017   7.941   2.150   6.285 -0.0216 -0.1041 -0.2042
 1259ERGO    C217018   8.046   2.270   6.550 -0.3723 -0.0096 -0.1107
 1260ERGO   ROH17019   6.400   5.120   5.840 -0.1647 -0.0022 -0.0153
 1260ERGO    R117020   6.179   5.164   6.012 -0.2074 -0.0330 -0.0610
 1260ERGO    R217021   6.055   4.959   6.149 -0.1296 -0.0366  0.0128
 1260ERGO    R317022   6.105   5.116   6.365 -0.2256  0.0811 -0.0502
 1260ERGO    R417023   5.940   4.898   6.469 -0.0293 -0.0117  0.0534
 1260ERGO    R517024   5.902   5.111   6.491 -0.1994 -0.0377 -0.0173
 1260ERGO    C117025   5.920   5.010   6.859 -0.0610  0.1135  0.0179
 1260ERGO    C217026   5.698   4.898   7.086  0.0531  0.4482 -0.3471
 1261ERGO   ROH17027   0.830   8.793   9.868 -0.0861  0.0196  0.0317
 1261ERGO    R117028   0.680   8.703   9.645 -0.0793  0.0785  0.0015
 1261ERGO    R217029   0.639   8.858   9.420  0.0414  0.0897 -0.0190
 1261ERGO    R317030   0.743   8.642   9.292 -0.0263  0.0360  0.0191
 1261ERGO    R417031   0.629   8.808   9.078 -0.0401 -0.0081 -0.0016
 1261ERGO    R517032   0.586   8.598   9.115 -0.0692  0.0131  0.0662
 1261ERGO    C117033   0.720   8.576   8.759 -0.1510 -0.1154  0.0442
 1261ERGO    C217034   0.750   8.637   8.343  0.0147  0.1910  0.0571
 1262ERGO   ROH17035   4.806  13.148   5.660 -0.2655 -0.0452 -0.0500
 1262ERGO    R117036   4.750  13.285   5.901 -0.2846  0.0346 -0.0994
 1262ERGO    R217037   4.492  13.336   5.987 -0.2983 -0.2424  0.0321
 1262ERGO    R317038   4.577  13.211   6.213  0.0082  0.0051  0.0600
 1262ERGO    R417039   4.366  13.393   6.304 -0.1237 -0.1548  0.0868
 1262ERGO    R517040   4.569  13.381   6.381 -0.0473  0.1189 -0.0540
 1262ERGO    C117041   4.373  13.309   6.701  0.2657  0.1283  0.1446
 1262ERGO    C217042   4.371  13.279   7.130 -0.3267 -0.1357 -0.1142
 1263ERGO   ROH17043   0.710  16.085   5.959  0.0130  0.2918  0.1012
 1263ERGO    R117044   0.629  16.127   6.227 -0.0144  0.2871  0.0946
 1263ERGO    R217045   0.368  16.092   6.311  0.0037  0.1450  0.0994
 1263ERGO    R317046   0.483  15.927   6.493  0.1019  0.2422  0.1251
 1263ERGO    R417047   0.217  15.983   6.602 -0.0167 -0.0646  0.0112
 1263ERGO    R517048   0.407  16.009   6.705 -0.0895  0.1289  0.1034
 1263ERGO    C117049   0.237  15.765   6.943  0.0636 -0.0952 -0.0161
 1263ERGO    C217050  -0.021  15.718   7.095  0.3011 -0.2121  0.1323
 1264ERGO   ROH17051   9.241  15.289   8.611  0.2525 -0.0630  0.1080
 1264ERGO    R117052   9.385  15.287   8.368  0.0672 -0.1192 -0.0041
 1264ERGO    R217053   9.270  15.216   8.127 -0.1828  0.0537  0.0561
 1264ERGO    R317054   9.364  15.458   8.047 -0.0294 -0.0030  0.0645
 1264ERGO    R417055   9.407  15.281   7.817 -0.0068 -0.0470  0.1117
 1264ERGO    R517056   9.557  15.406   7.915  0.0052 -0.1081  0.1609
 1264ERGO    C117057   9.576  15.547   7.561  0.2399 -0.1589  0.1520
 1264ERGO    C217058   9.538  15.701   7.299 -0.3631  0.1056 -0.2537
 1265ERGO   ROH17059   8.308  16.872   8.775  0.2637 -0.0237  0.0654
 1265ERGO    R117060   8.382  16.925   8.507  0.2826 -0.0329  0.0683
 1265ERGO    R217061   8.557  16.765   8.366  0.1524 -0.1426  0.0255
 1265ERGO    R317062   8.353  16.756   8.186  0.1284  0.0418  0.0427
 1265ERGO    R417063   8.545  16.557   8.090 -0.1008 -0.1930  0.0722
 1265ERGO    R517064   8.461  16.722   7.975  0.0736 -0.1259  0.0427
 1265ERGO    C117065   8.347  16.427   7.761 -0.2707 -0.0495  0.1156
 1265ERGO    C217066   8.391  16.350   7.420 -0.2339  0.1449  0.0696
 1266ERGO   ROH17067   0.516   8.453   6.459 -0.3646  0.2012  0.0969
 1266ERGO    R117068   0.528   8.330   6.714 -0.2598 -0.1844 -0.0869
 1266ERGO    R217069   0.474   8.466   6.948  0.2475 -0.4192  0.1818
 1266ERGO    R317070   0.296   8.265   6.987 -0.0459 -0.1833  0.0978
 1266ERGO    R417071   0.310   8.403   7.245  0.1946 -0.3352  0.1708
 1266ERGO    R517072   0.339   8.190   7.210 -0.1219 -0.3655  0.0533
 1266ERGO    C117073   0.047   8.176   7.455 -0.1117 -0.0648  0.0855
 1266ERGO    C217074  -0.132   8.023   7.622 -0.1735 -0.0575 -0.0123
 1267ERGO   ROH17075  18.937   4.290   5.860 -0.0366  0.2113  0.1271
 1267ERGO    R117076  18.827   4.215   6.109 -0.1650  0.1470  0.0518
 1267ERGO    R217077  18.831   3.954   6.202 -0.1668  0.1325  0.0095
 1267ERGO    R317078  18.948   4.068   6.419 -0.3132  0.1187  0.0976
 1267ERGO    R417079  18.858   3.805   6.513 -0.1656  0.0134 -0.0472
 1267ERGO    R517080  18.813   3.998   6.604 -0.3264 -0.0557  0.0243
 1267ERGO    C117081  18.985   3.825   6.897 -0.3023 -0.0690  0.0026
 1267ERGO    C217082  18.977   3.869   7.355 -0.2495 -0.1715  0.1530
 1268ERGO   ROH17083   2.173   0.100   5.590 -0.0592  0.1186 -0.2049
 1268ERGO    R117084   2.176   0.261   5.823 -0.0441 -0.0707 -0.0719
 1268ERGO    R217085   2.320   0.193   6.049  0.2594 -0.0808 -0.2620
 1268ERGO    R317086   2.425   0.442   6.016 -0.0859  0.0842 -0.1619
 1268ERGO    R417087   2.495   0.366   6.291  0.3134 -0.0793 -0.3023
 1268ERGO    R517088   2.393   0.548   6.228  0.0135 -0.1462 -0.0278
 1268ERGO    C117089   2.696   0.701   6.402  0.0207  0.0765 -0.2317
 1268ERGO    C217090   2.984   0.535   6.503 -0.2655  0.0428 -0.0771
 1269ERGO   ROH17091   2.471  16.020   5.389 -0.3240  0.2521 -0.1125
 1269ERGO    R117092   2.516  15.930   5.654  0.0558  0.0379 -0.2429
 1269ERGO    R217093   2.312  15.895   5.836  0.3387  0.1715  0.1090
 1269ERGO    R317094   2.417  15.645   5.857  0.0902  0.0287 -0.2376
 1269ERGO    R417095   2.180  15.641   6.030  0.5312  0.3040  0.4210
 1269ERGO    R517096   2.384  15.586   6.086  0.6370  0.0331 -0.1409
 1269ERGO    C117097   2.203  15.259   6.163  0.4100  0.2471  0.2774
 1269ERGO    C217098   1.839  15.138   6.205 -0.1207  0.1414  0.3819
 1270ERGO   ROH17099   5.953  19.139   8.838  0.0270  0.0827 -0.0317
 1270ERGO    R117100   5.849  19.170   8.577  0.0795 -0.0129 -0.0642
 1270ERGO    R217101   5.927  19.375   8.409  0.0236 -0.0045 -0.0781
 1270ERGO    R317102   5.982  19.170   8.238  0.1666 -0.0075 -0.0309
 1270ERGO    R417103   5.996  19.411   8.072 -0.1746 -0.0436 -0.1243
 1270ERGO    R517104   5.876  19.234   8.033 -0.0021 -0.1924 -0.0053
 1270ERGO    C117105   6.087  19.241   7.716 -0.1558 -0.0690 -0.1067
 1270ERGO    C217106   6.218  19.072   7.416  0.1317 -0.1808  0.0122
 1271ERGO   ROH17107   2.129   7.929   6.196  0.0502 -0.0806 -0.0881
 1271ERGO    R117108   2.290   7.772   6.369 -0.0195 -0.0540  0.0017
 1271ERGO    R217109   2.550   7.703   6.308 -0.0276 -0.1497  0.0710
 1271ERGO    R317110   2.602   7.815   6.550 -0.0365 -0.0642  0.0337
 1271ERGO    R417111   2.816   7.619   6.512  0.1112  0.1010 -0.0023
 1271ERGO    R517112   2.683   7.633   6.683  0.1558  0.0235  0.0398
 1271ERGO    C117113   3.020   7.675   6.858  0.1836  0.3273 -0.0800
 1271ERGO    C217114   3.222   7.573   7.016 -0.1793  0.0336 -0.2350
 1272ERGO   ROH17115  17.004  14.430   9.529  0.1533  0.0330 -0.0215
 1272ERGO    R117116  16.881  14.390   9.278  0.0342  0.1051  0.0232
 1272ERGO    R217117  16.970  14.514   9.046  0.0747 -0.0107 -0.0283
 1272ERGO    R317118  16.980  14.259   8.953 -0.1867 -0.0375  0.0117
 1272ERGO    R417119  16.915  14.421   8.718  0.0746  0.0045 -0.0316
 1272ERGO    R517120  16.806  14.247   8.790 -0.1473  0.1395 -0.0427
 1272ERGO    C117121  16.894  14.127   8.440 -0.1709 -0.0117  0.0043
 1272ERGO    C217122  17.000  13.956   8.221  0.0267 -0.2716 -0.1123
 1273ERGO   ROH17123  15.594  12.055   9.610  0.2674  0.0162  0.1539
 1273ERGO    R117124  15.692  12.181   9.376  0.4795  0.0760  0.2700
 1273ERGO    R217125  15.961  12.184   9.310  0.4772 -0.5962  0.1123
 1273ERGO    R317126  15.871  12.078   9.076  0.0071 -0.0309  0.0198
 1273ERGO    R417127  16.098  12.245   8.999  0.2896 -0.4213  0.0637
 1273ERGO    R517128  15.897  12.255   8.917  0.2308  0.1572  0.2711
 1273ERGO    C117129  16.093  12.181   8.598 -0.2610  0.2111 -0.0515
 1273ERGO    C217130  16.042  12.127   8.274  0.1357 -0.0458  0.1078
 1274ERGO   ROH17131   5.680  10.184   9.514 -0.0363 -0.2995 -0.0087
 1274ERGO    R117132   5.672  10.284   9.250  0.0421 -0.1696  0.0379
 1274ERGO    R217133   5.868  10.229   9.064 -0.0229 -0.2705  0.0032
 1274ERGO    R317134   5.658  10.145   8.914 -0.1125 -0.0012 -0.0283
 1274ERGO    R417135   5.852  10.246   8.719  0.1802 -0.4944 -0.0207
 1274ERGO    R517136   5.643  10.306   8.737  0.2677 -0.0955 -0.1594
 1274ERGO    C117137   5.645  10.178   8.378  0.2142 -0.3719 -0.0640
 1274ERGO    C217138   5.870  10.164   8.152  0.0733  0.2404  0.0588
 1275ERGO   ROH17139   3.824   3.985   9.085 -0.0648 -0.1766 -0.1277
 1275ERGO    R117140   3.912   3.983   8.816  0.0681 -0.1447 -0.0864
 1275ERGO    R217141   3.929   3.751   8.666  0.0961 -0.1245 -0.1247
 1275ERGO    R317142   3.773   3.890   8.493  0.2066 -0.0592 -0.1703
 1275ERGO    R417143   3.939   3.719   8.322 -0.0818 -0.4050 -0.1056
 1275ERGO    R517144   3.917   3.935   8.307  0.1900 -0.3883 -0.2645
 1275ERGO    C117145   3.798   3.831   7.959 -0.0816 -0.5070 -0.1375
 1275ERGO    C217146   3.928   3.823   7.693  0.3267 -0.0368 -0.0395
 1276ERGO   ROH17147  18.138   2.236   5.918  0.0308  0.0613 -0.0761
 1276ERGO    R117148  18.301   2.080   6.088  0.0753  0.1204 -0.0619
 1276ERGO    R217149  18.512   2.186   6.230  0.0707  0.1866 -0.0920
 1276ERGO    R317150  18.384   2.073   6.443  0.1017  0.1995 -0.0685
 1276ERGO    R417151  18.634   2.182   6.554  0.0729  0.2621 -0.0929
 1276ERGO    R517152  18.561   1.977   6.573  0.1164  0.2578 -0.0548
 1276ERGO    C117153  18.585   2.074   6.941  0.1033  0.3182 -0.0714
 1276ERGO    C217154  18.565   2.141   7.351 -0.0098  0.2716 -0.3044
 1277ERGO   ROH17155   8.422  12.560   8.514 -0.0123 -0.1382  0.0431
 1277ERGO    R117156   8.331  12.636   8.257 -0.0083 -0.1434  0.0396
 1277ERGO    R217157   8.446  12.542   8.025  0.0665 -0.0646  0.0403
 1277ERGO    R317158   8.191  12.468   7.966  0.1058 -0.1671 -0.0006
 1277ERGO    R417159   8.332  12.462   7.708  0.0573  0.2392 -0.0359
 1277ERGO    R517160   8.147  12.570   7.753 -0.0054  0.0599  0.1303
 1277ERGO    C117161   8.026  12.346   7.469  0.0889  0.3199 -0.1186
 1277ERGO    C217162   7.893  12.335   7.176 -0.0312 -0.0648  0.1667
 1278ERGO   ROH17163   6.977  11.978   8.947 -0.2239  0.1269 -0.0045
 1278ERGO    R117164   7.078  12.029   8.687 -0.1154  0.2682  0.0620
 1278ERGO    R217165   7.065  11.842   8.483  0.2793  0.2448  0.0410
 1278ERGO    R317166   6.942  12.044   8.350  0.0847  0.0815 -0.0265
 1278ERGO    R417167   6.946  11.823   8.160  0.1273 -0.0206  0.1112
 1278ERGO    R517168   7.020  12.024   8.125 -0.0213 -0.0011 -0.0494
 1278ERGO    C117169   6.761  12.002   7.846 -0.1439 -0.3282  0.0887
 1278ERGO    C217170   6.628  12.010   7.562  0.1183 -0.0371  0.4329
 1279ERGO   ROH17171   9.007   7.730   5.517  0.1585  0.2498  0.0885
 1279ERGO    R117172   9.050   7.655   5.786  0.0931  0.0774  0.0521
 1279ERGO    R217173   9.086   7.839   5.989  0.2282 -0.0523  0.1499
 1279ERGO    R317174   8.881   7.703   6.105  0.1195  0.0431  0.0713
 1279ERGO    R417175   9.037   7.808   6.330  0.2387 -0.2561  0.1335
 1279ERGO    R517176   8.979   7.600   6.297  0.0513 -0.1844 -0.0121
 1279ERGO    C117177   8.816   7.662   6.637  0.1428 -0.2853  0.0503
 1279ERGO    C217178   8.942   7.603   6.975 -0.1028 -0.0779 -0.1909
 1280ERGO   ROH17179   7.117   1.765   5.543  0.0298  0.0889  0.0567
 1280ERGO    R117180   7.029   1.917   5.765  0.1083  0.2305 -0.0050
 1280ERGO    R217181   6.899   1.803   5.981 -0.2553  0.4316 -0.1000
 1280ERGO    R317182   7.096   1.924   6.123 -0.1485  0.0969  0.0463
 1280ERGO    R417183   6.847   1.999   6.260 -0.0802  0.2669  0.0489
 1280ERGO    R517184   7.001   2.135   6.187  0.0846  0.1514  0.1989
 1280ERGO    C117185   7.002   2.228   6.556  0.1221 -0.1432  0.2731
 1280ERGO    C217186   7.166   2.439   6.759  0.0640 -0.0422 -0.1131
 1281ERGO   ROH17187   5.878   6.621   5.908  0.2223  0.1247 -0.1786
 1281ERGO    R117188   5.962   6.562   6.172  0.1489  0.0683 -0.1675
 1281ERGO    R217189   6.069   6.754   6.340 -0.0094  0.0577 -0.0553
 1281ERGO    R317190   5.873   6.668   6.508 -0.0331 -0.1002 -0.1608
 1281ERGO    R417191   6.028   6.860   6.667 -0.1124 -0.1712  0.0088
 1281ERGO    R517192   5.980   6.655   6.722 -0.0819 -0.2218 -0.1420
 1281ERGO    C117193   5.820   6.842   7.014 -0.1946 -0.4526 -0.0529
 1281ERGO    C217194   5.497   6.805   7.276 -0.1161 -0.3106  0.2256
 1282ERGO   ROH17195  13.702  15.917   9.061 -0.0523  0.1446 -0.0000
 1282ERGO    R117196  13.864  15.896   8.831 -0.1351 -0.0037 -0.0460
 1282ERGO    R217197  13.779  15.772   8.599 -0.3040  0.0491 -0.0130
 1282ERGO    R317198  13.849  16.009   8.485 -0.1438 -0.0138 -0.0488
 1282ERGO    R417199  13.830  15.822   8.261 -0.2432 -0.0400 -0.0176
 1282ERGO    R517200  14.000  15.948   8.310 -0.1666 -0.1393 -0.0259
 1282ERGO    C117201  13.926  16.073   7.957 -0.0575 -0.1508 -0.0539
 1282ERGO    C217202  13.989  16.212   7.608 -0.0637  0.1974 -0.0569
 1283ERGO   ROH17203  12.208  10.151   8.994  0.0296  0.0819  0.0512
 1283ERGO    R117204  12.194  10.043   8.732  0.1850  0.0851  0.0415
 1283ERGO    R217205  12.354   9.834   8.649  0.1299 -0.0103  0.1818
 1283ERGO    R317206  12.116   9.721   8.583  0.1173  0.1284 -0.0190
 1283ERGO    R417207  12.316   9.567   8.433  0.1904 -0.1537  0.3456
 1283ERGO    R517208  12.140   9.665   8.351  0.3635 -0.0732  0.0477
 1283ERGO    C117209  12.071   9.305   8.245  0.2140 -0.1071  0.2524
 1283ERGO    C217210  12.068   8.967   8.345  0.0686  0.0930 -0.1506
 1284ERGO   ROH17211  17.130  17.341   6.127 -0.3539 -0.1606  0.2520
 1284ERGO    R117212  17.327  17.318   6.329 -0.2460 -0.2915  0.1339
 1284ERGO    R217213  17.364  17.512   6.523  0.1418 -0.2109 -0.0132
 1284ERGO    R317214  17.332  17.302   6.692 -0.0268 -0.0621  0.1442
 1284ERGO    R417215  17.542  17.464   6.815  0.2330 -0.2265 -0.0702
 1284ERGO    R517216  17.553  17.252   6.768 -0.0445 -0.2758  0.0645
 1284ERGO    C117217  17.616  17.239   7.144  0.1277 -0.0958  0.0443
 1284ERGO    C217218  17.954  17.429   7.390  0.1211  0.3725 -0.0018
 1285ERGO   ROH17219   4.719  12.416   5.842 -0.1408  0.3022  0.2207
 1285ERGO    R117220   4.973  12.354   5.950 -0.0317  0.2948 -0.0359
 1285ERGO    R217221   5.004  12.220   6.189  0.2032  0.3768 -0.0222
 1285ERGO    R317222   5.157  12.052   6.038  0.0124  0.2923 -0.1295
 1285ERGO    R417223   5.148  11.927   6.304  0.2764  0.3958 -0.0620
 1285ERGO    R517224   5.327  11.976   6.189  0.1663  0.3225 -0.2798
 1285ERGO    C117225   5.375  11.600   6.230  0.1398  0.3277 -0.1859
 1285ERGO    C217226   5.331  11.255   6.224 -0.2221 -0.2170 -0.1646
 1286ERGO   ROH17227  13.330  12.633   5.788 -0.0258  0.0804  0.1593
 1286ERGO    R117228  13.540  12.662   5.976 -0.0432 -0.0427  0.1980
 1286ERGO    R217229  13.568  12.886   6.134  0.0696 -0.0522  0.1870
 1286ERGO    R317230  13.568  12.704   6.336 -0.0839 -0.0386  0.2017
 1286ERGO    R417231  13.726  12.929   6.439  0.0432 -0.1227  0.2111
 1286ERGO    R517232  13.788  12.720   6.430 -0.0864 -0.1675  0.2388
 1286ERGO    C117233  13.818  12.783   6.805 -0.1163 -0.1510  0.2390
 1286ERGO    C217234  13.978  12.832   7.123 -0.4250 -0.2912 -0.1101
 1287ERGO   ROH17235  14.850   9.082   7.619 -0.4060  0.0914 -0.2400
 1287ERGO    R117236  14.959   8.940   7.399 -0.1887  0.0963 -0.1373
 1287ERGO    R217237  15.039   8.677   7.417 -0.1885  0.1060 -0.0585
 1287ERGO    R317238  14.871   8.645   7.205  0.0151  0.0878 -0.2209
 1287ERGO    R417239  15.081   8.442   7.167 -0.1132 -0.1390  0.1793
 1287ERGO    R517240  15.018   8.592   7.022  0.1809 -0.1928 -0.0200
 1287ERGO    C117241  14.948   8.275   6.823  0.1219 -0.2987  0.1652
 1287ERGO    C217242  14.992   7.963   6.484  0.0153 -0.2755  0.4249
 1288ERGO   ROH17243   8.428   3.145   9.074 -0.1435  0.0517 -0.0077
 1288ERGO    R117244   8.397   3.242   8.810  0.0466  0.0568 -0.0289
 1288ERGO    R217245   8.598   3.376   8.675  0.2302 -0.1637  0.0278
 1288ERGO    R317246   8.555   3.185   8.487  0.1001 -0.1381  0.0293
 1288ERGO    R417247   8.591   3.432   8.334 -0.0095 -0.1074  0.0396
 1288ERGO    R517248   8.423   3.294   8.320 -0.0218 -0.1101  0.1376
 1288ERGO    C117249   8.547   3.285   7.959 -0.2711 -0.0506  0.0480
 1288ERGO    C217250   8.544   3.212   7.536 -0.0468 -0.0435  0.3390
 1289ERGO   ROH17251  11.845   6.801   9.323  0.0979 -0.3597 -0.1331
 1289ERGO    R117252  11.872   6.663   9.078 -0.1759 -0.0923 -0.3207
 1289ERGO    R217253  11.771   6.762   8.840  0.0301  0.4426 -0.2009
 1289ERGO    R317254  12.027   6.728   8.755 -0.0265  0.0296 -0.2267
 1289ERGO    R417255  11.862   6.608   8.544 -0.2517  0.3501 -0.2434
 1289ERGO    R517256  12.027   6.513   8.650 -0.3986  0.0457 -0.2762
 1289ERGO    C117257  12.156   6.486   8.292 -0.4688 -0.0915 -0.2923
 1289ERGO    C217258  12.191   6.489   7.970 -0.4655 -0.1469  0.3385
 1290ERGO   ROH17259  12.753  18.327   5.498 -0.0134 -0.0249  0.0097
 1290ERGO    R117260  12.635  18.117   5.646  0.0831 -0.1029 -0.0231
 1290ERGO    R217261  12.783  17.942   5.801  0.1551  0.0014  0.0288
 1290ERGO    R317262  12.611  18.021   5.997  0.0377 -0.1091 -0.0283
 1290ERGO    R417263  12.735  17.777   6.101  0.1991  0.0040  0.0375
 1290ERGO    R517264  12.522  17.817   6.084  0.1735 -0.1669 -0.0266
 1290ERGO    C117265  12.546  17.755   6.459  0.1147 -0.0981 -0.0111
 1290ERGO    C217266  12.771  17.611   6.631  0.0546 -0.1789 -0.4135
 1291ERGO   ROH17267   2.061  16.839   5.982 -0.3254  0.1599 -0.0175
 1291ERGO    R117268   2.023  16.789   6.258 -0.3236  0.3469  0.0179
 1291ERGO    R217269   2.225  16.696   6.421 -0.4894 -0.2018 -0.0719
 1291ERGO    R317270   2.161  16.913   6.571  0.2226  0.0462 -0.0915
 1291ERGO    R417271   2.275  16.721   6.762 -0.5478 -0.4073 -0.0463
 1291ERGO    R517272   2.082  16.822   6.778 -0.2177  0.3069 -0.1325
 1291ERGO    C117273   2.244  16.941   7.102  0.0867 -0.2940 -0.0498
 1291ERGO    C217274   2.352  17.044   7.326  0.0856 -0.2457 -0.0573
 1292ERGO   ROH17275  15.883   5.783   9.457  0.0923 -0.1912  0.1542
 1292ERGO    R117276  15.952   5.697   9.197  0.0566 -0.1409  0.1283
 1292ERGO    R217277  15.900   5.441   9.106 -0.1070 -0.0718  0.0292
 1292ERGO    R317278  15.775   5.573   8.903 -0.0010  0.0858  0.0648
 1292ERGO    R417279  15.814   5.300   8.802 -0.0693  0.1227 -0.0733
 1292ERGO    R517280  15.876   5.485   8.705  0.0268  0.1567  0.0453
 1292ERGO    C117281  15.647   5.342   8.435  0.0522  0.3838 -0.0996
 1292ERGO    C217282  15.403   5.224   8.287 -0.2856 -0.0220 -0.1723
 1293ERGO   ROH17283   2.615  11.012   9.814 -0.5963 -0.1338 -0.2948
 1293ERGO    R117284   2.643  11.032   9.533 -0.2332 -0.1242 -0.2627
 1293ERGO    R217285   2.797  11.227   9.412 -0.1841 -0.0394 -0.0590
 1293ERGO    R317286   2.915  11.013   9.292  0.1029  0.0285  0.0922
 1293ERGO    R417287   2.904  11.219   9.083 -0.1778 -0.1192 -0.0557
 1293ERGO    R517288   2.828  11.015   9.069  0.0917 -0.2401  0.0874
 1293ERGO    C117289   3.077  11.014   8.780  0.0952 -0.1020  0.0882
 1293ERGO    C217290   3.066  11.128   8.487  0.1355 -0.2857 -0.0009
 1294ERGO   ROH17291   5.557   2.233   8.622 -0.2536 -0.0561 -0.1181
 1294ERGO    R117292   5.457   2.279   8.361 -0.2850  0.1728 -0.0684
 1294ERGO    R217293   5.444   2.532   8.250  0.2181  0.2187 -0.0532
 1294ERGO    R317294   5.586   2.415   8.049 -0.1304 -0.0988 -0.1257
 1294ERGO    R417295   5.457   2.646   7.923  0.2654  0.1625 -0.0699
 1294ERGO    R517296   5.448   2.439   7.856 -0.1981  0.1669 -0.0475
 1294ERGO    C117297   5.598   2.602   7.546 -0.0344 -0.1683 -0.1477
 1294ERGO    C217298   5.567   2.867   7.308 -0.1755 -0.0342  0.1841
 1295ERGO   ROH17299  11.164  14.133   5.193  0.1563 -0.1588  0.1662
 1295ERGO    R117300  11.173  14.317   5.408  0.1250 -0.1070  0.1228
 1295ERGO    R217301  11.127  14.241   5.670  0.0552 -0.0376  0.1286
 1295ERGO    R317302  11.368  14.359   5.712  0.0576 -0.0520  0.1594
 1295ERGO    R417303  11.218  14.405   5.960 -0.0901  0.2392  0.0221
 1295ERGO    R517304  11.317  14.557   5.838  0.0234  0.0920 -0.0740
 1295ERGO    C117305  11.498  14.611   6.169 -0.1726  0.3869 -0.0111
 1295ERGO    C217306  11.594  14.630   6.463  0.2298 -0.2153  0.0808
 1296ERGO   ROH17307  11.910   7.531   5.746  0.1317  0.4448 -0.1333
 1296ERGO    R117308  11.809   7.615   5.996  0.2366  0.4625 -0.0968
 1296ERGO    R217309  11.681   7.442   6.170 -0.1329  0.5756 -0.2491
 1296ERGO    R317310  11.867   7.533   6.346  0.0096  0.0979 -0.1385
 1296ERGO    R417311  11.638   7.460   6.513 -0.2080  0.4883 -0.2533
 1296ERGO    R517312  11.741   7.652   6.511  0.1997  0.2825 -0.1204
 1296ERGO    C117313  11.787   7.555   6.877 -0.1180 -0.0111 -0.1519
 1296ERGO    C217314  11.657   7.821   7.112  0.1435 -0.0009 -0.0623
 1297ERGO   ROH17315   1.555  10.917   9.810  0.1489  0.0852 -0.0352
 1297ERGO    R117316   1.698  10.825   9.583  0.0383  0.0525 -0.0926
 1297ERGO    R217317   1.577  10.690   9.375 -0.0743  0.0741 -0.0413
 1297ERGO    R317318   1.692  10.885   9.224 -0.0957  0.0482 -0.0914
 1297ERGO    R417319   1.570  10.702   9.030  0.0469 -0.0930 -0.0506
 1297ERGO    R517320   1.778  10.769   9.033  0.0202 -0.0099 -0.0056
 1297ERGO    C117321   1.674  10.892   8.687  0.0975 -0.2146 -0.1031
 1297ERGO    C217322   1.454  10.959   8.623  0.0504 -0.0277 -0.0310
 1298ERGO   ROH17323  18.122   3.288   5.921  0.1012 -0.2006  0.0233
 1298ERGO    R117324  18.055   3.418   6.163  0.1362 -0.1812  0.0210
 1298ERGO    R217325  17.865   3.618   6.177  0.2465 -0.0843  0.0052
 1298ERGO    R317326  17.756   3.457   6.368  0.1283 -0.0320 -0.0147
 1298ERGO    R417327  17.628   3.719   6.408  0.0770 -0.0178 -0.1927
 1298ERGO    R517328  17.733   3.600   6.559 -0.0127  0.0370 -0.0763
 1298ERGO    C117329  17.389   3.627   6.722 -0.1328  0.0700 -0.3266
 1298ERGO    C217330  17.204   3.716   6.946 -0.2118 -0.1310 -0.2018
 1299ERGO   ROH17331   0.070   6.248   9.459  0.3007 -0.0256 -0.0634
 1299ERGO    R117332   0.076   6.328   9.187  0.0473  0.0324 -0.0526
 1299ERGO    R217333   0.112   6.149   8.980  0.0975  0.1093 -0.1050
 1299ERGO    R317334  -0.119   6.258   8.888 -0.0748 -0.1052  0.0556
 1299ERGO    R417335   0.028   6.179   8.646 -0.1892 -0.0235 -0.0488
 1299ERGO    R517336  -0.053   6.377   8.690 -0.3278 -0.0809 -0.0209
 1299ERGO    C117337  -0.238   6.300   8.365 -0.5178 -0.3022  0.1347
 1299ERGO    C217338  -0.286   6.276   7.981  0.2928  0.2369 -0.0478
 1300ERGO   ROH17339   1.606   9.271   6.508  0.2502 -0.3058  0.0715
 1300ERGO    R117340   1.575   9.130   6.751  0.2151  0.0304  0.2706
 1300ERGO    R217341   1.479   9.249   6.981 -0.3806  0.2264 -0.0474
 1300ERGO    R317342   1.300   9.044   6.974  0.0688 -0.1820  0.0103
 1300ERGO    R417343   1.261   9.168   7.237 -0.5250  0.0985 -0.2104
 1300ERGO    R517344   1.301   8.957   7.198 -0.0139  0.1247  0.1265
 1300ERGO    C117345   0.966   8.929   7.380 -0.1873 -0.3593 -0.2512
 1300ERGO    C217346   0.878   8.867   7.710  0.0548 -0.0003 -0.2231
 1301ERGO   ROH17347   4.222   4.240   5.585  0.1534 -0.0161  0.0166
 1301ERGO    R117348   3.989   4.148   5.716  0.1460 -0.0636 -0.0313
 1301ERGO    R217349   3.996   4.020   5.961  0.1170  0.0055  0.0020
 1301ERGO    R317350   3.819   4.214   6.031  0.0232 -0.0404 -0.1005
 1301ERGO    R417351   3.835   4.039   6.266  0.2765  0.2048  0.0776
 1301ERGO    R517352   3.654   4.099   6.161  0.1724 -0.0268  0.1117
 1301ERGO    C117353   3.575   4.231   6.510  0.2814  0.2777  0.0254
 1301ERGO    C217354   3.487   4.301   6.800 -0.0660  0.3363  0.0871
 1302ERGO   ROH17355  16.100  11.215   6.711  0.1034 -0.0544 -0.2048
 1302ERGO    R117356  16.111  11.188   6.993 -0.0957  0.0147 -0.1894
 1302ERGO    R217357  16.317  11.294   7.144 -0.0821 -0.1511 -0.1005
 1302ERGO    R317358  16.112  11.411   7.280 -0.0457  0.0964 -0.2502
 1302ERGO    R417359  16.351  11.474   7.437 -0.0865 -0.3640  0.0338
 1302ERGO    R517360  16.169  11.380   7.511 -0.3206 -0.1250 -0.2017
 1302ERGO    C117361  16.180  11.688   7.736 -0.0547 -0.2556 -0.0287
 1302ERGO    C217362  16.296  11.910   7.880  0.0969 -0.1629 -0.0556
 1303ERGO   ROH17363  18.969  15.892   6.064 -0.1872  0.1404 -0.1247
 1303ERGO    R117364  18.730  15.853   6.210 -0.2384  0.0995 -0.2167
 1303ERGO    R217365  18.585  15.618   6.198 -0.0088 -0.0643 -0.0021
 1303ERGO    R317366  18.612  15.626   6.468 -0.1668  0.3154  0.0070
 1303ERGO    R417367  18.377  15.457   6.423  0.1297 -0.1192  0.0863
 1303ERGO    R517368  18.388  15.633   6.551 -0.2223  0.0587 -0.1246
 1303ERGO    C117369  18.282  15.372   6.808  0.0618  0.2053  0.1464
 1303ERGO    C217370  18.241  14.994   6.928  0.1327  0.0032 -0.1507
 1304ERGO   ROH17371  11.604   3.133   8.741 -0.2663  0.1619 -0.1464
 1304ERGO    R117372  11.633   3.026   8.480 -0.1304  0.1248 -0.1129
 1304ERGO    R217373  11.673   3.186   8.258  0.1232  0.0775 -0.0841
 1304ERGO    R317374  11.890   3.027   8.223  0.0623 -0.0486  0.0686
 1304ERGO    R417375  11.784   3.067   7.953  0.4157  0.2707 -0.0611
 1304ERGO    R517376  11.826   2.876   8.048  0.1578  0.1417 -0.1547
 1304ERGO    C117377  12.052   2.848   7.742  0.5290  0.2649  0.0957
 1304ERGO    C217378  12.066   2.773   7.448 -0.2151  0.1821 -0.0806
 1305W        W17379  12.330   0.902   4.482  0.0504  0.0502 -0.0240
 1306W        W17380  12.947   4.053   5.698 -0.0732 -0.0229 -0.0891
 1307W        W17381  10.981  17.571  12.404  0.1704 -0.4442  0.3186
 1308W        W17382  12.021   4.525   2.034  0.1164 -0.2074 -0.0136
 1309W        W17383  17.497  19.089   1.140  0.1155 -0.1589 -0.4200
 1310W        W17384   4.981   6.933  13.065 -0.3188 -0.2280 -0.0774
 1311W        W17385  18.677  16.740   1.475 -0.1262 -0.2987  0.0243
 1312W        W17386  10.626  13.432  13.804  0.1298  0.2484  0.0215
 1313W        W17387   1.390   1.665   0.353 -0.2130 -0.0829 -0.3710
 1314W        W17388   9.161  14.504  12.072  0.4184  0.0824 -0.0563
 1315W        W17389   1.873   3.682   4.035  0.1490  0.2233  0.0018
 1316W        W17390  16.509  15.254  10.288 -0.2418 -0.1556  0.1970
 1317W        W17391   4.808  10.256  10.562  0.2032  0.2036  0.0202
 1318W        W17392  14.292  10.255   1.365 -0.0033 -0.0668 -0.0025
 1319W        W17393  15.204  12.023   1.754 -0.1922 -0.0726  0.2435
 1320W        W17394  16.951   7.120   2.474 -0.0012 -0.2555 -0.2509
 1321W        W17395   7.982   6.737  13.748  0.0963  0.2313 -0.1813
 1322W        W17396   9.371   5.307  14.955 -0.1937 -0.0346  0.1929
 1323W        W17397  12.037  14.103  10.873  0.2020 -0.1200 -0.1575
 1324W        W17398   4.092  10.183  12.302  0.1604 -0.1491  0.0796
 1325W        W17399   1.623  18.656  11.369 -0.1715 -0.0801 -0.2588
 1326W        W17400   0.756   8.164   2.290 -0.2385  0.0086  0.4981
 1327W        W17401  15.096   1.211  12.414  0.1877 -0.0674  0.0784
 1328W        W17402  10.233  18.472   1.057  0.0207 -0.0679 -0.0951
 1329W        W17403   6.864   8.903  12.717 -0.2325 -0.0134  0.1973
 1330W        W17404  18.914  18.529  14.879  0.3904 -0.2104 -0.1342
 1331W        W17405  11.432   5.552   2.866 -0.0606 -0.1496  0.2718
 1332W        W17406  11.796  12.728   1.877 -0.0789 -0.0715 -0.1476
 1333W        W17407   1.463  16.111  10.645 -0.2035 -0.1457  0.0995
 1334W        W17408  15.206   6.818   4.275  0.1266  0.0795 -0.0245
 1335W        W17409  14.701  18.862  13.389  0.1362  0.2262  0.0270
 1336W        W17410  10.013   8.467   3.760 -0.2957 -0.0791 -0.1730
 1337W        W17411   3.493   2.352  11.480  0.3744  0.0564 -0.0841
 1338W        W17412  13.040  10.988   0.827 -0.1307  0.1430 -0.2483
 1339W        W17413   5.951   3.824  10.427 -0.0903  0.1868 -0.0102
 1340W        W17414  19.327  11.141  12.590 -0.0149 -0.1501 -0.2699
 1341W        W17415   6.938   0.221  12.361  0.0510  0.2501  0.1635
 1342W        W17416   0.795   8.959   5.016 -0.0525  0.0207  0.2215
 1343W        W17417   4.727   3.587  14.404  0.0596 -0.1501 -0.1700
 1344W        W17418   2.990  17.825   1.521 -0.2751 -0.0728  0.2108
 1345W        W17419   7.067   5.083   1.277 -0.2247  0.1829 -0.0348
 1346W        W17420  12.333  11.875   2.195 -0.2701  0.0740 -0.0554
 1347W        W17421   4.635   4.376   3.185 -0.3039 -0.0312 -0.2315
 1348W        W17422   0.138  16.450  12.774 -0.0413 -0.2457 -0.0971
 1349W        W17423  13.307   4.008  11.989 -0.1642 -0.0993  0.0199
 1350W        W17424   6.774   5.597  12.710  0.1242  0.2787  0.0401
 1351W        W17425  18.572   9.814   2.263  0.0846  0.2048  0.2325
 1352W        W17426   7.722  11.267   1.830  0.0478 -0.0847 -0.1418
 1353W        W17427  17.325   7.402   2.691  0.3610  0.1769 -0.1416
 1354W        W17428  16.591   0.348  12.633 -0.0599  0.1124  0.1467
 1355W        W17429   2.578   3.511   4.274  0.0291 -0.1250  0.3227
 1356W        W17430   0.440   5.376   5.349 -0.1166 -0.1857  0.0343
 1357W        W17431  17.532   7.617  14.545  0.1534  0.0007  0.2478
 1358W        W17432  17.445  17.821   4.387  0.2084  0.1926  0.0492
 1359W        W17433  15.621  10.444   1.377 -0.0655  0.0238 -0.1513
 1360W        W17434  12.837   2.632   1.017 -0.2544  0.1627 -0.2802
 1361W        W17435  16.562   5.518   3.791 -0.3396 -0.2447 -0.2749
 1362W        W17436   8.522  14.655  11.589  0.1801  0.0276  0.0163
 1363W        W17437   2.401  15.712   2.441 -0.1594  0.0598  0.0456
 1364W        W17438  13.200  14.329   0.435  0.1726 -0.0153  0.2274
 1365W        W17439  18.233   5.429  12.472 -0.0597  0.0487 -0.1323
 1366W        W17440   9.084  10.394   3.564  0.1490 -0.5130 -0.1616
 1367W        W17441   9.648   6.853   2.367  0.2429  0.2655  0.1356
 1368W        W17442   9.546  19.209   2.956  0.0854  0.0950  0.1790
 1369W        W17443  16.215   1.051  10.767 -0.2588  0.1618  0.0795
 1370W        W17444   0.320   4.229   1.111 -0.3557  0.1066 -0.4873
 1371W        W17445   7.582   9.522  11.125 -0.0089 -0.2119  0.2581
 1372W        W17446   6.417  14.769  12.288 -0.2545 -0.0450  0.1857
 1373W        W17447   3.747  17.334  14.430 -0.0002 -0.2327 -0.0014
 1374W        W17448  18.548  10.838   2.559  0.1500 -0.0190  0.0105
 1375W        W17449   5.832   4.206   3.998  0.1638  0.0356  0.0284
 1376W        W17450  13.192   5.305   1.188 -0.2302 -0.1883  0.1721
 1377W        W17451  15.514   3.694  13.271 -0.1630  0.0949  0.0779
 1378W        W17452  18.709  13.781   3.460 -0.3263  0.1177  0.2809
 1379W        W17453   2.062   5.831  10.901  0.1389  0.0283  0.2086
 1380W        W17454  17.552  16.109  13.070  0.2688 -0.0095  0.0343
 1381W        W17455   0.980   0.217  10.443  0.0632  0.1746 -0.0101
 1382W        W17456   0.642   6.119   3.967 -0.1518 -0.1528  0.1427
 1383W        W17457   0.536   2.994  14.100  0.4497  0.1771 -0.0917
 1384W        W17458  10.001   3.570   0.495  0.1740  0.1024  0.1612
 1385W        W17459   0.257   6.130   3.198  0.3065  0.2079  0.0286
 1386W        W17460  10.140   8.027   4.798  0.1824 -0.0615 -0.0495
 1387W        W17461   8.213  14.067  13.332 -0.1090 -0.0572  0.5867
 1388W        W17462  18.568  17.865  14.454 -0.3069 -0.1815 -0.0887
 1389W        W17463  15.158  16.477   2.487  0.0480 -0.4449 -0.0088
 1390W        W17464   9.684   9.430   1.458  0.3009 -0.1760  0.0149
 1391W        W17465  16.990   5.656  13.600 -0.1063  0.0829  0.0875
 1392W        W17466   0.136  16.623   4.986  0.0338  0.0349 -0.0040
 1393W        W17467   6.375   2.702   3.488  0.3027  0.0485 -0.1139
 1394W        W17468   2.567   5.304  12.153  0.0482  0.0109 -0.0835
 1395W        W17469   7.259   9.706   4.206 -0.0413 -0.0341 -0.3700
 1396W        W17470  10.016   9.254   2.960  0.0907  0.1998 -0.0267
 1397W        W17471   7.089   9.839   4.708  0.0585 -0.0958  0.3833
 1398W        W17472  11.094   5.444   4.490  0.0540  0.1809 -0.0824
 1399W        W17473  16.816  16.170  12.627  0.1842 -0.0012  0.0426
 1400W        W17474   0.058  10.230   0.396  0.1345  0.4065 -0.0052
 1401W        W17475   8.062  13.272   0.830  0.3706 -0.0437  0.1012
 1402W        W17476  15.092  16.441  14.816  0.1279  0.0849 -0.0701
 1403W        W17477   5.000   2.070  10.193  0.3159  0.0954  0.2384
 1404W        W17478  11.382   5.112  11.304  0.0133  0.0654  0.1267
 1405W        W17479  15.365   7.817   1.754  0.1276 -0.3851 -0.2174
 1406W        W17480   8.620   5.384  10.980 -0.0054  0.0293  0.4353
 1407W        W17481   4.091   5.967  11.518 -0.1805  0.0910  0.2337
 1408W        W17482   9.333  12.100  12.885  0.0042  0.1522 -0.0216
 1409W        W17483   6.933   9.139  11.701  0.2960 -0.2978  0.3001
 1410W        W17484   3.217  18.528  11.812  0.2293  0.1009 -0.2453
 1411W        W17485   5.695  19.083  14.293  0.0746  0.0277 -0.0031
 1412W        W17486  12.584   9.489   1.837  0.2156  0.0453 -0.2445
 1413W        W17487  17.850   6.653   4.035 -0.1815 -0.1008 -0.1235
 1414W        W17488  17.480   7.686   3.740  0.4400  0.0724 -0.1075
 1415W        W17489  18.180  17.025  14.280  0.4102  0.0727 -0.0112
 1416W        W17490   5.031   5.039   1.031  0.0345  0.0286  0.0467
 1417W        W17491   1.765   4.204   0.580  0.0442 -0.2491 -0.0676
 1418W        W17492  15.947  16.427   1.438 -0.3142  0.1818  0.1350
 1419W        W17493  11.633   8.369  13.526 -0.1174 -0.2086  0.3956
 1420W        W17494   7.129   1.307   2.848  0.1434  0.1826  0.0840
 1421W        W17495   5.988   8.630   1.085 -0.0439  0.2595  0.3622
 1422W        W17496  14.567  14.172   4.935  0.0184 -0.2355 -0.1451
 1423W        W17497  11.225  14.257   2.527 -0.2117 -0.2283 -0.1674
 1424W        W17498  15.153   7.573   1.320 -0.1741  0.3020 -0.0416
 1425W        W17499  12.455  11.774   4.997 -0.1594  0.0229 -0.0083
 1426W        W17500   7.307  14.177   3.363 -0.1977 -0.1232 -0.0021
 1427W        W17501   1.744  10.780  13.532 -0.0679 -0.1772 -0.1717
 1428W        W17502  10.762  14.921  13.937  0.2941 -0.0540 -0.0753
 1429W        W17503   3.391  15.799   1.287  0.1359  0.3733 -0.1956
 1430W        W17504   3.528   6.202   1.413  0.0367 -0.2264 -0.0336
 1431W        W17505  18.432   1.281  13.159  0.3264 -0.2711  0.0264
 1432W        W17506   7.195   6.294  12.387  0.1785  0.0843  0.2003
 1433W        W17507  14.767   0.244  12.652  0.5324 -0.3181 -0.0146
 1434W        W17508  11.174  16.027   1.884  0.1086 -0.1603 -0.1930
 1435W        W17509  17.829  17.804   0.089  0.1489 -0.0083 -0.1317
 1436W        W17510  11.226  13.884   4.210  0.1249  0.2378  0.0081
 1437W        W17511   9.741   9.654   3.324 -0.2512 -0.0042 -0.0863
 1438W        W17512  17.162  11.582  12.996  0.2140 -0.0758  0.0645
 1439W        W17513  16.873  11.932   4.159  0.1072  0.0427 -0.3319
 1440W        W17514   6.426   1.375  10.739  0.1677  0.0985  0.1383
 1441W        W17515   7.819  16.696   2.076 -0.2701 -0.0567  0.2937
 1442W        W17516  15.589  14.263   2.294 -0.1066  0.0627 -0.1296
 1443W        W17517   5.005   1.835   2.702 -0.1029  0.2162 -0.0781
 1444W        W17518   2.995   0.537   2.691  0.2013 -0.0914 -0.0348
 1445W        W17519  16.765   9.388  10.513 -0.2848  0.0434 -0.1128
 1446W        W17520   5.080   5.680   4.681 -0.1195  0.2458  0.0380
 1447W        W17521   8.934  10.283  10.429 -0.1212 -0.1337  0.0636
 1448W        W17522   9.570   2.207  12.702  0.1001  0.0918  0.0996
 1449W        W17523   4.977   0.308   9.813 -0.1921  0.0912  0.0228
 1450W        W17524  13.369   0.066   3.999  0.3729 -0.3453  0.2092
 1451W        W17525   7.350   6.185   4.427  0.3755  0.3619  0.3063
 1452W        W17526  16.444  12.607  10.886  0.2720 -0.4462 -0.0607
 1453W        W17527  14.854   3.544   4.397  0.0115 -0.1361  0.0490
 1454W        W17528  15.126  17.396   3.399  0.0702 -0.1821 -0.1182
 1455W        W17529  18.817  10.922  11.116 -0.1403  0.2940  0.0691
 1456W        W17530  16.381   5.679   1.212 -0.1733 -0.5028 -0.1315
 1457W        W17531  13.433   9.101  10.375 -0.0252  0.0594 -0.1257
 1458W        W17532   3.796   1.116   1.823  0.1923  0.0260  0.1504
 1459W        W17533   9.567   0.227   4.700 -0.1715 -0.1504 -0.1712
 1460W        W17534   4.130  13.802  11.756 -0.3914 -0.0701 -0.0923
 1461W        W17535  10.607   4.067  13.204  0.2235 -0.1775  0.2384
 1462W        W17536   3.742  15.921   5.407  0.3624 -0.1173  0.1153
 1463W        W17537   1.911   0.512  10.162 -0.0042 -0.0245  0.0617
 1464W        W17538   5.155  14.339  12.480  0.0314 -0.0943 -0.2499
 1465W        W17539  18.770  10.919   3.392 -0.0798  0.2322 -0.2126
 1466W        W17540  14.825  10.755   3.495  0.0133 -0.0286  0.0107
 1467W        W17541  12.754   9.010  12.716 -0.0982 -0.0376  0.0749
 1468W        W17542   1.326  14.721  14.739 -0.2979  0.1052  0.3614
 1469W        W17543   6.223  13.354   0.585  0.0009 -0.1356  0.0932
 1470W        W17544   0.437   1.654   0.854  0.1464  0.2180 -0.3129
 1471W        W17545  11.905  12.306   2.793  0.1257 -0.1261  0.2129
 1472W        W17546  12.447   4.238  11.777  0.0052  0.1389  0.0952
 1473W        W17547  17.455  12.160   2.997  0.0584  0.0476  0.1604
 1474W        W17548   3.255  17.572  13.563 -0.0734 -0.2903 -0.2543
 1475W        W17549  17.738  13.527   3.598  0.2676  0.1315  0.2717
 1476W        W17550   4.000   2.708   1.318  0.0032  0.0218  0.0706
 1477W        W17551  11.522   9.210   1.735 -0.0318  0.3586  0.4038
 1478W        W17552  18.548   6.676  11.098 -0.3382 -0.1003  0.3694
 1479W        W17553   5.718  13.774   3.076  0.0755 -0.0885 -0.0513
 1480W        W17554   4.411  16.410   2.370  0.0123 -0.1460  0.1960
 1481W        W17555  19.058  10.395   4.900  0.1246 -0.0544  0.1767
 1482W        W17556   4.806  14.807   2.732  0.0088 -0.1218  0.3327
 1483W        W17557  10.471   2.923   4.045  0.0873 -0.4003  0.0671
 1484W        W17558  19.196  17.336   0.382  0.0408 -0.2728 -0.3143
 1485W        W17559   2.701  17.415   1.549  0.0619  0.1306  0.0823
 1486W        W17560  18.549  11.085  14.611  0.1160 -0.0072 -0.3258
 1487W        W17561  12.245   2.979  12.816  0.1272 -0.2481 -0.0817
 1488W        W17562  17.151  16.720  14.426  0.2944 -0.0156 -0.3437
 1489W        W17563  14.703  12.292   4.457 -0.1447 -0.0816  0.0985
 1490W        W17564  17.339  14.684   4.442  0.4341 -0.1138  0.3021
 1491W        W17565   0.780   6.900   5.022  0.0607  0.0625  0.0432
 1492W        W17566  14.582   5.144   0.342 -0.1778 -0.0606 -0.1590
 1493W        W17567   2.275   1.347   0.152 -0.0084 -0.2227 -0.3690
 1494W        W17568  11.942   4.114   0.479 -0.1814 -0.1994  0.1467
 1495W        W17569   2.791   2.742   3.250 -0.0909  0.1266  0.1572
 1496W        W17570   6.552  18.947   1.574 -0.2436  0.3522  0.0495
 1497W        W17571  16.478   2.609   0.479 -0.0023 -0.1100  0.0511
 1498W        W17572  10.712   8.826   2.049 -0.1461  0.1660 -0.1296
 1499W        W17573   2.664   1.240  10.919  0.2946 -0.3440  0.1597
 1500W        W17574   2.692  16.463  13.915 -0.2741  0.3087 -0.0946
 1501W        W17575   0.918  11.314   5.538 -0.3090 -0.0107 -0.0177
 1502W        W17576  15.092   2.774  11.463  0.1449  0.2960 -0.3849
 1503W        W17577   6.700   0.959  11.626 -0.1191  0.1314  0.1057
 1504W        W17578  15.824  15.564  11.777  0.2820 -0.1273 -0.4488
 1505W        W17579   5.017  15.616   1.610  0.0374  0.0435  0.1593
 1506W        W17580   9.262   4.614   1.692  0.0102  0.4323  0.0078
 1507W        W17581   5.821   2.498   4.186 -0.0455  0.0213  0.3426
 1508W        W17582   1.059   8.447   1.006 -0.0599 -0.0322  0.1307
 1509W        W17583  17.914   2.300   3.289  0.1455  0.0341  0.0687
 1510W        W17584   0.961  17.386   2.831  0.3785  0.1680 -0.3698
 1511W        W17585  10.979   8.119   2.912  0.0319  0.1381  0.0765
 1512W        W17586   0.834  18.112   3.136 -0.1698  0.1275 -0.0155
 1513W        W17587   9.162   1.853  10.705 -0.1097 -0.0056  0.1909
 1514W        W17588   5.910  19.149   4.762 -0.3994 -0.0634 -0.2003
 1515W        W17589   0.285  12.252  14.883  0.1304  0.3226  0.1483
 1516W        W17590  14.239   9.026   1.782  0.2313  0.2530 -0.0844
 1517W        W17591   5.865  14.785   3.245 -0.0110  0.0386 -0.0761
 1518W        W17592   8.211   1.322   1.420 -0.0499  0.0152 -0.1907
 1519W        W17593  19.202  17.220   3.745  0.1244 -0.1603  0.0595
 1520W        W17594  14.892   5.450  13.689  0.1258  0.4120 -0.3142
 1521W        W17595  12.804   0.684  14.975 -0.1688  0.2723  0.3054
 1522W        W17596  12.064   1.729   2.368 -0.0830 -0.1777 -0.2401
 1523W        W17597  19.127   3.089   9.327  0.0093  0.2155 -0.0253
 1524W        W17598  18.684   1.336   0.711  0.1964  0.0987 -0.3629
 1525W        W17599   7.358  10.512   2.083 -0.1032 -0.1208 -0.1125
 1526W        W17600  15.975  15.708  14.260 -0.2147 -0.1586 -0.2086
 1527W        W17601   9.299  16.826   0.008 -0.0373  0.2230 -0.2363
 1528W        W17602  10.021  14.334   1.518 -0.1321 -0.0482 -0.0006
 1529W        W17603   3.229   5.674   0.682  0.2073  0.3004  0.0970
 1530W        W17604   5.258  10.857  12.768 -0.1129  0.0358  0.0559
 1531W        W17605  11.930   3.837   2.755 -0.1767  0.1902  0.0182
 1532W        W17606  11.005  19.143   2.108  0.1039  0.0115 -0.1451
 1533W        W17607   2.775  16.127  11.476 -0.1654 -0.1123  0.1847
 1534W        W17608   9.704   1.504   1.272  0.0355  0.1448  0.2273
 1535W        W17609   8.391  16.396   0.091 -0.5673 -0.0219 -0.0964
 1536W        W17610   4.146  17.874  12.423  0.0012 -0.2331 -0.0911
 1537W        W17611   2.755  16.109   0.776 -0.1353  0.1286  0.0694
 1538W        W17612  15.468   9.534   9.752  0.0775 -0.1072 -0.2820
 1539W        W17613   0.136  13.848   1.602 -0.2562  0.2212 -0.0822
 1540W        W17614  11.931  10.087   3.978  0.0810 -0.2052  0.0674
 1541W        W17615  14.815   6.953   2.503  0.1896 -0.2214  0.2152
 1542W        W17616   0.037  19.307  12.925  0.0167  0.1287  0.1982
 1543W        W17617   3.986   5.539   1.509 -0.0894  0.1536 -0.2128
 1544W        W17618  11.431  13.665   2.227 -0.2061  0.1739 -0.1116
 1545W        W17619   5.493   3.198   4.875 -0.2313  0.1969  0.2224
 1546W        W17620   7.286   3.500   3.181 -0.1683 -0.2826  0.0241
 1547W        W17621   7.902   3.417   9.082  0.0247  0.3144 -0.3860
 1548W        W17622  13.959  17.227   2.071 -0.0785  0.0525  0.1633
 1549W        W17623  18.804   4.908  11.884  0.1187  0.1669  0.0373
 1550W        W17624   4.982   3.628  12.946 -0.2049  0.0095 -0.1390
 1551W        W17625   0.870  13.360   1.422 -0.0592  0.0766  0.3074
 1552W        W17626   3.795  17.622  11.322 -0.3073 -0.2772 -0.2458
 1553W        W17627  17.921   3.330  11.729  0.1071  0.2682 -0.0293
 1554W        W17628  17.592   7.605   0.965 -0.0519  0.0321 -0.2985
 1555W        W17629   2.197  13.738  12.274 -0.0334  0.0196  0.2333
 1556W        W17630  11.013  17.648   4.455 -0.4118 -0.0774  0.0579
 1557W        W17631   5.164   2.032   1.164 -0.1050 -0.0966 -0.1228
 1558W        W17632   4.934   7.358  13.260 -0.2777  0.0401 -0.2868
 1559W        W17633  11.868  14.295   0.707  0.3437  0.4713 -0.0230
 1560W        W17634   9.975  15.865  11.781  0.1532  0.0507  0.3043
 1561W        W17635   6.617   4.825   0.778  0.1704  0.1614  0.1641
 1562W        W17636  16.769  12.731   1.477  0.2685  0.1464 -0.1504
 1563W        W17637   0.547   2.528   2.259 -0.0269 -0.0341  0.1783
 1564W        W17638  17.871   1.488   2.576 -0.1958 -0.2216 -0.1175
 1565W        W17639  17.014   3.139  12.881  0.1432 -0.2993  0.2726
 1566W        W17640   6.072   0.471   0.507 -0.2047 -0.0940 -0.2666
 1567W        W17641   3.762  18.258   5.303  0.0633 -0.0120 -0.2132
 1568W        W17642  18.260   6.821   0.468 -0.5082  0.1298 -0.1591
 1569W        W17643   2.121   4.662   2.506  0.0171  0.1368 -0.4249
 1570W        W17644   6.166  13.824   9.798  0.3949  0.1166 -0.0550
 1571W        W17645  16.948   5.489   4.226  0.1605 -0.3096 -0.2434
 1572W        W17646   2.110   6.786   2.434 -0.2323 -0.2612 -0.0034
 1573W        W17647   5.119   4.666   3.848  0.1784  0.1503  0.0947
 1574W        W17648  11.024  12.430   2.790  0.2501  0.1252 -0.0244
 1575W        W17649   0.762   1.872  13.611  0.1556 -0.0655 -0.2048
 1576W        W17650  17.725   7.410  12.512  0.3456 -0.1523 -0.2089
 1577W        W17651   1.362  19.060  11.336 -0.2477  0.1197 -0.0173
 1578W        W17652  12.190   5.198   0.014 -0.0581 -0.0079 -0.1884
 1579W        W17653  17.769  18.754   1.393  0.0474  0.0619  0.2252
 1580W        W17654  15.073  10.236   3.516 -0.0417  0.0772 -0.0097
 1581W        W17655  15.877   4.816  13.673  0.0683  0.2235  0.1544
 1582W        W17656   3.040  15.431  10.516 -0.1197 -0.0900  0.1480
 1583W        W17657  15.880   9.139   3.677  0.0590 -0.1472  0.0003
 1584W        W17658  18.325   7.208   2.628 -0.3477 -0.1692 -0.2979
 1585W        W17659   9.637   7.218  13.901 -0.0836  0.3012  0.3354
 1586W        W17660  10.257  11.209   0.509 -0.0726  0.0090 -0.1136
 1587W        W17661  16.461  17.310   3.719 -0.2415 -0.0538 -0.1714
 1588W        W17662  10.157  16.625  13.160 -0.1734  0.3864 -0.1851
 1589W        W17663   7.558   6.381   1.066  0.0928 -0.1918  0.2451
 1590W        W17664   6.080  18.800  12.657  0.0290  0.0626 -0.0072
 1591W        W17665  13.658  13.039  13.323  0.1483 -0.2611 -0.3186
 1592W        W17666   0.531   2.080  12.206  0.1883 -0.2561  0.1439
 1593W        W17667  15.453   6.122  14.068 -0.1342  0.1655 -0.2772
 1594W        W17668   5.858  11.679   0.041  0.0313  0.0921 -0.0946
 1595W        W17669   4.458  18.893  13.243 -0.2610  0.0195  0.2843
 1596W        W17670  10.443  15.444   1.400  0.0735 -0.1931  0.1665
 1597W        W17671  10.947  17.078   2.109 -0.1772 -0.3691  0.7304
 1598W        W17672  11.529  16.258  14.541 -0.2671 -0.0962 -0.2466
 1599W        W17673  16.655  14.643  13.545 -0.1726 -0.0925  0.3517
 1600W        W17674  12.866  10.051   0.913 -0.0122  0.0380 -0.0533
 1601W        W17675   7.820   3.203   0.692 -0.2278  0.0795  0.2126
 1602W        W17676   5.038   6.183   4.963  0.0948 -0.1050 -0.0807
 1603W        W17677  17.019   6.107   0.844  0.3305  0.3512  0.0987
 1604W        W17678  15.535   0.057   0.787 -0.0487  0.0027 -0.0327
 1605W        W17679  19.202   4.111   1.248 -0.3290 -0.1008  0.0617
 1606W        W17680  13.461   2.822  12.417 -0.0183 -0.3378 -0.1604
 1607W        W17681   8.064   0.282  11.672 -0.1925  0.0818  0.1129
 1608W        W17682   2.395   6.610   3.988  0.1359 -0.0024  0.5986
 1609W        W17683   7.301   8.649   3.555 -0.1940 -0.0305  0.0160
 1610W        W17684   8.079   4.430  13.401 -0.2846  0.1138  0.0079
 1611W        W17685   2.130  17.760   5.082  0.2400  0.1513 -0.0791
 1612W        W17686  14.026  17.344   5.376  0.1114 -0.0744  0.1138
 1613W        W17687   7.102  18.529   3.227  0.0376  0.0086  0.1248
 1614W        W17688   3.254   8.814  12.242  0.0074 -0.2637 -0.1184
 1615W        W17689   3.658  18.018  10.551 -0.0143  0.3568 -0.0019
 1616W        W17690   4.705  18.654  13.677 -0.1072 -0.0682 -0.0548
 1617W        W17691  10.899  13.240   3.513  0.0095 -0.3004  0.0703
 1618W        W17692  13.950   9.604  13.253  0.1350 -0.2032  0.1467
 1619W        W17693  17.999   3.880   0.177 -0.3131  0.2992  0.2660
 1620W        W17694   5.047   7.632   0.346 -0.2495 -0.0350  0.1052
 1621W        W17695  11.882   7.864  14.647  0.2452  0.3004  0.2900
 1622W        W17696  15.136   2.227  12.284 -0.0565  0.0282  0.0521
 1623W        W17697  12.668   3.532   2.663  0.0540  0.2866  0.2519
 1624W        W17698  10.153   6.658  14.756  0.0224  0.2545 -0.0602
 1625W        W17699   3.172   1.518  11.199 -0.2964  0.2156 -0.3577
 1626W        W17700   8.144  18.829   9.889 -0.1086  0.2389  0.0890
 1627W        W17701   4.349  10.012   0.110  0.1256 -0.0253  0.3298
 1628W        W17702  11.636   9.692   4.138  0.1566 -0.0056  0.1766
 1629W        W17703  17.616  10.187  12.495 -0.2819 -0.2129 -0.0269
 1630W        W17704  14.290  10.030   3.880  0.1298 -0.1358 -0.0964
 1631W        W17705   2.601   8.530   3.922  0.1919 -0.3619 -0.2357
 1632W        W17706  19.011   7.189   3.326  0.0749  0.1807 -0.0401
 1633W        W17707  13.738  11.572  14.859 -0.0421 -0.0054  0.1111
 1634W        W17708  10.175  12.725   3.763 -0.0542 -0.2112 -0.0646
 1635W        W17709  17.855  12.083  11.621 -0.0589  0.0620  0.2091
 1636W        W17710   6.990  15.871   0.163 -0.0627 -0.3025  0.0751
 1637W        W17711   1.054   8.474   5.603  0.0876  0.0079 -0.0603
 1638W        W17712  16.237   9.905  13.076 -0.1014 -0.0181 -0.0818
 1639W        W17713  13.607   6.206  14.413  0.0526 -0.3928 -0.1599
 1640W        W17714  10.910   7.420  10.619  0.1429  0.0518 -0.0943
 1641W        W17715  17.524  18.492  11.870 -0.4242 -0.1660  0.2305
 1642W        W17716   1.286  10.159   0.065  0.0383  0.2509  0.2419
 1643W        W17717   8.251   9.110   0.377  0.0945 -0.0876 -0.1086
 1644W        W17718   0.895  16.167   4.221 -0.4187  0.1235 -0.0201
 1645W        W17719  13.395   6.362   0.229 -0.2234  0.0856  0.3989
 1646W        W17720  11.241  12.026   4.700  0.1100 -0.0802  0.2257
 1647W        W17721  11.244  17.574   2.499 -0.0064  0.0644 -0.0371
 1648W        W17722  15.445   0.916   5.452  0.0846  0.3034  0.0446
 1649W        W17723   0.639  10.215   3.242 -0.1476 -0.0675 -0.1250
 1650W        W17724  15.326   2.937   2.012 -0.0954  0.2911 -0.1158
 1651W        W17725  11.908  15.792   2.150  0.3012 -0.2102  0.0897
 1652W        W17726  17.674   3.996   3.033  0.2703 -0.4092 -0.1544
 1653W        W17727   0.876  11.077   2.201 -0.1632  0.0964 -0.0154
 1654W        W17728  13.521   3.625   5.067 -0.0854  0.1108  0.0090
 1655W        W17729  16.705   1.164   9.932  0.0112  0.1870 -0.1384
 1656W        W17730  19.259   2.496  11.235  0.2208  0.0233  0.0365
 1657W        W17731   9.149  18.875  12.263 -0.4238 -0.2217  0.2184
 1658W        W17732  11.302   3.025   4.712 -0.1493  0.3983  0.1779
 1659W        W17733  12.932   1.663  11.967 -0.2211  0.2548  0.1382
 1660W        W17734   0.827  13.274  14.251  0.0808 -0.1543  0.0232
 1661W        W17735  14.450   0.402   3.171  0.0752  0.1544 -0.2296
 1662W        W17736   6.796   9.452   4.116  0.0003 -0.0565 -0.3387
 1663W        W17737  14.067   6.288  11.504  0.1944 -0.1928  0.1308
 1664W        W17738  18.576   7.517   4.990  0.1262  0.1304 -0.3051
 1665W        W17739   5.487  17.935   0.533  0.2342  0.0654  0.1332
 1666W        W17740  16.653  19.327  11.133  0.0926 -0.3200  0.0690
 1667W        W17741   7.668  15.903   1.771  0.4800  0.1223  0.1207
 1668W        W17742   3.028   8.363   0.912 -0.3362 -0.1918 -0.1712
 1669W        W17743   8.643  17.256   1.870  0.0264 -0.1985  0.2306
 1670W        W17744   1.785   1.991   4.930 -0.0927 -0.2446 -0.0572
 1671W        W17745  11.660  16.663   0.248  0.1264 -0.0648  0.1318
 1672W        W17746  14.067  13.225  13.080  0.1560 -0.0318  0.1162
 1673W        W17747   5.568   5.842   0.465 -0.1481  0.0134  0.1965
 1674W        W17748   4.833  13.376  13.694 -0.1687 -0.1482  0.1591
 1675W        W17749  14.142   2.309  11.307  0.0013 -0.2148  0.0171
 1676W        W17750   4.790   5.034   2.564  0.0611 -0.2533 -0.0566
 1677W        W17751  13.542   3.147   1.959  0.0104 -0.0161 -0.0707
 1678W        W17752  11.241  15.488  10.582 -0.0970 -0.1612 -0.2646
 1679W        W17753   9.312   4.796   2.646  0.1760 -0.0500  0.0924
 1680W        W17754  11.058   4.578  13.662 -0.2097 -0.0260 -0.0113
 1681W        W17755  14.494  11.081  10.741  0.0798 -0.0492  0.2725
 1682W        W17756   2.986  14.619   1.638 -0.1563 -0.0366  0.2055
 1683W        W17757   8.527  17.908  12.858 -0.0185 -0.0262 -0.1155
 1684W        W17758  16.463   8.870  12.504 -0.0836 -0.4556 -0.1140
 1685W        W17759   8.883  13.629  14.924  0.3943  0.1566 -0.1172
 1686W        W17760   3.988   2.941   3.728 -0.4680  0.1077  0.0710
 1687W        W17761  18.455   9.554  13.265 -0.0670 -0.1647  0.0273
 1688W        W17762  16.972   3.935   1.451  0.2555  0.2501  0.0930
 1689W        W17763   7.440  16.589  10.709 -0.0851 -0.1175 -0.0055
 1690W        W17764  11.429  11.545  10.970  0.2160 -0.1251 -0.1011
 1691W        W17765  16.000   5.150  11.847 -0.2105 -0.1686  0.0236
 1692W        W17766  19.240   0.183  14.884  0.0838  0.2462 -0.1931
 1693W        W17767  18.914   4.854   0.803  0.1989 -0.2190 -0.2486
 1694W        W17768  14.297  17.974   4.669 -0.0716  0.1318 -0.0041
 1695W        W17769   1.734   1.758  11.823  0.2398  0.2667 -0.0850
 1696W        W17770  11.367   0.805   4.568  0.1841  0.0247 -0.3750
 1697W        W17771   9.361  13.859   1.459 -0.3957 -0.2019 -0.1253
 1698W        W17772  18.242   8.740   4.676  0.1230  0.1677 -0.0554
 1699W        W17773  19.084  18.634  11.418  0.2004 -0.0941 -0.1343
 1700W        W17774   4.483   9.655   0.490 -0.3388  0.1986  0.2404
 1701W        W17775  10.886   8.128  13.871 -0.4327 -0.3416 -0.1078
 1702W        W17776  14.647   9.715  11.230 -0.0316  0.2150 -0.2305
 1703W        W17777   5.635  19.023   1.175 -0.0574 -0.1469  0.3524
 1704W        W17778   5.158   3.309  12.671  0.0185  0.3336  0.0801
 1705W        W17779  12.565   2.192   0.967  0.0712 -0.1285  0.1009
 1706W        W17780   4.695  15.329  13.316 -0.2737  0.0802 -0.6123
 1707W        W17781   9.388  11.852   1.385  0.0635 -0.1712  0.0882
 1708W        W17782   7.662  16.072  11.330 -0.1272 -0.3327  0.5335
 1709W        W17783  16.749   9.144  13.831  0.0337 -0.3329  0.0363
 1710W        W17784   9.092  12.674  13.710  0.2182 -0.3068  0.3830
 1711W        W17785   0.482  17.433   1.068  0.0497  0.1200  0.0614
 1712W        W17786  10.057   7.275  11.397  0.1834 -0.0026 -0.0467
 1713W        W17787   2.084   7.190   3.669 -0.1042 -0.1388  0.1222
 1714W        W17788  12.484  17.152  10.371  0.0971  0.2234 -0.0367
 1715W        W17789   5.576   8.173   3.008  0.0209 -0.1922 -0.2737
 1716W        W17790  16.161  14.891  13.886 -0.0133  0.1649 -0.2551
 1717W        W17791   8.385   5.555  11.536 -0.0519  0.1788  0.2998
 1718W        W17792   4.943  17.394  14.214 -0.3403  0.0966 -0.0434
 1719W        W17793   1.151  19.328   0.474  0.0754  0.0495  0.2268
 1720W        W17794   0.664  19.241   4.439 -0.0948 -0.1176 -0.1888
 1721W        W17795   9.815   1.828   4.042  0.0277  0.0669  0.1383
 1722W        W17796   1.907  11.235   2.452  0.4023 -0.1714 -0.0647
 1723W        W17797  16.625   2.913  11.847 -0.0437  0.1232  0.1009
 1724W        W17798  15.539   9.953  12.415 -0.0517  0.1280 -0.2107
 1725W        W17799  10.708   9.586  13.060 -0.2145 -0.1786 -0.1243
 1726W        W17800   6.798  18.211  13.518  0.2735 -0.0505 -0.0528
 1727W        W17801  16.812   4.748  13.875  0.3210  0.3669 -0.0191
 1728W        W17802  12.256  12.034   1.682 -0.1153 -0.2976  0.1738
 1729W        W17803   2.982  15.418  12.701  0.1814  0.3160  0.0943
 1730W        W17804  10.832  12.691   4.176  0.2124  0.2697  0.3186
 1731W        W17805   9.735   4.075   0.711 -0.2621  0.3148  0.1251
 1732W        W17806   5.218  15.023  13.411 -0.1474 -0.0852 -0.2527
 1733W        W17807   1.778  17.410   4.763  0.0758 -0.1453  0.0250
 1734W        W17808   0.137  10.397  13.616  0.1892  0.0815 -0.2425
 1735W        W17809  18.790   6.660  12.909 -0.1326  0.0560 -0.1291
 1736W        W17810  12.834  14.031  14.170 -0.1709  0.0977 -0.1432
 1737W        W17811   2.455   3.831   3.186  0.1202 -0.3040 -0.4273
 1738W        W17812  17.918   2.872  14.487  0.0749 -0.2032  0.1117
 1739W        W17813   9.666   0.648  11.498 -0.2735 -0.1604 -0.1299
 1740W        W17814   0.479   8.752   4.070  0.1140 -0.3354  0.2231
 1741W        W17815  12.305  16.654  10.339 -0.0739 -0.0778 -0.2520
 1742W        W17816  17.684  11.271  11.239  0.1846  0.0824  0.2056
 1743W        W17817   4.103  18.559  13.993  0.0964 -0.1948 -0.0128
 1744W        W17818   3.050   9.137   5.291  0.0756  0.0226  0.0243
 1745W        W17819  12.706  11.295  14.267  0.0444  0.1693  0.1517
 1746W        W17820  13.210   6.794   0.043 -0.2694 -0.2034 -0.1822
 1747W        W17821   6.696   1.270  12.673 -0.2028  0.4054  0.3255
 1748W        W17822   7.696   1.818   4.300  0.0884  0.0304  0.0338
 1749W        W17823  14.119   1.945  14.833 -0.0675  0.0940  0.2090
 1750W        W17824  18.626   4.451  11.943  0.4185  0.2969  0.0525
 1751W        W17825  14.774  15.994   3.041 -0.0558 -0.0575  0.2433
 1752W        W17826   6.662   2.628  10.850 -0.2640 -0.1164  0.1047
 1753W        W17827  10.266   4.137  13.647  0.1208 -0.1570 -0.1136
 1754W        W17828   6.371  17.899  13.818  0.3760  0.0551  0.2357
 1755W        W17829   2.465   4.827  13.964 -0.0029 -0.3752 -0.0242
 1756W        W17830  12.724   9.330   3.808  0.2123  0.0540  0.1177
 1757W        W17831   8.764   3.414  13.824  0.0023  0.0106  0.0724
 1758W        W17832   6.890  12.382  10.859  0.1103 -0.1411  0.1460
 1759W        W17833   0.997  16.964   0.627 -0.1789  0.1082 -0.1477
 1760W        W17834  11.558  15.304   2.138  0.0756  0.1196 -0.0635
 1761W        W17835  16.069  12.268   2.639  0.0257 -0.1019 -0.0789
 1762W        W17836   8.564   6.725   4.180 -0.1010 -0.3548  0.0430
 1763W        W17837   1.669   3.992   4.370 -0.2873  0.1847  0.1427
 1764W        W17838  16.159  17.570   3.409 -0.1143 -0.0022  0.0921
 1765W        W17839   3.545  15.648   4.988 -0.0110  0.0004  0.1208
 1766W        W17840   6.235  14.730   3.634 -0.1242 -0.1203 -0.1322
 1767W        W17841   9.842  18.728   8.689 -0.4671  0.1522 -0.0078
 1768W        W17842  14.386  15.310  13.509  0.2188 -0.0330  0.0360
 1769W        W17843  11.691   3.332   4.578  0.1180 -0.0025  0.2072
 1770W        W17844   5.825  12.539   5.158 -0.0061  0.0024 -0.2283
 1771W        W17845   0.218   8.370   4.330 -0.0918 -0.0106  0.2344
 1772W        W17846   1.205   5.970   0.698  0.1508 -0.1428  0.3667
 1773W        W17847  14.142  13.241   5.068  0.1453 -0.3616 -0.0307
 1774W        W17848  11.784   0.476  11.411 -0.0918  0.3422  0.1330
 1775W        W17849   5.665  10.715  13.063 -0.1310 -0.1201  0.0136
 1776W        W17850   1.035   0.260   1.870  0.0235 -0.1716  0.2304
 1777W        W17851  14.287   0.915   4.174 -0.0202  0.2348 -0.1332
 1778W        W17852  15.643   2.926  10.828  0.3300  0.1131  0.0844
 1779W        W17853   4.737  18.877  10.763  0.0288 -0.0332 -0.3145
 1780W        W17854   5.182  18.983   0.004 -0.0453 -0.1173 -0.3875
 1781W        W17855  16.039   0.507   0.159 -0.0256 -0.1025 -0.2651
 1782W        W17856  15.088   7.817   0.231  0.1642  0.0358  0.1201
 1783W        W17857  12.446  11.568   3.800  0.0744  0.0394  0.2270
 1784W        W17858   0.012   4.022   1.760  0.3456  0.0289 -0.2222
 1785W        W17859  10.744  10.368  14.469 -0.0443  0.0937 -0.3883
 1786W        W17860  17.148   7.592   5.408 -0.0899  0.1740 -0.0839
 1787W        W17861  18.114  13.767   3.011 -0.1965  0.0296 -0.1167
 1788W        W17862  13.432   8.603   4.856  0.4016  0.2693 -0.3000
 1789W        W17863   6.628   0.442   4.684 -0.2390  0.3680  0.0031
 1790W        W17864  12.990   6.157  13.678 -0.2871  0.1143  0.2583
 1791W        W17865   3.632  11.420   4.488  0.0356  0.2353 -0.0696
 1792W        W17866   0.084   9.667   4.372  0.1670 -0.2306  0.3025
 1793W        W17867   9.547  10.073   3.700 -0.1513  0.0583 -0.3798
 1794W        W17868  19.003   0.865   3.855 -0.0647 -0.3545 -0.0869
 1795W        W17869  18.669  12.205   0.474 -0.0934 -0.1201  0.0485
 1796W        W17870   5.784   0.359  10.314 -0.3789  0.1838 -0.0303
 1797W        W17871  18.852  10.414   1.688 -0.1886  0.1466  0.1176
 1798W        W17872  16.729   9.609  14.527 -0.1216 -0.1961  0.1263
 1799W        W17873  16.675   5.078  14.231  0.1021  0.1078  0.2400
 1800W        W17874   7.432  17.593   1.354  0.0254  0.2069 -0.2157
 1801W        W17875  13.305   6.791   0.611  0.0364  0.1697 -0.0116
 1802W        W17876  15.734  18.901   0.515 -0.5698 -0.1644 -0.1449
 1803W        W17877   6.455  11.830  13.114 -0.0077  0.3754  0.1189
 1804W        W17878   6.483   6.885   1.962 -0.0699  0.0696 -0.0421
 1805W        W17879   6.321  10.649   2.890  0.1200 -0.5207  0.1000
 1806W        W17880  18.611  17.624  10.720  0.0795  0.0326  0.0478
 1807W        W17881  19.084  13.973   2.439  0.1521 -0.1181 -0.2032
 1808W        W17882   6.318   7.745  12.425  0.3184  0.2757  0.3797
 1809W        W17883  14.864   0.401   2.698  0.1611  0.0409 -0.0088
 1810W        W17884  12.693  17.218   2.662 -0.1807 -0.1330  0.2925
 1811W        W17885  12.458   0.739  10.601  0.2212 -0.0116  0.0769
 1812W        W17886  18.916   2.552   4.802  0.0149  0.3880  0.1172
 1813W        W17887   2.628   3.433   5.313 -0.3106  0.1460  0.0530
 1814W        W17888  16.038   6.575   5.055  0.1634 -0.0867  0.1405
 1815W        W17889  13.712   6.160  12.558  0.3050 -0.4355 -0.0815
 1816W        W17890   7.982  12.702   0.140 -0.1456 -0.2818  0.2918
 1817W        W17891   1.089  11.845   0.836 -0.0254  0.1802  0.2461
 1818W        W17892   7.235   2.903   5.593  0.0240  0.1857  0.1994
 1819W        W17893  12.731  10.102  10.780 -0.2568  0.2580  0.0840
 1820W        W17894  17.160  10.343  12.310  0.1596 -0.1274 -0.0483
 1821W        W17895   1.980   5.228   1.449  0.0810 -0.0293 -0.0818
 1822W        W17896  19.104   2.650  13.691  0.0840 -0.0833  0.0914
 1823W        W17897  18.104   2.062  14.094 -0.2410  0.1456  0.1610
 1824W        W17898   6.594  15.841   1.904 -0.1924 -0.2703  0.1281
 1825W        W17899   6.816  12.100   9.507 -0.1175 -0.0225  0.1052
 1826W        W17900   2.703  12.085   0.567 -0.0006  0.3676 -0.1221
 1827W        W17901   8.837  19.246  10.683 -0.1706 -0.1045 -0.0999
 1828W        W17902   4.706  16.965  10.084 -0.4085  0.0585  0.1046
 1829W        W17903  10.185  12.025   0.518  0.1088 -0.0957  0.1100
 1830W        W17904   8.569  17.346  14.214 -0.2959 -0.1327  0.3322
 1831W        W17905  15.534   2.344   4.030  0.1504 -0.1636  0.1191
 1832W        W17906  16.081  18.732   2.564  0.1143 -0.4351  0.0268
 1833W        W17907   1.493   6.398  12.142 -0.1716  0.4830  0.0220
 1834W        W17908   2.819   6.252  14.448 -0.1000 -0.1101 -0.0679
 1835W        W17909   8.543   8.786   1.429 -0.1326 -0.0752 -0.1198
 1836W        W17910   3.639  13.312  14.597 -0.1833 -0.1645 -0.0676
 1837W        W17911  16.949  14.076   3.398 -0.1111 -0.0802  0.1077
 1838W        W17912   2.470  12.356  11.461  0.0268 -0.0085  0.2296
 1839W        W17913  15.169   8.106   3.800  0.3049 -0.0929 -0.4719
 1840W        W17914   3.746  18.399   9.857  0.1684  0.0584  0.1087
 1841W        W17915   4.662  10.666  14.589  0.0043  0.0644 -0.2192
 1842W        W17916   7.335   3.245   0.879  0.0774  0.0765  0.2856
 1843W        W17917   5.776   2.901   1.431 -0.0747  0.0166  0.1143
 1844W        W17918   7.243  12.887  11.060  0.2555  0.1423  0.2126
 1845W        W17919  13.910  19.058  11.329  0.1241 -0.0491  0.0573
 1846W        W17920   0.044  11.738   1.163 -0.0422 -0.1594  0.0883
 1847W        W17921   4.515  11.172  11.010  0.0520 -0.1361 -0.0029
 1848W        W17922   9.837   5.526  10.720 -0.2180  0.2622 -0.0807
 1849W        W17923  14.207  14.098  12.751  0.2958  0.1011 -0.3387
 1850W        W17924  17.057  19.309  11.471 -0.1167  0.3701  0.4147
 1851W        W17925  14.767  10.841   0.563  0.0375 -0.2076 -0.3743
 1852W        W17926   3.978   4.013   1.658  0.2334  0.3860 -0.1079
 1853W        W17927  15.328  10.455  11.131  0.3788 -0.0658  0.1204
 1854W        W17928   9.539  18.660  13.883  0.0742 -0.1657  0.0153
 1855W        W17929  17.347   1.872   1.775  0.1057  0.1900  0.1124
 1856W        W17930   7.666   3.029   0.201  0.2650  0.3208  0.3490
 1857W        W17931   0.780   5.200   5.075 -0.0134  0.1157 -0.1266
 1858W        W17932   1.694  16.748  13.856 -0.2923 -0.0356 -0.0117
 1859W        W17933  17.851  12.693   1.747 -0.0089 -0.4637 -0.0210
 1860W        W17934   9.877  12.617  11.598 -0.0210  0.0172 -0.3692
 1861W        W17935   1.367  18.737  13.515  0.1740 -0.2070  0.0536
 1862W        W17936   8.405   8.485  10.798 -0.0937  0.1264  0.0667
 1863W        W17937   4.784   3.109  13.726 -0.0767  0.2027 -0.3355
 1864W        W17938   7.060  16.940  12.513  0.0114  0.1329  0.0150
 1865W        W17939   7.186  14.775   4.235 -0.1920 -0.1014  0.1721
 1866W        W17940  13.639  10.122  12.233  0.1667  0.1139 -0.1696
 1867W        W17941   2.183  12.268   5.570  0.0206 -0.2362  0.2243
 1868W        W17942  19.185   5.466  12.227 -0.0820  0.3098 -0.0390
 1869W        W17943   7.671   6.640  10.345  0.0199 -0.2204  0.0737
 1870W        W17944   4.982   9.867   1.371  0.2975 -0.0549  0.2505
 1871W        W17945   7.554   3.277  10.658 -0.2651 -0.5090 -0.0997
 1872W        W17946   4.299  17.526   0.039 -0.2053 -0.0772  0.0838
 1873W        W17947  18.435   4.434   0.614 -0.3663 -0.0783  0.2722
 1874W        W17948   1.383   7.341  13.733  0.1530  0.0433 -0.0517
 1875W        W17949   0.159  16.541   1.877  0.0327  0.2457  0.0556
 1876W        W17950   7.029  18.963   1.232 -0.1620  0.4531  0.7017
 1877W        W17951  18.657   1.779  14.252 -0.1413 -0.0105 -0.0968
 1878W        W17952   3.416  11.270  11.206  0.2275  0.0656  0.0519
 1879W        W17953  11.739  13.143  11.040  0.0066 -0.3356 -0.3110
 1880W        W17954   0.036   7.709   3.008  0.2690 -0.2382 -0.0739
 1881W        W17955  13.117  16.832   4.515 -0.1536 -0.0832  0.1158
 1882W        W17956  18.406  13.974   3.889  0.1267  0.1895 -0.1101
 1883W        W17957   9.600  16.879  13.574  0.1787  0.1350 -0.0376
 1884W        W17958  15.576  13.879   3.681  0.0759 -0.1068 -0.2041
 1885W        W17959  10.032  11.982   4.085  0.1257  0.0272 -0.0820
 1886W        W17960  14.400   6.163   3.064 -0.1087 -0.2116  0.0216
 1887W        W17961   6.808  14.463   1.752  0.1322 -0.1554 -0.3019
 1888W        W17962  11.125   9.544   1.745  0.1804  0.0913  0.2724
 1889W        W17963   6.369  17.864   4.650 -0.2068 -0.0842  0.0707
 1890W        W17964   1.703   9.791   1.259  0.2294 -0.0271 -0.3105
 1891W        W17965   0.469   0.194   4.866 -0.3900 -0.0171 -0.1494
 1892W        W17966  14.728   4.866   3.403  0.0516  0.1042  0.2089
 1893W        W17967   2.905  14.910   5.009  0.1057  0.1215 -0.0480
 1894W        W17968   1.297  15.145   4.231  0.0101 -0.0077  0.0148
 1895W        W17969  18.260   8.159   0.780  0.4001  0.0725 -0.1558
 1896W        W17970  15.544   4.952   1.417 -0.4290  0.2822 -0.1192
 1897W        W17971  11.744  10.955   4.432  0.1465  0.0269  0.1576
 1898W        W17972  11.276   1.122   9.015 -0.1358  0.1500  0.0701
 1899W        W17973   8.172   5.060   0.616  0.4405  0.2176 -0.0390
 1900W        W17974   1.422  14.370   2.449  0.0127 -0.1256 -0.1641
 1901W        W17975   1.046   7.863   4.368 -0.1189 -0.2044  0.1642
 1902W        W17976  15.845  13.839  14.210 -0.0239  0.0064  0.0719
 1903W        W17977   2.745   1.043   0.972  0.0069 -0.1979  0.0478
 1904W        W17978   4.197   8.990  10.730  0.0894 -0.1464  0.1966
 1905W        W17979   6.592  15.392   1.699 -0.1818 -0.0926 -0.2728
 1906W        W17980   5.545  15.776   4.629  0.2325 -0.0065  0.2485
 1907W        W17981  15.903   4.568  13.229 -0.2072  0.1750 -0.1497
 1908W        W17982  11.426  18.621   1.348 -0.1073 -0.1192  0.2328
 1909W        W17983  18.767   1.294   1.328  0.0876 -0.1984  0.4785
 1910W        W17984   5.637  10.886   0.599 -0.0907  0.1290 -0.0598
 1911W        W17985   8.825  10.626   1.044 -0.2597 -0.0329 -0.0543
 1912W        W17986  15.876   7.994  11.419  0.0997  0.3629  0.0132
 1913W        W17987   1.716  15.428  13.239 -0.0777  0.3866 -0.0031
 1914W        W17988  10.931  18.650   5.237 -0.1156 -0.0289 -0.2254
 1915W        W17989  13.989  11.402   0.312 -0.0808  0.1511  0.2626
 1916W        W17990  14.345   9.522  10.112  0.3695 -0.2882 -0.0757
 1917W        W17991  12.304  14.436   2.539 -0.1936  0.3109 -0.0744
 1918W        W17992  13.448   7.499   2.951  0.1747 -0.0638  0.0613
 1919W        W17993  18.237  13.765   4.817  0.0216  0.1607 -0.2149
 1920W        W17994   0.465   0.177   1.104  0.0999 -0.4223  0.2351
 1921W        W17995   1.998   7.986   1.857  0.2786  0.0816 -0.0387
 1922W        W17996  10.018   6.339   1.692 -0.1988 -0.0918 -0.0566
 1923W        W17997   2.691   5.667  13.101 -0.3717 -0.0600  0.3590
 1924W        W17998  18.463   9.235  11.621  0.1881 -0.1166 -0.0818
 1925W        W17999   4.770   0.580   2.296  0.2292 -0.1126  0.0295
 1926W        W18000  14.239  18.437  13.897  0.1694  0.2712  0.1746
 1927W        W18001  10.698  18.297   4.903 -0.1896  0.0359 -0.0670
 1928W        W18002   1.399  12.711  12.433 -0.0334  0.0178  0.0849
 1929W        W18003   0.033   2.594   4.545 -0.0151 -0.0761 -0.1532
 1930W        W18004  12.268  15.174   3.330  0.0679 -0.0844 -0.1632
 1931W        W18005  16.007   4.094   3.126 -0.2389  0.0665 -0.1140
 1932W        W18006  15.735  12.666   2.443 -0.0667 -0.3019 -0.0553
 1933W        W18007   9.328  12.588  10.806 -0.0579 -0.0749 -0.2389
 1934W        W18008  14.070   0.127   5.209 -0.1933 -0.0333  0.4514
 1935W        W18009  11.786   7.977  12.069  0.2398 -0.0212 -0.1766
 1936W        W18010  16.777  17.396   0.545  0.1495 -0.0528 -0.0300
 1937W        W18011   8.359   8.132   0.165  0.0639  0.4926  0.3573
 1938W        W18012  10.347  12.519  11.276 -0.2031 -0.2116 -0.2068
 1939W        W18013   2.189  13.208   0.585  0.0748  0.2125 -0.1295
 1940W        W18014   6.723  13.715   2.258 -0.0028  0.4874  0.1875
 1941W        W18015   0.715   7.180   2.431 -0.3665 -0.1347 -0.1701
 1942W        W18016   7.480   3.084   3.079 -0.1733 -0.0433  0.4770
 1943W        W18017   8.445  19.292   3.656  0.1545  0.0539 -0.2552
 1944W        W18018   7.759  13.951   3.475  0.0721  0.1290  0.1312
 1945W        W18019   6.493   1.591  13.925 -0.4303  0.1445  0.1144
 1946W        W18020  14.036   1.732  10.707 -0.0073  0.0284  0.2687
 1947W        W18021  19.301   2.553  10.694  0.0481 -0.0575 -0.1156
 1948W        W18022   8.378   7.609  10.685 -0.1911  0.0656 -0.2058
 1949W        W18023   8.823   0.703   9.960  0.2247 -0.0530  0.2199
 1950W        W18024   6.563   5.564  11.834 -0.1897 -0.0458 -0.0674
 1951W        W18025  16.583  15.534  14.265  0.3047 -0.1318  0.0866
 1952W        W18026  16.425  10.223   1.538  0.0520  0.2469  0.0544
 1953W        W18027  17.166  17.370   2.089 -0.1406 -0.3193 -0.3640
 1954W        W18028   3.379   6.876  14.774  0.0161  0.0054  0.0374
 1955W        W18029  17.161  15.045   2.453 -0.0900  0.0135 -0.3636
 1956W        W18030  19.142  18.507  13.342  0.2101  0.0964  0.0734
 1957W        W18031   7.087  14.974   3.753  0.0230 -0.0475  0.0351
 1958W        W18032   0.998  11.393  10.781 -0.0994 -0.2580  0.0477
 1959W        W18033  10.458  15.019   0.601  0.1802 -0.2226 -0.3500
 1960W        W18034   4.586   5.372   4.686 -0.5909 -0.0648 -0.1881
 1961W        W18035  16.700  13.866   4.564 -0.1360  0.1525  0.1393
 1962W        W18036   6.968   2.015   0.908 -0.2921  0.1497 -0.0991
 1963W        W18037  15.241   6.413   0.469  0.1497  0.3470 -0.2321
 1964W        W18038   4.522  16.661   4.497 -0.1354  0.0732  0.2348
 1965W        W18039   9.663   6.398  11.233 -0.0302  0.1486 -0.1774
 1966W        W18040   5.807   6.620   3.928 -0.1362  0.0121  0.2111
 1967W        W18041   2.133   0.000  10.952  0.0746  0.5811  0.0512
 1968W        W18042   3.283  17.079  14.351  0.2733  0.0211 -0.0617
 1969W        W18043   4.135   8.625  14.380 -0.2797  0.0044 -0.1740
 1970W        W18044   0.766  10.482   5.480  0.1343  0.0681  0.2261
 1971W        W18045   6.997   2.517   2.398 -0.0554  0.1360  0.1317
 1972W        W18046  12.674  18.996  13.799  0.0885  0.1581 -0.4262
 1973W        W18047  19.081  14.846   2.215  0.0263 -0.0532  0.1906
 1974W        W18048   4.531   4.664   1.670  0.2101  0.1714 -0.0879
 1975W        W18049   4.267  16.527   3.205  0.1143 -0.0994  0.1901
 1976W        W18050  11.107   1.350   4.054 -0.0783  0.0406 -0.2343
 1977W        W18051   3.291   2.726  10.463 -0.0729 -0.1735  0.2874
 1978W        W18052   6.981  11.694   0.559 -0.4110 -0.1275 -0.0682
 1979W        W18053   7.061   5.236   2.722 -0.0115  0.1263  0.0251
 1980W        W18054  19.261   3.936   0.767  0.2070  0.0825 -0.2167
 1981W        W18055  15.603   8.809  10.040 -0.2886 -0.2141 -0.0833
 1982W        W18056   4.680  17.428  11.338 -0.0098 -0.0918  0.0737
 1983W        W18057   8.183  14.537  11.134  0.1093  0.1986 -0.0545
 1984W        W18058  18.586  13.827  12.306  0.0372  0.0211  0.3088
 1985W        W18059  14.665  12.726   0.846  0.0184  0.0547 -0.2148
 1986W        W18060  10.494   2.510   0.337  0.1633  0.1666 -0.4863
 1987W        W18061  10.084  18.646   4.796 -0.0628 -0.0889 -0.1537
 1988W        W18062  12.884   3.763   0.407  0.0152 -0.0372 -0.0332
 1989W        W18063   4.636  17.234  12.860  0.3681 -0.1432 -0.1437
 1990W        W18064  10.136   1.261   2.694 -0.0673 -0.0592 -0.0790
 1991W        W18065  15.467   4.358   1.240 -0.0962  0.1207  0.3749
 1992W        W18066   7.639   8.806   1.392  0.3260  0.2017 -0.2400
 1993W        W18067   1.596  12.361  11.476  0.0574 -0.2768  0.2216
 1994W        W18068  13.046   2.132   1.130  0.1821 -0.0887 -0.0839
 1995W        W18069   3.375   9.176  11.377  0.2518  0.0461 -0.3639
 1996W        W18070  18.495   9.122   4.376  0.0884  0.0905 -0.0195
 1997W        W18071   3.876   0.434   0.566 -0.1816  0.2296  0.0190
 1998W        W18072  14.193  10.731  13.371 -0.1689  0.2401  0.0462
 1999W        W18073   6.854   2.020   2.421  0.1426 -0.0331  0.0429
 2000W        W18074   5.948   7.214   0.968  0.0857 -0.0549  0.0842
 2001W        W18075   5.685   4.586  11.869  0.2658  0.3913 -0.1774
 2002W        W18076  17.980   1.035  13.104  0.0926  0.3562  0.0433
 2003W        W18077   8.777   9.518   3.938  0.0492 -0.1528 -0.0395
 2004W        W18078  17.222   7.932   2.908  0.2264  0.1137 -0.2485
 2005W        W18079   7.571  15.983   3.193  0.0957 -0.0072 -0.0429
 2006W        W18080  13.903  10.155   4.229 -0.1877 -0.3343 -0.0544
 2007W        W18081   5.488   1.696  14.659 -0.1107  0.0295  0.2997
 2008W        W18082   8.954  17.073  14.145 -0.1228  0.2357  0.0968
 2009W        W18083   8.414   3.497  11.981 -0.3325 -0.2937 -0.1758
 2010W        W18084  17.074   6.057   1.669  0.3776  0.0919  0.0156
 2011W        W18085  10.064   1.910   5.142 -0.1963 -0.2471  0.1118
 2012W        W18086  14.664   9.512   2.342  0.0932  0.1018 -0.0693
 2013W        W18087   6.413  15.676  13.905 -0.1800  0.1680  0.4277
 2014W        W18088  14.816  12.492  14.560 -0.1100  0.3714  0.1121
 2015W        W18089   4.419   3.747   0.773 -0.3672  0.3483  0.2963
 2016W        W18090  15.185   9.298  13.925 -0.0114 -0.0937 -0.2275
 2017W        W18091  17.811  15.060   1.011 -0.4020 -0.2254 -0.1274
 2018W        W18092  16.425  17.913   3.609 -0.0311 -0.0604 -0.1142
 2019W        W18093  14.754  15.659   3.977 -0.3713 -0.2695  0.0069
 2020W        W18094  10.750  16.898   0.245 -0.2160  0.2140 -0.0751
 2021W        W18095   5.129  18.489  10.345 -0.0362  0.0171 -0.0966
 2022W        W18096   7.202  11.231   0.844  0.1698  0.3568  0.0206
 2023W        W18097   7.291   3.497   0.283 -0.0848 -0.0615  0.2106
 2024W        W18098  10.092   0.655   0.070  0.0187  0.1589  0.0795
 2025W        W18099   8.951  10.045   2.870  0.0501 -0.1812  0.1248
 2026W        W18100   1.122   4.279   3.264 -0.1313  0.3552 -0.1453
 2027W        W18101  10.252   0.886   3.050 -0.1853 -0.2661 -0.0432
 2028W        W18102  18.644  15.081  13.835  0.3002 -0.2646  0.0124
 2029W        W18103  16.514   7.029   1.104  0.1290 -0.5017  0.0748
 2030W        W18104   1.613   4.001   0.144  0.0163 -0.0379  0.0634
 2031W        W18105  16.889  14.905   0.950  0.3478  0.1549  0.2365
 2032W        W18106   2.031   4.426  14.327  0.2698 -0.0850  0.1321
 2033W        W18107   8.158   3.906   3.480  0.0585  0.0684 -0.2742
 2034W        W18108  15.302   4.036  11.273  0.4054  0.0265  0.0201
 2035W        W18109  11.467   8.336   1.968  0.1345 -0.0399 -0.2329
 2036W        W18110  14.120  11.192  11.602  0.5239  0.2551  0.3420
 2037W        W18111  14.438  17.830  12.631  0.1479 -0.3910 -0.0978
 2038W        W18112  16.991  10.469  14.054  0.2794 -0.2104  0.0367
 2039W        W18113   1.351   1.100   0.609  0.1524  0.1610  0.1436
 2040W        W18114  12.794   9.137   0.578 -0.2627  0.3796  0.2739
 2041W        W18115   8.328  10.874  10.264 -0.0294 -0.3943 -0.1507
 2042W        W18116   2.580   4.736  14.498  0.0040 -0.1455  0.3156
 2043W        W18117  16.415   5.805  14.244 -0.0788 -0.0354  0.0779
 2044W        W18118  13.403   8.715   3.449  0.3793  0.1993 -0.0295
 2045W        W18119   3.537  12.540  12.816  0.1354 -0.0646 -0.2804
 2046W        W18120   1.678  13.903  10.961 -0.0377 -0.1138  0.0290
 2047W        W18121  17.394  18.253   4.809 -0.0587  0.0846 -0.0687
 2048W        W18122   2.741  15.065  12.266  0.1006  0.1992 -0.0881
 2049W        W18123   6.735  17.950  14.136  0.3080 -0.0847 -0.2981
 2050W        W18124  16.833   9.362   0.682  0.1421 -0.1312 -0.1889
 2051W        W18125  11.620  18.609   2.636 -0.1187 -0.2274 -0.1773
 2052W        W18126   2.527  19.162   4.573  0.0815 -0.0991 -0.2561
 2053W        W18127   4.376   8.603   1.651 -0.0553  0.1043  0.0644
 2054W        W18128  13.209   2.365  13.683  0.1178 -0.1788 -0.0506
 2055W        W18129  14.807  13.108   2.235 -0.1516 -0.0981 -0.1474
 2056W        W18130   0.053  18.179  11.586 -0.1087 -0.0964 -0.2574
 2057W        W18131   0.365  18.258   5.087 -0.2987  0.0469  0.3637
 2058W        W18132   8.758   1.558  10.875  0.2604  0.0435 -0.0290
 2059W        W18133  14.819   5.468   5.366  0.0986  0.2262  0.1244
 2060W        W18134   2.554   0.065  11.182 -0.0744  0.2345 -0.1717
 2061W        W18135  18.902   5.214   4.490 -0.1228 -0.0919  0.1148
 2062W        W18136  14.158   7.376   1.712  0.3526  0.1911 -0.1239
 2063W        W18137   2.660   7.944   1.169 -0.1122  0.0062  0.0995
 2064W        W18138   6.371   8.062   4.642 -0.1340  0.1993  0.1239
 2065W        W18139  17.608   8.308  12.085 -0.1784 -0.0814  0.4531
 2066W        W18140   7.718   2.395   2.194  0.0180  0.0449  0.2011
 2067W        W18141  14.063   5.104  11.129 -0.1339  0.3544 -0.3061
 2068W        W18142  11.459   6.974  13.936 -0.1907  0.1815  0.0554
 2069W        W18143   5.004  18.641  14.184 -0.2444  0.1082  0.0808
 2070W        W18144   3.656   6.511  12.929  0.2522  0.2512 -0.2889
 2071W        W18145   0.750  17.600  13.031  0.0774  0.2371  0.0529
 2072W        W18146   5.808  12.232   4.763  0.0066  0.1591 -0.1071
 2073W        W18147   4.582  16.729  13.020 -0.0148  0.1124  0.3423
 2074W        W18148  13.588  13.858  12.377 -0.3507 -0.0191  0.1061
 2075W        W18149  10.376   2.469  14.313 -0.2048 -0.2693 -0.2224
 2076W        W18150   3.678   3.724   1.404 -0.3886  0.0561 -0.0003
 2077W        W18151  12.263   6.996  12.816 -0.0065  0.1263  0.0724
 2078W        W18152  10.016  14.485   0.078  0.2675  0.0945 -0.1121
 2079W        W18153  13.381  13.200   3.609  0.0272 -0.1624  0.3070
 2080W        W18154  16.975   7.364   0.165  0.2556  0.4344  0.0304
 2081W        W18155   5.810  10.005   4.037 -0.3080  0.3667  0.0163
 2082W        W18156   0.778  10.077   4.601 -0.0498  0.1746 -0.0021
 2083W        W18157  15.555   2.265   4.877 -0.0134  0.0227 -0.2355
 2084W        W18158  11.502   7.049   2.384 -0.2334 -0.4724  0.3128
 2085W        W18159   7.900   2.412  11.248 -0.0704  0.2194 -0.0430
 2086W        W18160   6.913   9.054  13.898 -0.2041  0.0019  0.1998
 2087W        W18161  17.162   6.521   0.689 -0.2656  0.0087 -0.1609
 2088W        W18162  12.124   5.885  11.083 -0.0236 -0.1349  0.0980
 2089W        W18163  12.479   4.595   1.775 -0.0241  0.0285  0.1655
 2090W        W18164  15.384   7.789  13.442 -0.1581 -0.0964  0.1636
 2091W        W18165  10.390  19.142   0.039 -0.1059  0.0031  0.1472
 2092W        W18166   8.443   8.615  14.005 -0.3966  0.1035  0.2496
 2093W        W18167   7.394  16.720  13.618  0.2166  0.0545  0.1285
 2094W        W18168   1.742  16.938   4.579  0.1419 -0.0417 -0.0995
 2095W        W18169  13.916  15.441  13.637 -0.1725  0.1643 -0.1882
 2096W        W18170  13.436   2.209   4.596 -0.3839 -0.0618  0.1012
 2097W        W18171  15.019  16.521  14.262  0.0770 -0.1183  0.3023
 2098W        W18172   9.767   3.425  11.397  0.3064  0.1239 -0.1994
 2099W        W18173   0.248  17.227   3.284  0.4655  0.0422 -0.0947
 2100W        W18174   0.940  17.232   3.749 -0.0763  0.1094 -0.2050
 2101W        W18175  18.414   2.182  14.539 -0.2712  0.0677  0.6141
 2102W        W18176  12.533  11.227   4.091 -0.0938  0.1473 -0.3122
 2103W        W18177  11.058   9.813  11.984  0.0209  0.1285 -0.0938
 2104W        W18178   4.776  14.684   1.060 -0.1515 -0.0691  0.3233
 2105W        W18179   9.435  12.495  10.090 -0.0492  0.1344 -0.2812
 2106W        W18180  13.957   0.225  14.925 -0.0950 -0.2102 -0.0265
 2107W        W18181  12.461   8.569  13.103 -0.5343 -0.0087 -0.4188
 2108W        W18182  10.457   7.041  12.767 -0.0676  0.0835  0.3977
 2109W        W18183   5.182  18.295   1.222  0.0087 -0.3872  0.0005
 2110W        W18184  16.512   4.677   5.460  0.0155 -0.1218 -0.0038
 2111W        W18185   7.068  13.827   9.706  0.2373 -0.0093  0.0765
 2112W        W18186  12.753   8.768   2.379  0.2201 -0.2790  0.3070
 2113W        W18187   5.245   5.645  13.325 -0.0387  0.0466 -0.1842
 2114W        W18188  14.946  19.133   3.614 -0.2263 -0.0716 -0.1338
 2115W        W18189   4.235  16.182  13.881  0.0075  0.1788  0.0900
 2116W        W18190   3.035   9.739  12.523 -0.0507 -0.0608 -0.0896
 2117W        W18191  14.552   4.182   4.227 -0.0951 -0.1860  0.2820
 2118W        W18192  18.845   7.811   1.398 -0.0568  0.2599 -0.2162
 2119W        W18193   4.119   6.837   1.497  0.0338 -0.1614  0.3013
 2120W        W18194   9.415  18.126  12.519 -0.3206  0.0092  0.1159
 2121W        W18195   9.932  17.416  13.786 -0.1280  0.0792 -0.0552
 2122W        W18196   6.306  18.291  13.120 -0.1328  0.1028 -0.1388
 2123W        W18197   2.578  11.928   2.284  0.1036  0.2643 -0.0898
 2124W        W18198  16.161  10.679  10.503  0.0958 -0.1666 -0.1265
 2125W        W18199  15.103   6.443   9.690  0.1408  0.1145  0.1285
 2126W        W18200   0.999   2.651   0.464  0.1481 -0.1552 -0.2740
 2127W        W18201  16.359   7.979  14.770  0.1110  0.0885  0.2911
 2128W        W18202   8.982  10.174  14.610 -0.4550  0.2649 -0.1167
 2129W        W18203  18.146   9.729  11.135 -0.3083  0.1094 -0.1492
 2130W        W18204   0.248   1.884  14.670 -0.0696 -0.0183  0.0216
 2131W        W18205  15.779  13.424   0.229  0.3748  0.0660 -0.1283
 2132W        W18206   5.079  12.244  14.096  0.1050 -0.3375 -0.0239
 2133W        W18207  14.987  12.215  13.663 -0.3601 -0.0640  0.3604
 2134W        W18208   3.192   5.429  14.600  0.4250  0.1651  0.1767
 2135W        W18209  16.614  16.645  12.967 -0.0672 -0.0233 -0.0896
 2136W        W18210   1.844  18.462   1.436  0.1701  0.1739  0.0159
 2137W        W18211  18.202   9.034   0.958  0.0781  0.0173  0.2927
 2138W        W18212   2.349   5.420   0.717  0.1593 -0.2456  0.1143
 2139W        W18213  11.156   8.129   2.344 -0.0182 -0.1708  0.0038
 2140W        W18214   3.169  17.084  13.871  0.1143  0.3438 -0.0564
 2141W        W18215   2.558  14.918  14.933  0.0236  0.1101 -0.3753
 2142W        W18216   1.324   7.643   1.028  0.0490  0.0090 -0.2387
 2143W        W18217   7.458  12.200  10.226 -0.1524  0.2423  0.0201
 2144W        W18218  18.643  10.216  11.512  0.0222  0.0156 -0.0988
 2145W        W18219  18.605  14.828   2.439 -0.0115 -0.0842  0.0438
 2146W        W18220  13.899   9.678   4.029  0.1562  0.2450 -0.2985
 2147W        W18221   6.007   8.977  11.315 -0.1794 -0.1230 -0.2038
 2148W        W18222   4.181  16.007   5.182 -0.0661 -0.5212 -0.2936
 2149W        W18223   1.072   7.455   2.681  0.3239  0.3560  0.2237
 2150W        W18224  11.371   7.508   3.946 -0.0375  0.1017  0.2102
 2151W        W18225   3.491   1.902  11.747 -0.1751  0.0359  0.0473
 2152W        W18226   8.829   1.538  11.661 -0.0206 -0.2877 -0.3440
 2153W        W18227  17.284  17.171  13.503 -0.4824  0.0526 -0.0869
 2154W        W18228   2.978   4.447   3.823 -0.3903  0.3121 -0.1878
 2155W        W18229   0.080   2.372   2.033  0.2126 -0.2998 -0.0545
 2156W        W18230   0.483   6.106   1.328  0.0157 -0.1004  0.1768
 2157W        W18231   9.847   1.049  10.725 -0.1258 -0.1059  0.0506
 2158W        W18232   7.962   4.555  13.883  0.2916  0.1628 -0.1342
 2159W        W18233  10.152  18.412   3.486  0.1339 -0.4482 -0.0873
 2160W        W18234   1.163  15.304  14.908 -0.1004  0.0364  0.0174
 2161W        W18235   2.956  12.206  13.607 -0.0610  0.2417  0.1605
 2162W        W18236   3.585  15.378   0.990 -0.0794  0.3044  0.0156
 2163W        W18237   1.735   7.919   1.395 -0.0777  0.2345 -0.0662
 2164W        W18238   8.379   6.314   2.996  0.0005  0.0131  0.1141
 2165W        W18239  12.062  19.170   5.631  0.3615  0.2358 -0.4531
 2166W        W18240  15.525  17.761  12.658  0.1885 -0.0058  0.2645
 2167W        W18241  18.510   8.654   1.931 -0.0311 -0.1313  0.0786
 2168W        W18242  17.124  18.899   0.152 -0.3732  0.1828 -0.1373
 2169W        W18243  18.952  17.772  13.565 -0.3609 -0.0103  0.1674
 2170W        W18244  13.562   9.898  13.185  0.2434  0.1220 -0.2087
 2171W        W18245  10.102   9.813   2.889  0.0313 -0.0443  0.0412
 2172W        W18246   9.557   2.654   0.681 -0.1240 -0.2388  0.0603
 2173W        W18247  16.429   4.146   4.699  0.4134  0.1982 -0.0359
 2174W        W18248  13.963   3.954   2.718  0.0884  0.2163  0.1701
 2175W        W18249   7.800   8.802  13.644  0.1651  0.1161  0.0970
 2176W        W18250  10.838   2.110  12.072  0.2083 -0.0341  0.0392
 2177W        W18251  16.857   5.137   3.899 -0.0177  0.2152 -0.3208
 2178W        W18252  15.245  10.615   0.462 -0.0361 -0.0033  0.1622
 2179W        W18253  11.453   5.988   5.577 -0.0552 -0.4651  0.0894
 2180W        W18254  15.977   4.247   3.628  0.2207 -0.1043  0.0494
 2181W        W18255   0.735  17.475  12.162 -0.1512  0.1075 -0.0951
 2182W        W18256   9.680   9.280  13.165 -0.0602  0.0996 -0.3380
 2183W        W18257   0.880   2.461   1.586 -0.4315  0.0394  0.2781
 2184W        W18258   5.972  11.268   2.004  0.0009 -0.0346 -0.0547
 2185W        W18259   4.944   2.223  12.641 -0.1636 -0.2228 -0.0396
 2186W        W18260   3.602   6.752   1.461 -0.2462 -0.1724  0.3038
 2187W        W18261  15.704   1.789  14.521 -0.0443 -0.1005 -0.2302
 2188W        W18262  18.220   6.301   1.618 -0.2274 -0.3288  0.0094
 2189W        W18263   5.540   3.927   3.653 -0.1116 -0.2194 -0.0358
 2190W        W18264  17.384  15.737   0.404 -0.2052 -0.0297  0.0241
 2191W        W18265   2.732   2.496  12.137 -0.1181  0.0744 -0.3403
 2192W        W18266  13.008  18.492  12.614  0.5458  0.2264 -0.3743
 2193W        W18267   5.644   2.406   0.983  0.0328  0.0540 -0.2946
 2194W        W18268  14.856   6.589   3.014  0.1057  0.1529  0.1081
 2195W        W18269  10.965   5.697  12.380 -0.0407 -0.1029 -0.2295
 2196W        W18270   5.156   2.862  10.813 -0.2351  0.0553 -0.0029
 2197W        W18271   3.568  13.407   5.816 -0.1154  0.4207  0.0953
 2198W        W18272  18.337  11.876   0.252  0.1962  0.1318  0.5004
 2199W        W18273  13.618  18.517   0.286  0.0406  0.0111  0.2662
 2200W        W18274  13.593  17.001   2.943 -0.0446  0.1384 -0.0591
 2201W        W18275   2.172   8.783   0.861 -0.1347  0.1506  0.1226
 2202W        W18276   7.789   7.007  12.624 -0.1037 -0.4189 -0.0304
 2203W        W18277   7.710   9.421   2.273  0.0322 -0.3141  0.1200
 2204W        W18278  13.332   7.531  12.924 -0.2103  0.1758 -0.0182
 2205W        W18279  18.688  12.615  14.525  0.0578  0.0662 -0.0353
 2206W        W18280  10.174   7.007   3.219  0.2372 -0.3908 -0.1195
 2207W        W18281  18.342  10.438   5.578 -0.2013  0.1454  0.1125
 2208W        W18282   8.604   1.532   3.199 -0.0370  0.0396  0.1265
 2209W        W18283   1.127   0.961   3.092  0.0047  0.0003  0.2228
 2210W        W18284   7.597   7.365  14.514 -0.4526 -0.2442  0.0253
 2211W        W18285  16.715   3.521   4.218  0.2413  0.0092  0.2658
 2212W        W18286  18.315   0.750   2.310  0.1196 -0.0711  0.1389
 2213W        W18287   4.040  13.094  14.361 -0.1717  0.3245 -0.1318
 2214W        W18288  10.653  14.153   3.462 -0.2623  0.0351  0.1066
 2215W        W18289   2.525   8.803   4.382 -0.4835  0.1868 -0.2132
 2216W        W18290  18.636   1.083  11.787 -0.1548  0.2667 -0.1714
 2217W        W18291  11.704  11.797  14.427 -0.1439 -0.1485 -0.0784
 2218W        W18292   1.650   7.081  10.941 -0.0916  0.1210 -0.0008
 2219W        W18293   5.826   0.723  14.544 -0.0310 -0.1682  0.1255
 2220W        W18294  16.923  11.925   4.651  0.2680 -0.3509  0.0303
 2221W        W18295  12.234  19.243  10.146  0.1086  0.2942  0.3535
 2222W        W18296  19.084  14.345  14.857 -0.1423  0.0743 -0.0731
 2223W        W18297   9.521   0.653  10.948 -0.0767  0.0572 -0.1752
 2224W        W18298   6.903   8.332   2.725  0.1339  0.2310  0.0454
 2225W        W18299  12.961   3.868   3.138  0.1203  0.0380 -0.2102
 2226W        W18300  11.469   9.136   9.899 -0.4261 -0.1047 -0.3019
 2227W        W18301   4.882  13.822   1.443  0.2005  0.3345 -0.0822
 2228W        W18302   9.979   2.704   1.120 -0.1872 -0.2120  0.2205
 2229W        W18303  14.658  16.763  10.352  0.0508  0.1660  0.2862
 2230W        W18304   3.093  15.688  14.374 -0.2554  0.0362  0.0031
 2231W        W18305   1.521   7.611  10.976 -0.2491  0.0514  0.2245
 2232W        W18306   9.814  15.020  13.847  0.1819  0.3738 -0.3284
 2233W        W18307   1.405   7.797   4.017 -0.3726  0.1493  0.0908
 2234W        W18308  14.435   3.825  14.225  0.3186  0.0779 -0.1139
 2235W        W18309   5.827   9.598  11.974  0.1588  0.1114  0.0026
 2236W        W18310  16.606  10.378   0.548  0.1965 -0.1124  0.2402
 2237W        W18311  17.762  16.990  13.843 -0.3566  0.1985  0.2195
 2238W        W18312   7.304   1.122  13.494  0.2538 -0.4704  0.2898
 2239W        W18313   2.011  10.733  13.093  0.0056  0.0946  0.3469
 2240W        W18314  10.512  11.879   3.945  0.1399  0.0031  0.1283
 2241W        W18315   7.401   8.194   4.240 -0.0217 -0.0586  0.1099
 2242W        W18316  17.404  18.611  14.703 -0.0230  0.0415 -0.0425
 2243W        W18317  15.178   2.433  14.086 -0.1106 -0.0864 -0.0899
 2244W        W18318  17.513  18.183   1.313 -0.1589 -0.1352 -0.0514
 2245W        W18319  11.483  17.623  12.109 -0.1457  0.2253 -0.1654
 2246W        W18320  19.096   3.431  12.698  0.0283 -0.0750 -0.1525
 2247W        W18321  11.616  17.512  10.322  0.0975 -0.0309  0.4555
 2248W        W18322   9.507   3.872  10.458  0.2522  0.0960  0.0070
 2249W        W18323   3.044   2.680  14.604  0.1882  0.2975 -0.3576
 2250W        W18324  14.820   1.666  13.922  0.2599 -0.2364  0.2608
 2251W        W18325  18.998  11.907  13.958  0.0866  0.4566 -0.0552
 2252W        W18326  12.338  18.052   1.786  0.0074  0.3327 -0.1231
 2253W        W18327   9.034  15.003  10.905  0.2235  0.1220 -0.1002
 2254W        W18328   9.574   6.930   0.649 -0.3312 -0.0845 -0.1600
 2255W        W18329   0.033   6.267  12.672  0.0298  0.1194 -0.2503
 2256W        W18330   1.792   8.132   5.839 -0.1986 -0.1884  0.0349
 2257W        W18331  11.481  18.713   5.040  0.2633  0.1157 -0.0686
 2258W        W18332   6.385   7.397  11.986 -0.2879 -0.1311 -0.0423
 2259W        W18333   6.143   7.280  12.995 -0.2233  0.3776 -0.3202
 2260W        W18334   3.176  17.190   1.473  0.1476  0.1247 -0.0386
 2261W        W18335   5.245  11.944  14.965  0.4733  0.0682 -0.0012
 2262W        W18336   6.467   4.851  14.413 -0.1053  0.1390  0.0106
 2263W        W18337   9.640   7.590   3.716  0.1169 -0.1134 -0.1249
 2264W        W18338  15.224  13.301  14.887  0.0479 -0.0686  0.1040
 2265W        W18339   7.500   3.834  13.711 -0.3074 -0.2856  0.0493
 2266W        W18340   9.190  10.161  13.626 -0.1747 -0.0565  0.0567
 2267W        W18341   8.286  11.165   4.441 -0.1161 -0.0620  0.2923
 2268W        W18342   4.520  11.470   0.245 -0.3522 -0.0956 -0.0161
 2269W        W18343  16.199  10.234  12.587  0.0390  0.2817  0.0676
 2270W        W18344  11.806  18.950  10.841  0.2632 -0.2355 -0.2450
 2271W        W18345  12.557   5.252  12.560 -0.1560 -0.1855 -0.1948
 2272W        W18346   5.486   5.904  11.509  0.0638 -0.2571 -0.1663
 2273W        W18347   6.851   8.754   4.420 -0.0702  0.0031 -0.0125
 2274W        W18348   2.256  14.801  12.264  0.2121 -0.3114  0.3154
 2275W        W18349  10.001  16.057   0.714 -0.0706  0.0635  0.0473
 2276W        W18350   1.741   5.009   3.350  0.0121 -0.1408 -0.0124
 2277W        W18351  14.551   3.867   1.025  0.4146  0.0301 -0.0162
 2278W        W18352  14.203   0.968   2.049 -0.0993  0.0271 -0.1395
 2279W        W18353   4.062  12.088  14.094 -0.0766 -0.4641  0.0359
 2280W        W18354  15.902  17.144   0.715  0.1473 -0.0788  0.0537
 2281W        W18355   8.567   5.374   4.338  0.2374 -0.0792  0.2885
 2282W        W18356   4.448  18.298   1.860  0.0987 -0.2929 -0.1203
 2283W        W18357   0.787   5.998  11.856  0.0367  0.0597 -0.0436
 2284W        W18358   6.298   4.325   2.190  0.0527  0.3657  0.1144
 2285W        W18359   6.171   7.772  12.897 -0.1009 -0.1571 -0.1932
 2286W        W18360  11.143   7.004   1.254  0.0535  0.0949  0.1583
 2287W        W18361  13.268   9.005  12.864  0.1119  0.1203 -0.3021
 2288W        W18362  16.961   4.832   0.330 -0.0966 -0.0795  0.0846
 2289W        W18363  15.545  11.858   2.874  0.1948 -0.1179  0.0879
 2290W        W18364  10.338   3.294  14.470 -0.1100 -0.1711  0.1065
 2291W        W18365   9.570  15.544  12.168 -0.1273  0.0845 -0.1374
 2292W        W18366   7.396  14.181  11.496  0.1781 -0.2123  0.4230
 2293W        W18367   1.350  13.407  13.237 -0.1982  0.0264  0.2795
 2294W        W18368  12.941  19.091   2.273  0.4935  0.2948  0.0733
 2295W        W18369  15.566  14.674  11.110 -0.2589  0.3057 -0.0023
 2296W        W18370   4.463   4.002   0.315  0.3045  0.0565  0.4113
 2297W        W18371   9.127  10.897   3.355 -0.4430 -0.1659  0.3147
 2298W        W18372  11.939  10.503   2.860 -0.1584  0.0608 -0.0817
 2299W        W18373   7.078  14.162   2.064 -0.1988  0.2686 -0.1165
 2300W        W18374  16.286  11.175   3.547  0.0190  0.2845 -0.3292
 2301W        W18375   6.959   4.517  11.148 -0.1490 -0.0849  0.0473
 2302W        W18376  13.929  13.916  10.514  0.0370  0.3525  0.3787
 2303W        W18377  12.343  13.539   0.955 -0.6715  0.2425 -0.0624
 2304W        W18378  13.629   9.974   5.581  0.0159  0.0524 -0.0928
 2305W        W18379  11.768  17.154  12.123 -0.0341  0.2624  0.1055
 2306W        W18380   7.859  11.214  12.485 -0.0025  0.0816  0.0206
 2307W        W18381   1.250  15.765   4.175 -0.0116 -0.0320 -0.0264
 2308W        W18382  15.839  14.248  11.326 -0.0075  0.0759  0.0032
 2309W        W18383   0.688   4.860   3.329  0.2046 -0.1569 -0.1136
 2310W        W18384   5.036  13.010  11.921  0.0180  0.2830  0.0100
 2311W        W18385  14.351   6.657  10.232  0.0098 -0.0838 -0.1534
 2312W        W18386  16.299  12.621  14.013  0.1669 -0.3047  0.1555
 2313W        W18387   6.919   4.842  14.269 -0.3351  0.2725  0.1286
 2314W        W18388   8.805   5.633  12.728  0.0442  0.0869 -0.2103
 2315W        W18389  15.733  18.199  13.460  0.0026 -0.1147 -0.0182
 2316W        W18390   4.972   1.164   1.444  0.0928 -0.2729 -0.3743
 2317W        W18391  10.300  10.186  14.144 -0.1697 -0.0654  0.1624
 2318W        W18392   9.357   1.175  10.852 -0.2797 -0.1310  0.1184
 2319W        W18393  14.427  17.896  11.050 -0.0473 -0.1805 -0.1934
 2320W        W18394  11.036  16.907   3.738 -0.0645  0.1419  0.1470
 2321W        W18395   1.789   1.517   1.145 -0.3739  0.0419 -0.0431
 2322W        W18396  10.629   3.031   1.898  0.1480 -0.1002 -0.3023
 2323W        W18397   4.422  12.926   5.383  0.0832 -0.2397 -0.1352
 2324W        W18398  10.218  18.829   9.991  0.1128 -0.2935 -0.0661
 2325W        W18399   7.586  11.278  12.966  0.0706 -0.0293  0.0516
 2326W        W18400  10.171  15.329  10.866 -0.1754  0.1170 -0.3537
 2327W        W18401  15.513  15.710   2.259  0.0113 -0.1659 -0.0251
 2328W        W18402   4.984  14.640   4.369 -0.1211  0.2988 -0.0593
 2329W        W18403  12.645   4.047   1.381 -0.2913 -0.2209  0.0412
 2330W        W18404   5.010   9.129  13.672  0.0860 -0.2363 -0.0614
 2331W        W18405   9.616  18.585   4.359  0.0049  0.0437 -0.0716
 2332W        W18406  11.829   0.565   0.671 -0.1636 -0.0340  0.0919
 2333W        W18407   6.857   6.846  14.547  0.3188 -0.0413 -0.1725
 2334W        W18408  10.198  11.550  12.335 -0.0174  0.1762 -0.2192
 2335W        W18409  11.787   4.792  11.333  0.0963 -0.0443 -0.3419
 2336W        W18410  14.235  15.246   0.141  0.0725 -0.3913  0.2172
 2337W        W18411  15.547  17.378  10.140 -0.0656  0.2761 -0.1554
 2338W        W18412   1.700  13.078   0.883 -0.1389 -0.1635  0.1091
 2339W        W18413   3.839   0.448   9.721  0.1248  0.1547 -0.0148
 2340W        W18414   9.545   7.995  14.656  0.1483 -0.1579 -0.0742
 2341W        W18415   9.402  12.869   2.141 -0.2034  0.0473 -0.1249
 2342W        W18416  16.200  16.945   1.302 -0.3076  0.2708  0.1615
 2343W        W18417  12.720   9.404   4.692 -0.2275  0.1327 -0.0284
 2344W        W18418  17.424  13.524   9.985  0.1356  0.5951  0.1266
 2345W        W18419   7.877   9.807  10.719 -0.0687 -0.1976 -0.3457
 2346W        W18420   4.668   1.516   3.340  0.0155  0.0917  0.2576
 2347W        W18421   3.245  16.573  14.069  0.0005  0.0062 -0.3128
 2348W        W18422   2.027   6.516  14.476 -0.5447 -0.1425 -0.0314
 2349W        W18423   1.868   8.998   2.336  0.0139  0.2569 -0.1278
 2350W        W18424  13.818  17.822  11.360  0.0114 -0.3685 -0.0207
 2351W        W18425  12.420   3.849  13.189 -0.0724 -0.1836 -0.2433
 2352W        W18426   8.563   1.218   0.003  0.4459  0.0068  0.0764
 2353W        W18427  14.406   5.598  13.402 -0.1754 -0.1111  0.0376
 2354W        W18428  18.411  11.457  12.454  0.0593 -0.0236 -0.0482
 2355W        W18429  15.163   5.181   1.174  0.0701  0.2644  0.1475
 2356W        W18430   4.673  10.804   5.252 -0.2347  0.1899  0.0825
 2357W        W18431   2.001   8.012   5.298 -0.0464  0.1750  0.1143
 2358W        W18432  17.551   8.806  11.117  0.0659  0.0944  0.0065
 2359W        W18433  10.023   4.912   0.723 -0.1428 -0.0112 -0.0050
 2360W        W18434  16.205   2.941   3.309 -0.2656 -0.0352 -0.2823
 2361W        W18435   1.859   3.410  11.411  0.1336 -0.4099  0.1229
 2362W        W18436  18.046  14.893   4.301  0.2467  0.1772 -0.1297
 2363W        W18437  14.605  13.871   3.481 -0.4588 -0.1717 -0.0678
 2364W        W18438   9.632  19.072  12.005 -0.0067 -0.1553  0.2354
 2365W        W18439  16.341   7.573   2.293 -0.0848  0.0610  0.1371
 2366W        W18440  15.105   6.607   2.584 -0.4429  0.0861 -0.1930
 2367W        W18441   5.719   5.314  10.429  0.2572  0.1195 -0.1604
 2368W        W18442   3.796  12.532   2.894  0.2305  0.1314 -0.1554
 2369W        W18443  13.674  17.187   1.686 -0.0493 -0.1884  0.0194
 2370W        W18444  15.479  19.201   5.176  0.1644  0.0242 -0.1007
 2371W        W18445  18.194   6.194  11.859  0.3361 -0.0171 -0.0493
 2372W        W18446   5.169   5.318  12.008 -0.0222  0.1371 -0.2628
 2373W        W18447   5.687  17.877   1.877 -0.0384  0.0296  0.0305
 2374W        W18448  15.010  14.209   3.654  0.1702 -0.0593 -0.0839
 2375W        W18449   8.138  10.618  14.577  0.5922 -0.2099 -0.0279
 2376W        W18450  17.517   7.167  14.377  0.1528 -0.1254  0.1274
 2377W        W18451   7.714  16.332  13.757 -0.0376 -0.5183  0.3342
 2378W        W18452  16.355   4.722   2.707  0.2707 -0.0017  0.1895
 2379W        W18453  10.240   8.430   1.803  0.2087 -0.1955  0.2867
 2380W        W18454  10.673  15.836  10.679  0.1526  0.0861  0.0351
 2381W        W18455   5.847  18.785   3.397  0.6066  0.2055 -0.0958
 2382W        W18456  11.185   3.958   3.611 -0.2395 -0.2299 -0.1277
 2383W        W18457  10.711   0.695   3.183  0.0942 -0.1490  0.2203
 2384W        W18458   3.121   5.462   0.241 -0.1015  0.0217 -0.0418
 2385W        W18459  18.748   9.632  10.791  0.1124  0.1570  0.0314
 2386W        W18460   6.406  13.912   3.730  0.3551 -0.0872  0.0937
 2387W        W18461  12.660   3.314   9.493 -0.2584 -0.0423 -0.1521
 2388W        W18462   8.953   8.549  14.101 -0.1382  0.0942 -0.0161
 2389W        W18463  18.941   9.499   2.124 -0.0332 -0.3788  0.0518
 2390W        W18464  11.111  16.547  14.327  0.1129  0.1872  0.0337
 2391W        W18465  16.386   2.973  12.255  0.0616  0.1206 -0.0231
 2392W        W18466   5.885  15.750   5.012 -0.2220 -0.0981 -0.1143
 2393W        W18467  16.008   2.738   4.232 -0.1966  0.0230  0.2966
 2394W        W18468   8.605  12.031  10.618  0.0334  0.0415 -0.1917
 2395W        W18469  19.267  19.123   0.532  0.0043 -0.1884  0.1820
 2396W        W18470  12.603  15.710   2.932  0.1865 -0.0627  0.0292
 2397W        W18471  13.945   7.147   0.578  0.2602 -0.0442  0.0119
 2398W        W18472   6.999  17.977   0.068  0.2349 -0.3358  0.1868
 2399W        W18473   9.368   3.247  11.754  0.1554 -0.1040 -0.1512
 2400W        W18474   4.625  10.294  13.035 -0.2479  0.3302  0.0277
 2401W        W18475   7.501   2.588   0.291  0.1603 -0.2395 -0.2078
 2402W        W18476  17.179  16.109   1.612 -0.0052 -0.1146  0.0617
 2403W        W18477   3.072  11.007  14.876  0.0167 -0.2501  0.0344
 2404W        W18478  12.471  10.218   1.129 -0.1162 -0.0084 -0.2541
 2405W        W18479   0.034   6.321   4.282  0.3940 -0.0188  0.1336
 2406W        W18480   1.407  11.085   4.343 -0.1035 -0.0061  0.1149
 2407W        W18481  13.156  11.563  11.972 -0.1724 -0.0571 -0.1911
 2408W        W18482   0.085   3.278   3.385  0.4242 -0.1310 -0.0406
 2409W        W18483  18.986  15.647  12.896  0.2965  0.2173 -0.1922
 2410W        W18484  12.783   4.943  13.112  0.1511  0.2362 -0.2122
 2411W        W18485  13.715   1.143   1.084  0.1039 -0.1106 -0.3359
 2412W        W18486  12.179  15.280  10.311  0.1851 -0.3396 -0.3140
 2413W        W18487   6.746  12.793  13.999 -0.2071 -0.1798  0.3191
 2414W        W18488   0.506  17.923  13.380 -0.3293 -0.0582  0.1770
 2415W        W18489  14.040   5.522   3.694 -0.0462  0.1422  0.0037
 2416W        W18490  10.904   3.902   1.491 -0.0252  0.0872  0.1945
 2417W        W18491   7.158  18.339  12.156  0.1501  0.3016 -0.1433
 2418W        W18492  14.996   9.870  11.768 -0.4083  0.1233 -0.0354
 2419W        W18493  10.228  11.547   4.172 -0.1749 -0.0298 -0.3118
 2420W        W18494  11.077   2.270   3.210  0.4225  0.3934 -0.4224
 2421W        W18495  15.692  15.581   4.004  0.0219 -0.0907 -0.0199
 2422W        W18496   5.567  14.620  10.801 -0.1008  0.0640 -0.3350
 2423W        W18497   7.504   5.525   3.828 -0.1611 -0.1025  0.5581
 2424W        W18498  17.962  12.264   1.491 -0.1487 -0.2224 -0.0218
 2425W        W18499   2.027  18.581  10.361 -0.1241 -0.3022  0.0540
 2426W        W18500  11.784  12.421   1.512 -0.1054  0.1852 -0.1926
 2427W        W18501   5.083  15.278   3.076  0.0327  0.1049 -0.4955
 2428W        W18502  17.959   1.458  10.794 -0.3456 -0.4166  0.1914
 2429W        W18503   9.673  15.395  11.698 -0.1367  0.0726 -0.3955
 2430W        W18504  15.074   4.416  12.829 -0.0470 -0.0562 -0.3121
 2431W        W18505   2.459   9.407  12.288 -0.1402 -0.1083 -0.1624
 2432W        W18506   8.263   3.554   2.944 -0.1870  0.0984  0.0571
 2433W        W18507  14.389   7.455   2.736 -0.0033  0.4176  0.2767
 2434W        W18508   2.727  11.463   1.378 -0.1222  0.1146 -0.1324
 2435W        W18509   7.888  14.664  14.101 -0.2048  0.2722  0.0681
 2436W        W18510   2.986  17.657   5.339 -0.0238  0.2362 -0.2305
 2437W        W18511   4.652   1.894  13.853  0.0902 -0.0010 -0.1008
 2438W        W18512   1.406  18.710   3.604  0.2218 -0.1377  0.0993
 2439W        W18513   1.797  12.822   3.216 -0.1004 -0.2799  0.2398
 2440W        W18514   9.056   9.172   2.744 -0.1216 -0.2932 -0.3605
 2441W        W18515  13.406  16.819   0.131 -0.1660  0.3490 -0.1010
 2442W        W18516   5.880   5.350   9.823 -0.2147 -0.1399  0.2650
 2443W        W18517  11.750  10.609   4.019 -0.3495  0.2558 -0.2074
 2444W        W18518   7.305  13.963  12.078  0.0335 -0.0461  0.1124
 2445W        W18519   3.516   0.162  10.754  0.2142 -0.2757  0.0255
 2446W        W18520   4.691   9.096   0.455 -0.7334 -0.1221  0.3155
 2447W        W18521   4.324   1.491  14.360 -0.0674 -0.0532  0.2232
 2448W        W18522  16.246  15.084  14.338 -0.1069 -0.0981  0.1504
 2449W        W18523  13.525   4.415  13.220  0.0917 -0.2831 -0.0695
 2450W        W18524   5.989  13.667  12.091 -0.2625 -0.0374  0.1357
 2451W        W18525   0.227   4.049   2.285  0.0881  0.0953  0.7153
 2452W        W18526   4.055  16.846  10.369 -0.2749  0.1405 -0.3731
 2453W        W18527   9.897   8.371  11.104 -0.2542  0.1108  0.0788
 2454W        W18528  13.361   1.649   2.608 -0.4187 -0.0410  0.2178
 2455W        W18529   7.026   4.125   4.636  0.0963 -0.1150  0.2806
 2456W        W18530   4.478  10.434   3.201 -0.0862 -0.3203  0.0525
 2457W        W18531  18.535   1.697   1.090  0.0447 -0.2355 -0.2050
 2458W        W18532  11.926   9.433   3.209 -0.1217 -0.2450  0.0848
 2459W        W18533  14.448  13.058   4.685 -0.0692 -0.1005 -0.1524
 2460W        W18534  18.138  14.598   2.326 -0.0032  0.0543  0.0001
 2461W        W18535  13.659  15.874  13.166  0.3988  0.2857 -0.0304
 2462W        W18536   7.578  14.212   5.310 -0.0734  0.3318  0.3465
 2463W        W18537  15.510  15.834  13.946  0.2124  0.1792  0.0231
 2464W        W18538   0.489  18.801  11.500  0.0546 -0.0371 -0.2416
 2465W        W18539  11.759   4.944   0.033  0.0788  0.1342 -0.2554
 2466W        W18540   0.424   8.788  13.922 -0.0697 -0.2247 -0.3663
 2467W        W18541   7.657   8.870   3.322  0.1554  0.0960 -0.1010
 2468W        W18542  15.742   1.000  11.991 -0.0561  0.2257  0.1897
 2469W        W18543   5.672   5.676  13.080 -0.2149 -0.2222 -0.2297
 2470W        W18544  10.412   3.346   1.554 -0.0227  0.4631  0.0464
 2471W        W18545  18.939  12.948  13.249  0.0180  0.0256 -0.1246
 2472W        W18546   9.405  16.377   9.987 -0.1645 -0.0907  0.5104
 2473W        W18547  12.385  13.842   2.288 -0.2738 -0.2068  0.2476
 2474W        W18548   1.908  18.573   3.538 -0.1595  0.3177 -0.0009
 2475W        W18549  12.572  14.767   2.038 -0.0884  0.1559 -0.2048
 2476W        W18550   4.991  15.425  13.789 -0.1960 -0.2694 -0.2520
 2477W        W18551   7.846  16.338  11.705  0.1104  0.0429  0.1319
 2478W        W18552  10.797  17.306  10.311  0.0416 -0.1716  0.0272
 2479W        W18553   4.097   5.118  11.150 -0.0178 -0.0715 -0.1908
 2480W        W18554  17.217  10.562  11.737  0.2533  0.2851  0.0427
 2481W        W18555  12.957   7.938  13.935  0.0667 -0.0551  0.1495
 2482W        W18556   1.050   2.042   3.812 -0.1272  0.2914 -0.1236
 2483W        W18557  17.652  18.678  10.811  0.0410 -0.1634  0.2062
 2484W        W18558  14.691   5.924   5.217  0.2006  0.2391  0.0229
 2485W        W18559   9.103  17.175  10.250  0.0378  0.1217  0.1554
 2486W        W18560   8.759   3.162  10.423 -0.0507  0.1083 -0.1721
 2487W        W18561   3.171  10.114   5.435 -0.3359  0.0934 -0.2060
 2488W        W18562  13.724  10.709   4.357  0.3683 -0.0187 -0.0825
 2489W        W18563   5.954  10.470   1.843 -0.2332 -0.0495  0.2784
 2490W        W18564   8.656   6.707   1.730  0.2055 -0.1763  0.0962
 2491W        W18565   0.206  15.405  10.522 -0.1930  0.1237 -0.2886
 2492W        W18566  16.202   1.898   4.159  0.0341 -0.1607  0.0917
 2493W        W18567   2.664  10.296  13.716 -0.0525 -0.0568  0.2300
 2494W        W18568   2.480  10.314   3.044  0.0782  0.2150  0.0428
 2495W        W18569  16.744  12.939   4.624  0.1777 -0.0257 -0.3683
 2496W        W18570  18.221   1.368   1.531  0.3879  0.0661 -0.0258
 2497W        W18571   0.331  13.081   5.941  0.0453 -0.0400  0.0719
 2498W        W18572   2.813   0.951   9.912  0.3031  0.3348 -0.3991
 2499W        W18573   1.751  16.952  10.416 -0.2131 -0.1126 -0.3218
 2500W        W18574  13.405  12.023  13.546  0.0378  0.2253 -0.0566
 2501W        W18575   1.178   6.003   2.874  0.1776 -0.3676  0.0150
 2502W        W18576  15.653   0.401   3.335 -0.2008 -0.0374  0.2637
 2503W        W18577   3.597   9.923  12.204  0.2411  0.1281  0.1150
 2504W        W18578   4.365  16.461   1.867 -0.0256 -0.0779  0.2775
 2505W        W18579   7.464  13.816  14.451 -0.0369  0.0424  0.3931
 2506W        W18580  17.285   1.628   3.623 -0.2136 -0.0347 -0.2472
 2507W        W18581  12.911   9.120  14.163  0.2569  0.1772 -0.2263
 2508W        W18582  16.788  16.717   3.745 -0.1706  0.0887  0.2155
 2509W        W18583   5.586  11.389  11.493 -0.1900 -0.2535  0.2595
 2510W        W18584   5.190  18.481  13.633  0.0143  0.3530 -0.1507
 2511W        W18585  11.743  10.947  12.115 -0.0274 -0.0371 -0.1133
 2512W        W18586   2.285  12.693   3.740  0.2175  0.1597 -0.1002
 2513W        W18587   6.106   8.699   0.518 -0.0800 -0.0171  0.2289
 2514W        W18588   5.815  10.510  11.393  0.1462 -0.2277  0.1836
 2515W        W18589  18.200   5.776  13.406  0.1876  0.0021 -0.2527
 2516W        W18590   6.582   4.303  11.349 -0.0287  0.2789 -0.3248
 2517W        W18591  17.153  15.695  11.724  0.0064  0.0733 -0.0116
 2518W        W18592   1.286   7.942  14.523 -0.1882  0.1221 -0.2201
 2519W        W18593  12.992   8.006   5.136 -0.2639 -0.0644 -0.1805
 2520W        W18594   9.952   7.081  11.849 -0.4280  0.0992 -0.2557
 2521W        W18595  13.815   4.827   3.957 -0.0207  0.0618 -0.4214
 2522W        W18596   2.093   6.085   5.311 -0.2240  0.0958  0.3209
 2523W        W18597   4.811  11.228  13.174  0.1821 -0.2851 -0.1804
 2524W        W18598   2.582  12.196  10.313 -0.2821  0.0574 -0.0688
 2525W        W18599   7.198   8.995   0.453 -0.1156 -0.0218 -0.1628
 2526W        W18600   1.179   8.475   2.089 -0.0074  0.1183  0.1194
 2527W        W18601  16.780   1.922   2.623  0.3409  0.1353  0.2059
 2528W        W18602   6.066   3.685   8.993  0.0655 -0.2828 -0.0807
 2529W        W18603   7.303  11.731  11.958  0.2254  0.1594 -0.3007
 2530W        W18604  15.231  17.004   1.317  0.3216  0.1422 -0.3155
 2531W        W18605   5.418   2.422  10.114  0.3044 -0.0480  0.2723
 2532W        W18606   9.650   1.201   0.406  0.0828 -0.0736  0.0266
 2533W        W18607   7.163  19.099  11.041  0.1089  0.3453 -0.2665
 2534W        W18608   6.359  16.608   9.907 -0.1670 -0.1030 -0.1072
 2535W        W18609   3.307  15.355  11.032  0.2443 -0.0740 -0.0274
 2536W        W18610   6.677  14.136  12.212 -0.1481  0.0026  0.2405
 2537W        W18611   6.457   9.560   4.528 -0.0504  0.2822  0.0946
 2538W        W18612   4.659  16.465  12.585 -0.0971  0.0194  0.0492
 2539W        W18613   9.242  15.099  14.567 -0.1748  0.1730  0.1566
 2540W        W18614  19.261   4.033  10.174  0.3174  0.4519  0.1527
 2541W        W18615  14.946  13.523   2.493 -0.0385 -0.1937  0.3107
 2542W        W18616   6.166  12.851  14.592  0.0366 -0.1202  0.0602
 2543W        W18617  15.261  18.669   0.425  0.0346  0.3467 -0.0233
 2544W        W18618   6.888  10.907   3.881 -0.0229 -0.0458  0.1185
 2545W        W18619  18.785   0.468  14.777 -0.2143  0.1174 -0.0456
 2546W        W18620  13.592  14.520   1.806  0.3192  0.2924  0.5016
 2547W        W18621   4.828   5.969   3.268  0.0060  0.1671  0.1762
 2548W        W18622  14.734  15.146  10.695 -0.1095 -0.3825 -0.2215
 2549W        W18623  10.944   0.398   4.331 -0.3946  0.2114  0.3579
 2550W        W18624  16.061  16.531   0.141 -0.0210 -0.0009  0.1158
 2551W        W18625  10.494  19.213  11.347 -0.1489 -0.0641 -0.1122
 2552W        W18626  13.425  15.737  14.271 -0.1040 -0.0337  0.2445
 2553W        W18627   2.566  14.693  11.813  0.1467  0.2154  0.0301
 2554W        W18628  11.057   4.239  13.190  0.2840 -0.0698 -0.0181
 2555W        W18629  11.328  15.368   2.567  0.0360  0.2103  0.0766
 2556W        W18630  14.243   4.628  10.863  0.2116 -0.1197  0.1766
 2557W        W18631   0.884   1.866   0.973 -0.0337 -0.1527  0.7175
 2558W        W18632  18.557   4.010   3.629  0.2636  0.1423 -0.0076
 2559W        W18633  12.559  19.322   0.101 -0.0675 -0.1226 -0.2934
 2560W        W18634  12.779  12.811  13.493  0.0967  0.0566  0.0010
 2561W        W18635   7.489   0.342   9.691 -0.0218  0.1886 -0.2568
 2562W        W18636   2.422  14.051   0.604 -0.1118  0.2633  0.0485
 2563W        W18637  15.914   7.729  14.092 -0.2034 -0.2317 -0.2837
 2564W        W18638  11.910   4.067   1.728  0.1088  0.2607 -0.1336
 2565W        W18639  18.628   3.119  12.412  0.1664  0.1387  0.0723
 2566W        W18640   5.750  18.770  11.117 -0.1527 -0.0450 -0.0057
 2567W        W18641  13.039   3.489  12.695  0.0353 -0.2553  0.1233
 2568W        W18642  12.612  18.780  12.818 -0.2374 -0.2557  0.2864
 2569W        W18643   2.132   3.933   2.605 -0.4595  0.0600 -0.1086
 2570W        W18644  14.884  15.352  12.107  0.0456  0.2880  0.2555
 2571W        W18645  14.449   6.628   3.256  0.1480 -0.1557  0.2804
 2572W        W18646   9.764  16.706   4.023  0.0794 -0.1565  0.2204
 2573W        W18647  13.211   2.316  10.436 -0.3368  0.2864 -0.0842
 2574W        W18648   5.504  13.941   0.285  0.1174  0.0315 -0.0451
 2575W        W18649  17.230   8.606   2.121  0.1732  0.0625 -0.1796
 2576W        W18650   9.355   7.275   2.150  0.0499  0.0416 -0.0269
 2577W        W18651  12.733  10.690  13.497  0.0964  0.2419  0.0950
 2578W        W18652   2.310  11.233   0.471  0.0327  0.2280 -0.4554
 2579W        W18653  13.701   2.143  13.854 -0.1157  0.3768  0.0111
 2580W        W18654  19.292   8.707  13.341 -0.0270  0.2165 -0.2155
 2581W        W18655  11.441   8.926  14.661 -0.2827  0.1918 -0.0047
 2582W        W18656   8.112  13.962   0.677 -0.1736 -0.1453 -0.0254
 2583W        W18657  11.493  15.324  13.325  0.0020 -0.1860  0.0497
 2584W        W18658   6.565  10.221   4.548 -0.1566 -0.0988 -0.1174
 2585W        W18659  12.140   6.560  12.060  0.0366 -0.1339 -0.2189
 2586W        W18660   8.470   3.729   2.343  0.4679 -0.2329  0.1042
 2587W        W18661  15.264   2.140   0.660 -0.0106 -0.1720  0.0578
 2588W        W18662  15.542  15.569  14.528  0.0620  0.1659  0.0667
 2589W        W18663  11.101  14.488   9.702  0.1026  0.0494 -0.5485
 2590W        W18664   7.771  14.598  11.515 -0.0117 -0.1989 -0.0600
 2591W        W18665  19.322   0.785  10.710 -0.0671  0.0745  0.0073
 2592W        W18666  13.510   5.018   0.204  0.1090  0.0562  0.2683
 2593W        W18667  12.547  10.869  11.560 -0.2095  0.1488  0.1342
 2594W        W18668  18.926   6.722   0.917 -0.1858  0.0586  0.3131
 2595W        W18669  14.348  19.093   3.711  0.1449 -0.1825  0.2660
 2596W        W18670   6.996   3.469  14.423 -0.1156  0.0253  0.3221
 2597W        W18671   1.581   4.179  14.307 -0.1762  0.1813  0.0898
 2598W        W18672  14.154   8.519   1.786 -0.1520 -0.1437 -0.4735
 2599W        W18673   6.261  14.613  13.182  0.1289  0.2450  0.0011
 2600W        W18674   0.145  15.940  12.682 -0.2719  0.0944 -0.1903
 2601W        W18675  14.053   7.332   3.771 -0.1405  0.0030 -0.0087
 2602W        W18676   0.118   0.733   0.028 -0.1141  0.1550 -0.2979
 2603W        W18677   9.877   6.748  13.286 -0.3158 -0.1328 -0.2027
 2604W        W18678  18.847   5.480   3.519 -0.1043 -0.1115  0.2555
 2605W        W18679   3.914   2.156   3.653 -0.2492  0.1863  0.3300
 2606W        W18680   4.741  11.220   9.773  0.0884 -0.0214 -0.0404
 2607W        W18681  13.506  15.430   4.273 -0.4810 -0.0784 -0.2824
 2608W        W18682   7.280   7.063   3.855 -0.0479  0.0890 -0.0168
 2609W        W18683  13.163  15.426   1.425 -0.2665 -0.0724  0.2623
 2610W        W18684  13.377   3.532   4.405  0.0649 -0.3464 -0.0871
 2611W        W18685   0.777  16.622  11.057  0.0152 -0.3101 -0.1872
 2612W        W18686   7.280   3.969   0.664  0.1339 -0.3799 -0.1375
 2613W        W18687  18.355   4.972  12.708  0.0589 -0.3175 -0.2524
 2614W        W18688   1.112   6.891   5.617 -0.1342  0.2335  0.3039
 2615W        W18689  14.138   6.327   0.821 -0.5024  0.2698 -0.1344
 2616W        W18690  13.576   2.454  11.808  0.1738 -0.0659 -0.0845
 2617W        W18691   2.897  16.127   3.086 -0.0017  0.0198 -0.0815
 2618W        W18692  18.949   3.348   3.576 -0.0366 -0.0836  0.2700
 2619W        W18693  16.249   3.575   3.717  0.1777 -0.2082 -0.0220
 2620W        W18694  16.030  14.183   0.756 -0.1500 -0.0781 -0.1591
 2621W        W18695  13.704  10.721   4.933 -0.1762  0.2480  0.0110
 2622W        W18696   6.499  13.802  11.368 -0.1183  0.4833 -0.0188
 2623W        W18697  13.061   2.505   4.633 -0.1253  0.0265 -0.2231
 2624W        W18698   1.319   9.964   4.528  0.1611  0.0925  0.1829
 2625W        W18699   1.327   9.798   5.321  0.0504  0.0358 -0.1612
 2626W        W18700   1.198  15.565  10.435  0.0585  0.0348 -0.1112
 2627W        W18701  15.809   8.434  13.834  0.1660 -0.1500  0.1515
 2628W        W18702  11.053  16.250  10.930 -0.2762  0.2867 -0.0574
 2629W        W18703  12.831  16.613  10.318 -0.2747 -0.0635 -0.0377
 2630W        W18704  11.520  13.720   1.635 -0.1858  0.1665  0.0678
 2631W        W18705   5.312   3.758   1.247 -0.2566  0.1810 -0.4460
 2632W        W18706  10.051   9.310  13.482 -0.1439  0.2320  0.0942
 2633W        W18707   1.987   4.759  13.822 -0.2584  0.3860 -0.0852
 2634W        W18708  13.479   5.113  12.617  0.3699  0.2107 -0.0465
 2635W        W18709  15.412  10.145  11.496 -0.2666 -0.1061  0.1329
 2636W        W18710   1.012   0.425   3.008 -0.0572 -0.4628  0.0158
 2637W        W18711  16.688  15.433   1.398 -0.3044  0.1445  0.4114
 2638W        W18712   3.109   7.148   2.267  0.1179  0.3716  0.1294
 2639W        W18713  11.850  11.653   1.995  0.1113  0.2635 -0.0668
 2640W        W18714   1.176   3.848   2.368 -0.0238  0.1957  0.1790
 2641W        W18715   9.341  19.250  10.423  0.2329  0.0312  0.2044
 2642W        W18716  16.440   4.833   4.034 -0.0929  0.1341  0.0491
 2643W        W18717  11.954   6.826   4.236 -0.1546 -0.0412 -0.0273
 2644W        W18718  18.816   7.824  12.477  0.3931  0.0809 -0.1183
 2645W        W18719  15.389  16.331   5.496  0.0453  0.1648  0.1727
 2646W        W18720   6.848  17.496   2.283 -0.4157  0.3601  0.1330
 2647W        W18721  12.636  10.968   0.266  0.1124  0.0441  0.0390
 2648W        W18722   1.037  17.104   4.326 -0.0256  0.0957  0.1153
 2649W        W18723   6.550  12.777  14.980  0.1362 -0.2699 -0.1035
 2650W        W18724  18.446   0.191   4.982  0.0008 -0.1754  0.0413
 2651W        W18725  17.585   7.921   5.108  0.0894 -0.0255 -0.2264
 2652W        W18726   7.547  11.732   5.202 -0.0193  0.1296 -0.0653
 2653W        W18727  14.163  11.829  11.004 -0.1772 -0.3253 -0.0431
 2654W        W18728  18.232   9.616  14.514 -0.0539  0.2271 -0.0465
 2655W        W18729  11.577   1.766   4.738  0.0296  0.2181 -0.3320
 2656W        W18730  13.789  18.613   2.825  0.1063  0.2681 -0.0347
 2657W        W18731  13.526  19.203   1.705 -0.1439 -0.1495  0.1926
 2658W        W18732  11.230   6.547  11.268  0.2680 -0.1485 -0.1081
 2659W        W18733   8.124  14.823   1.923  0.3677 -0.1419 -0.4551
 2660W        W18734   3.567  12.929   4.035  0.1444  0.0633 -0.2842
 2661W        W18735  17.205   9.146  13.794  0.2130 -0.0699 -0.1069
 2662W        W18736  15.957  18.016   3.557  0.0877  0.0782 -0.1523
 2663W        W18737  13.311   6.517  14.202  0.0678  0.0391 -0.0726
 2664W        W18738   6.090   6.008  12.928  0.1791  0.1464  0.1196
 2665W        W18739  18.267  19.082  11.656 -0.2059  0.2169  0.0373
 2666W        W18740  18.045   3.872   3.872  0.1606  0.2720  0.0953
 2667W        W18741   3.520   7.187  13.424 -0.0046  0.0943 -0.0685
 2668W        W18742  15.378   2.631   0.994 -0.5433  0.0080  0.0841
 2669W        W18743   6.700   1.401  13.428  0.2872 -0.1927  0.1734
 2670W        W18744  16.322  15.920  13.872  0.1191  0.2443 -0.0763
 2671W        W18745  12.961  10.834   4.987 -0.0044 -0.0687  0.0755
 2672W        W18746  10.999   2.375   1.033 -0.2776  0.1389 -0.0745
 2673W        W18747  14.085  17.283  14.091 -0.0578 -0.2705 -0.1249
 2674W        W18748   6.342  16.788   5.017 -0.1705 -0.0190 -0.1057
 2675W        W18749  11.104  18.011  11.167 -0.0061 -0.2523  0.3783
 2676W        W18750   3.318   1.763  10.021 -0.0138 -0.0931  0.3339
 2677W        W18751  16.547  11.982  13.604 -0.2828  0.0006 -0.0255
 2678W        W18752  18.194  14.639  10.621 -0.0603 -0.3431 -0.3046
 2679W        W18753  13.714  15.115  11.265 -0.0141  0.0074 -0.3248
 2680W        W18754  13.481   7.209   0.278 -0.0814  0.1096 -0.0734
 2681W        W18755   4.239   5.251   0.531  0.1327 -0.1435  0.1357
 2682W        W18756  10.215  18.651  12.816  0.3521 -0.0931 -0.0307
 2683W        W18757   9.383   2.672  13.529 -0.1458  0.0003  0.0608
 2684W        W18758  14.398  14.642   2.980 -0.1832 -0.4254  0.0294
 2685W        W18759  18.588  16.843  12.717  0.0529 -0.2825 -0.1446
 2686W        W18760   0.580  15.699   2.732  0.1780 -0.0539 -0.1238
 2687W        W18761  16.662  10.076   3.986  0.0088  0.3496 -0.3336
 2688W        W18762   4.687  10.409   3.813 -0.1066  0.1452  0.2191
 2689W        W18763   8.715   6.617   0.096 -0.0523  0.2244  0.1300
 2690W        W18764  15.075  17.659   3.901 -0.1020  0.3661  0.3493
 2691W        W18765  17.566  12.685   5.162  0.3356 -0.1261 -0.3459
 2692W        W18766  10.040   2.491   0.555 -0.1000 -0.0505  0.3155
 2693W        W18767   4.813   7.527   3.167  0.0419 -0.2259  0.0296
 2694W        W18768   9.203  11.075  10.793 -0.0153 -0.1666 -0.1489
 2695W        W18769  11.483  13.513   4.351 -0.1324  0.0729 -0.0618
 2696W        W18770   5.340   4.248   1.505 -0.0307  0.0791  0.0005
 2697W        W18771  19.023   9.667  12.162  0.0811 -0.2260 -0.2472
 2698W        W18772  18.112   5.011   5.835 -0.0552  0.0284 -0.0869
 2699W        W18773  19.039   0.175   5.475  0.2571 -0.2102 -0.1666
 2700W        W18774  17.483  11.677   9.986 -0.2219 -0.0381 -0.0463
 2701W        W18775  15.539  10.044   3.330  0.0204  0.2500 -0.1730
 2702W        W18776  11.637   1.371  11.378 -0.1754  0.2546 -0.0659
 2703W        W18777   5.614   5.408  14.369 -0.1314  0.0987 -0.3266
 2704W        W18778  14.869   5.553   3.631  0.0761 -0.0057  0.0744
 2705W        W18779   7.022  13.524  12.534  0.1798  0.3444 -0.1403
 2706W        W18780  16.095  10.569  12.999  0.0311  0.1515  0.1675
 2707W        W18781   8.482  11.641  12.961 -0.0086 -0.0969  0.3666
 2708W        W18782   4.878  16.733   2.930  0.1439 -0.2981  0.0280
 2709W        W18783  14.781   3.846  11.697 -0.2947 -0.1843  0.0620
 2710W        W18784  13.952   6.076   4.382 -0.1025  0.1952  0.3355
 2711W        W18785   6.687  16.391   2.815 -0.1229  0.0163 -0.0427
 2712W        W18786  16.773  18.992  10.758 -0.0772  0.0200  0.3316
 2713W        W18787  17.126   9.882  11.039  0.1981  0.3840  0.0184
 2714W        W18788   4.683  13.495   3.135 -0.3387 -0.1006  0.0917
 2715W        W18789   7.775  17.054  14.351 -0.1003 -0.0869  0.0031
 2716W        W18790  14.292   2.864  13.232  0.0027  0.1219 -0.2486
 2717W        W18791   3.421   4.414   4.198 -0.3647  0.1921 -0.2539
 2718W        W18792  12.955   1.535   3.276 -0.1469  0.0155 -0.0299
 2719W        W18793  16.983  15.438   1.000  0.3533  0.0253  0.1599
 2720W        W18794   1.201   2.899  13.621  0.0272 -0.1439 -0.0938
 2721W        W18795   2.950   3.965  14.118  0.1129 -0.3546  0.0141
 2722W        W18796  19.184  18.062   0.777 -0.0472 -0.0775  0.3323
 2723W        W18797   3.727  10.471   2.227 -0.2305 -0.0135  0.1568
 2724W        W18798   1.653  16.993   0.542 -0.0219 -0.0668 -0.4139
 2725W        W18799   4.512   9.445   3.496 -0.3238 -0.0680 -0.2717
 2726W        W18800   1.429   7.959  12.669 -0.0891 -0.0520  0.3558
 2727W        W18801   5.229  19.076   5.274  0.1737 -0.2269  0.1186
 2728W        W18802  12.048   9.026   4.594 -0.1653 -0.0850  0.2631
 2729W        W18803   7.164   5.252  13.959 -0.2429  0.1640  0.1158
 2730W        W18804   9.617  15.120   1.660 -0.1265 -0.0823 -0.0258
 2731W        W18805   9.336   0.978  11.684 -0.2784  0.0901  0.0457
 2732W        W18806  11.285  18.644   3.494 -0.1682  0.1071 -0.0217
 2733W        W18807   4.119   6.721  13.211  0.2633  0.0076  0.0197
 2734W        W18808  16.035  17.819  14.999 -0.0042  0.1287 -0.1561
 2735W        W18809   2.897  15.128  14.630 -0.0443  0.1145 -0.0252
 2736W        W18810   9.384  13.705   2.687  0.0984  0.4449 -0.1106
 2737W        W18811  12.961  17.011  14.967  0.1106  0.0140  0.0278
 2738W        W18812   3.977  15.490   4.330  0.0980 -0.0057  0.0092
 2739W        W18813  14.012  15.006  12.439 -0.1755  0.1745 -0.0400
 2740W        W18814  19.290  12.875   4.387 -0.3407 -0.2285  0.1771
 2741W        W18815   7.896   6.101   3.570 -0.2393 -0.3899 -0.1777
 2742W        W18816   0.674  17.702  14.307  0.2096 -0.0287  0.0679
 2743W        W18817  15.365   9.619   2.301  0.1701  0.1448  0.1219
 2744W        W18818   8.335  14.014  13.830  0.0986 -0.3122 -0.1691
 2745W        W18819  16.194   8.464   4.732  0.0164 -0.1230  0.1534
 2746W        W18820  13.182   1.656   3.833 -0.2954 -0.1471 -0.3166
 2747W        W18821  17.750  16.590   3.532  0.2227 -0.1144  0.0508
 2748W        W18822  10.608  11.791   3.460 -0.3760  0.0304  0.2247
 2749W        W18823   5.715   1.007   0.063  0.1058 -0.3073  0.2599
 2750W        W18824  16.453  16.336   1.295  0.1117  0.2367 -0.6869
 2751W        W18825   8.827  18.477   0.388 -0.0625 -0.1635 -0.1747
 2752W        W18826   2.114   5.936   0.241 -0.2836  0.1178 -0.0476
 2753W        W18827  17.610   2.315   2.727  0.1497  0.3413  0.1506
 2754W        W18828   2.505  18.445   2.873  0.0806 -0.1810 -0.0988
 2755W        W18829  11.608   6.823  14.677 -0.1695 -0.0822 -0.2712
 2756W        W18830  14.097   2.088   0.289 -0.0633 -0.2654  0.2284
 2757W        W18831   7.162   6.777   3.255 -0.2562 -0.0639 -0.4677
 2758W        W18832   1.824   0.547  14.755 -0.0976  0.1781 -0.0586
 2759W        W18833  10.889  19.161  12.216  0.0492 -0.1102  0.1818
 2760W        W18834   7.414   8.799   0.910 -0.0256  0.2263  0.0489
 2761W        W18835   2.416  13.354   4.092 -0.1144 -0.2582 -0.3231
 2762W        W18836   7.097   7.619   1.596  0.2525  0.1838  0.2210
 2763W        W18837   9.493   1.257  12.738  0.1185 -0.1598 -0.2592
 2764W        W18838  13.373   5.157  14.647 -0.1050 -0.1488 -0.3211
 2765W        W18839  18.187   2.112  11.646 -0.2315  0.0420  0.0164
 2766W        W18840  14.372  10.140   3.056  0.1841  0.1121 -0.0418
 2767W        W18841  14.684   6.300  10.459  0.0951 -0.0311 -0.1952
 2768W        W18842  17.306   3.179   1.797 -0.3113  0.0333 -0.2300
 2769W        W18843  10.633   2.610   3.345  0.3069 -0.0305  0.2236
 2770W        W18844  11.377   6.437   5.819  0.2033  0.3392  0.0617
 2771W        W18845   8.208  10.970  13.511  0.1741 -0.1849  0.0673
 2772W        W18846   2.300  11.177  10.284 -0.2639 -0.6631  0.0389
 2773W        W18847  12.702   1.205  14.864  0.0338  0.0432  0.1139
 2774W        W18848   4.311  11.974   2.506 -0.3908  0.1154  0.1315
 2775W        W18849  13.970  15.264   4.064 -0.0928 -0.0158 -0.4539
 2776W        W18850   1.654   0.873   8.754  0.0710  0.2265 -0.1533
 2777W        W18851  13.182   7.692   1.677 -0.1995 -0.0260  0.0917
 2778W        W18852   4.909  15.332   2.096 -0.2033  0.3287  0.0656
 2779W        W18853  11.721   3.583   1.198  0.2729  0.0149  0.3218
 2780W        W18854  19.207   5.278   0.738 -0.1978  0.1771 -0.1146
 2781W        W18855   8.645   6.132   2.612 -0.4286  0.1018  0.0485
 2782W        W18856  13.036  19.058   5.513  0.2202 -0.0764  0.0914
 2783W        W18857   1.878  10.951  12.648 -0.2571  0.0464 -0.0297
 2784W        W18858   9.685   8.772  13.366 -0.0887  0.1295  0.1873
 2785W        W18859  16.478  17.906  12.807  0.0973  0.1126  0.0613
 2786W        W18860   4.863  10.201   3.369  0.1409 -0.1996 -0.0423
 2787W        W18861   5.943  15.714   1.800  0.1850 -0.0142  0.4315
 2788W        W18862   6.547  12.895   3.052 -0.2015  0.1327  0.2569
 2789W        W18863  18.750   5.817   3.136  0.3376 -0.0714  0.2951
 2790W        W18864   8.929  11.074  13.579 -0.0468  0.0580 -0.0792
 2791W        W18865   0.764   0.052   0.132 -0.1458  0.1538 -0.3085
 2792W        W18866  18.139   2.852  13.520  0.0254  0.1565  0.2497
 2793W        W18867  13.675  16.859  12.354 -0.2022  0.2087  0.2371
 2794W        W18868   0.491  13.194   5.018  0.0932 -0.3334  0.0975
 2795W        W18869   7.709   4.528  14.453  0.1397 -0.3440  0.0117
 2796W        W18870  10.436  17.274   1.176  0.1501  0.1764 -0.0025
 2797W        W18871   7.954  18.465   2.418 -0.2419 -0.1193  0.2295
 2798W        W18872   8.574   9.972  12.726  0.0612  0.2351  0.3875
 2799W        W18873  10.382   5.237   0.831 -0.0348  0.1261  0.0634
 2800W        W18874  13.722  14.212  12.758  0.0872  0.1682 -0.1895
 2801W        W18875   8.159   1.542   9.940 -0.1291 -0.3845 -0.3922
 2802W        W18876   2.905  18.762  10.810  0.2653 -0.3224  0.0059
 2803W        W18877  12.348  18.610   1.330 -0.1255  0.0193 -0.0557
 2804W        W18878  11.431  16.765   9.959  0.1679  0.0327  0.1924
 2805W        W18879   6.295   1.584   4.461 -0.1207 -0.1141 -0.2135
 2806W        W18880   3.241   0.072   1.053 -0.0713 -0.1520  0.1101
 2807W        W18881  17.982   6.987   2.167  0.3020  0.2251  0.0625
 2808W        W18882  14.605  17.180   0.495 -0.3431 -0.0826 -0.1115
 2809W        W18883  14.350   3.818  11.412 -0.0020 -0.0863 -0.3236
 2810W        W18884  17.707   7.717   2.775  0.1716 -0.1114 -0.0068
 2811W        W18885  18.570  16.622  13.195 -0.0517  0.1381 -0.1047
 2812W        W18886   7.303  15.422   0.456 -0.0515 -0.2324 -0.1259
 2813W        W18887   8.137   4.741  11.803 -0.1032  0.3174 -0.5124
 2814W        W18888  12.901   0.318   1.688 -0.1970 -0.1859  0.1369
 2815W        W18889   9.047   6.492  12.651  0.1457 -0.0186 -0.0332
 2816W        W18890  16.738  11.870   1.712  0.0046 -0.1292 -0.0497
 2817W        W18891  16.025  15.101   2.863 -0.2949 -0.0320 -0.2117
 2818W        W18892  14.750  12.748   1.435  0.2548 -0.3450 -0.0793
 2819W        W18893   1.034  10.466   4.580 -0.0232  0.1033  0.0947
 2820W        W18894   1.230   5.444  14.924 -0.1055  0.1149 -0.1414
 2821W        W18895   8.923   6.601  14.603 -0.3993  0.3601  0.0436
 2822W        W18896   7.761   7.896   0.938 -0.0548 -0.4806 -0.1378
 2823W        W18897  15.602   3.717   2.190  0.0386  0.3362  0.0422
 2824W        W18898   5.065  12.135   2.897 -0.2038  0.1887  0.1511
 2825W        W18899   2.712   1.282   4.687 -0.1738  0.0735 -0.0933
 2826W        W18900   6.035   9.712   4.935  0.0605 -0.1117  0.0662
 2827W        W18901   7.972  13.566  10.945 -0.0307  0.3919 -0.1612
 2828W        W18902   0.662   6.336   9.584 -0.3730  0.0965  0.0197
 2829W        W18903   9.004   2.166  13.443 -0.1400  0.3776 -0.0659
 2830W        W18904   0.814   5.695   5.229  0.4894 -0.1820 -0.0233
 2831W        W18905   7.543   4.047  11.932  0.2054  0.0508  0.1303
 2832W        W18906  14.999  14.878   0.125  0.2478 -0.2958  0.3433
 2833W        W18907   0.783   6.933   1.975  0.0314 -0.1168 -0.1332
 2834W        W18908   0.986   9.267  11.774  0.1168 -0.0980  0.1428
 2835W        W18909  10.654   5.600  12.821 -0.0578  0.1104 -0.0754
 2836W        W18910  18.546  18.649   3.258  0.2441  0.2943 -0.0490
 2837W        W18911   5.955  18.884  10.662 -0.2728  0.0144 -0.0080
 2838W        W18912   5.326  16.249   0.128 -0.3512  0.0643  0.2791
 2839W        W18913   3.153   2.003  12.725 -0.1258  0.1112 -0.2755
 2840W        W18914   2.681   1.526  11.360  0.0362 -0.1662 -0.1192
 2841W        W18915   5.692  12.676  12.504  0.1239 -0.2719 -0.0302
 2842W        W18916  13.948  15.336   1.978  0.0780  0.0635 -0.1625
 2843W        W18917   9.245   2.770  11.356 -0.0852 -0.2614 -0.0103
 2844W        W18918  15.003   2.056   2.360  0.6909  0.2481 -0.1181
 2845W        W18919  11.570   2.303  12.482 -0.1224  0.1404  0.0331
 2846W        W18920  17.365   5.875  10.032  0.0933  0.4409 -0.1066
 2847W        W18921   1.490  17.168  14.217  0.0037  0.0621 -0.2556
 2848W        W18922   5.456   5.389   4.472 -0.1053 -0.1410  0.1724
 2849W        W18923  17.497  14.278   4.872  0.5254 -0.0038 -0.1121
 2850W        W18924  13.079  16.144  12.410  0.1664  0.0139 -0.4605
 2851W        W18925  12.601  13.486  10.787 -0.2405 -0.4366 -0.1052
 2852W        W18926  15.005   2.607   0.586  0.2109 -0.0728  0.2308
 2853W        W18927  18.678  18.586   0.917 -0.1652 -0.0529 -0.0921
 2854W        W18928  14.247  17.054  12.365  0.0761  0.2892 -0.0717
 2855W        W18929   1.332   8.408   2.621 -0.1052 -0.0765  0.2206
 2856W        W18930   3.045  18.369   2.848  0.1875  0.2078  0.0349
 2857W        W18931  18.262  18.621   1.684  0.0171  0.0028 -0.2054
 2858W        W18932  16.384  13.815   5.252  0.1704  0.0844 -0.0040
 2859W        W18933  12.245  13.289  14.283  0.0031  0.0104  0.4590
 2860W        W18934   9.780   3.654  12.716 -0.1478 -0.0945 -0.0958
 2861W        W18935   9.317   8.527   9.748 -0.0236 -0.1509  0.0383
 2862W        W18936  12.818  11.517   0.987 -0.2062  0.0360 -0.1207
 2863W        W18937  18.818   7.485   5.934  0.0632 -0.1755 -0.0814
 2864W        W18938   0.558  11.794  12.180  0.2731  0.3173  0.0653
 2865W        W18939  11.672   2.619  13.749 -0.0254 -0.0747 -0.0077
 2866W        W18940  13.800   0.507  11.896  0.2384  0.1136  0.4338
 2867W        W18941  16.809   8.860   0.983  0.3068 -0.0130  0.3477
 2868W        W18942   4.731  10.488   4.761  0.0758 -0.0153 -0.0406
 2869W        W18943  14.470  10.076   4.608 -0.1113 -0.0632 -0.3605
 2870W        W18944   0.578  14.565  13.044  0.1342 -0.0591 -0.1272
 2871W        W18945  18.526  13.509   0.953  0.1585 -0.0880  0.0985
 2872W        W18946   9.117   0.822  12.858 -0.0323  0.2085 -0.4141
 2873W        W18947  17.473   4.316   5.585 -0.0464  0.3666 -0.2530
 2874W        W18948  13.978  12.272   3.859 -0.2952  0.1183 -0.1255
 2875W        W18949   8.078  15.179  13.292 -0.2021  0.1062  0.2029
 2876W        W18950   6.326  14.737   3.118  0.0343 -0.0331  0.3686
 2877W        W18951   4.131   6.873   9.601 -0.0602  0.1190  0.0488
 2878W        W18952   2.594   0.252  13.886 -0.4363 -0.1489  0.2554
 2879W        W18953   7.914   5.499   3.531 -0.0302 -0.0402  0.0460
 2880W        W18954  14.438  17.588  13.343  0.1228 -0.1532 -0.0468
 2881W        W18955   3.025   2.784   1.668 -0.1343  0.1280  0.0334
 2882W        W18956   8.590   6.879   2.378  0.0039  0.0022  0.0574
 2883W        W18957   7.771   7.230  14.956 -0.1804 -0.1654  0.0092
 2884W        W18958  18.050   1.150  11.626  0.1408  0.1871  0.0140
 2885W        W18959   2.790   5.948  12.663  0.0874  0.0362  0.1788
 2886W        W18960   1.612  18.247  13.349  0.0297  0.1073 -0.1624
 2887W        W18961  12.261  18.142   4.147 -0.1057 -0.1802 -0.1942
 2888W        W18962  14.269  17.546   0.759  0.3492  0.0811 -0.0687
 2889W        W18963   7.478  11.828   3.257  0.0402  0.1664 -0.3618
 2890W        W18964  16.501  16.905   9.902  0.0563  0.2220  0.1432
 2891W        W18965   4.500   6.635   3.480  0.1038 -0.0859 -0.1812
 2892W        W18966   7.997  13.536   4.249 -0.1686 -0.1830  0.2810
 2893W        W18967  18.555  10.190  12.852 -0.1429  0.3058  0.0799
 2894W        W18968   5.852  16.157   0.235  0.5875 -0.1091  0.3173
 2895W        W18969  13.729   0.616  10.903  0.1175  0.0505 -0.0690
 2896W        W18970  13.650   2.116  10.576 -0.2998  0.2240  0.1320
 2897W        W18971   7.297  10.476   1.383  0.0773  0.2522 -0.0841
 2898W        W18972   9.832   8.561   2.077 -0.0486 -0.1682 -0.2300
 2899W        W18973  15.654  18.819   2.989  0.0860  0.1687  0.1916
 2900W        W18974  13.123  18.938  13.974 -0.4786  0.1241 -0.1349
 2901W        W18975   8.433   9.712   1.272  0.0580 -0.0235 -0.2015
 2902W        W18976   4.333  16.118  12.505  0.3970 -0.1846  0.0341
 2903W        W18977  14.704   1.437   1.237 -0.2316  0.1426 -0.0588
 2904W        W18978  15.560   5.974  11.937  0.0020  0.0854  0.0290
 2905W        W18979   7.029   5.255  14.585  0.1950 -0.0073  0.1712
 2906W        W18980  19.211  16.771   3.142 -0.2379 -0.1342 -0.1093
 2907W        W18981  14.027  13.684   1.160 -0.1270 -0.1816  0.4927
 2908W        W18982  10.553   7.220   4.050  0.1206  0.1475  0.1183
 2909W        W18983   3.414  14.200  10.963  0.1889  0.0543  0.0053
 2910W        W18984   5.536  17.645  13.133 -0.0209  0.1571 -0.2269
 2911W        W18985  19.001  19.022  11.088 -0.0674  0.4701 -0.2844
 2912W        W18986   4.284   2.701  10.781 -0.0663  0.1538  0.4079
 2913W        W18987   8.128   9.509   0.886  0.5161 -0.0050  0.1812
 2914W        W18988   5.633   8.162   0.910 -0.0903 -0.0545  0.0354
 2915W        W18989  14.288   2.871  12.022  0.0214  0.2493  0.1480
 2916W        W18990  13.335  11.867   5.046 -0.0711  0.1016  0.1014
 2917W        W18991  12.616   4.035   3.444  0.2600  0.1422  0.0077
 2918W        W18992   9.778  11.468   1.576 -0.3999  0.0120 -0.0423
 2919W        W18993  13.972  17.772  10.765 -0.0127  0.0747 -0.0232
 2920W        W18994   4.508   5.892  11.226  0.0810  0.1264  0.1087
 2921W        W18995  15.640   8.164  14.379  0.1328 -0.3779  0.2258
 2922W        W18996   8.662  18.852   5.349 -0.1048 -0.1884  0.1276
 2923W        W18997   0.751  17.985  10.043  0.3797 -0.0722 -0.3831
 2924W        W18998   2.350   7.137  11.508  0.0113  0.1846  0.1299
 2925W        W18999  15.184  14.195  12.802  0.0396 -0.1777  0.1244
 2926W        W19000   6.552   5.193   4.828  0.1021 -0.3758 -0.4364
 2927W        W19001   3.982   6.548  12.055 -0.0988 -0.2295  0.3569
 2928W        W19002  17.461   5.064   5.146 -0.1939  0.4690 -0.1460
 2929W        W19003  10.843   2.203   5.124  0.2793  0.0009 -0.3865
 2930W        W19004  13.510   8.387  13.174 -0.2219 -0.3175 -0.0630
 2931W        W19005  13.946   0.756   2.767  0.2535  0.5435 -0.0109
 2932W        W19006   5.918  14.394   0.907  0.0516  0.2906 -0.2026
 2933W        W19007  18.913   7.248   0.066 -0.1782  0.0686 -0.0863
 2934W        W19008   4.243  10.437   6.019 -0.3080  0.0196  0.0224
 2935W        W19009   9.271   5.698  12.863  0.0490  0.0934  0.0568
 2936W        W19010   3.505  12.502  14.995 -0.2334  0.0672 -0.0741
 2937W        W19011   8.424  10.680   0.168 -0.0049 -0.1353  0.1636
 2938W        W19012   0.434   9.679   1.316  0.1409 -0.0771 -0.1214
 2939W        W19013   7.152  10.664   0.919  0.1003  0.1198  0.2867
 2940W        W19014   1.192  11.882   4.245  0.1076  0.1999 -0.5945
 2941W        W19015   3.878   8.204  12.463  0.0633 -0.1934 -0.1983
 2942W        W19016  16.851  18.480   1.217  0.4962  0.2112 -0.0414
 2943W        W19017   6.989   5.647  10.628 -0.0623 -0.0902  0.0806
 2944W        W19018   2.798  10.528   3.691 -0.0419 -0.7025 -0.0864
 2945W        W19019  14.934   0.676   3.323  0.0315  0.1378  0.1078
 2946W        W19020  16.602   8.036   4.129 -0.1970  0.0709 -0.1430
 2947W        W19021  18.052   0.579  10.891  0.2045  0.0401  0.1965
 2948W        W19022   0.328  11.736   2.647 -0.3206 -0.3002  0.0567
 2949W        W19023  19.289  12.351   2.038 -0.1551  0.2220 -0.0213
 2950W        W19024   0.762  18.524  12.026 -0.0500  0.1291 -0.1668
 2951W        W19025   7.542  17.060   1.744 -0.0187 -0.1671 -0.1935
 2952W        W19026   2.436   8.281  13.489 -0.2109 -0.1320 -0.2266
 2953W        W19027   7.389  17.926   4.748 -0.0160  0.3473 -0.4019
 2954W        W19028   1.677  10.882   2.737 -0.0920  0.0546 -0.0332
 2955W        W19029   0.379  17.309  13.214  0.1602 -0.0970 -0.0322
 2956W        W19030   7.874  18.859  13.636  0.2733  0.0615  0.0322
 2957W        W19031   2.679   5.555  14.859  0.1705 -0.2422  0.2561
 2958W        W19032   4.546   3.993  14.827  0.1130  0.1551 -0.1365
 2959W        W19033   5.493   0.534   3.152  0.1703 -0.0389 -0.3331
 2960W        W19034  11.372   0.167  11.480  0.0791 -0.0747  0.3545
 2961W        W19035   3.143   9.336  14.057  0.0045 -0.3614 -0.3099
 2962W        W19036  10.995   8.515  10.330  0.0323 -0.0326 -0.2362
 2963W        W19037   2.592  13.264   2.944  0.4274 -0.2500 -0.2964
 2964W        W19038  10.742   8.498  12.491 -0.0789  0.2630 -0.4131
 2965W        W19039   3.871   7.255  12.328 -0.5587  0.0148 -0.3537
 2966W        W19040  10.662   2.704  11.412 -0.1486 -0.0706 -0.0680
 2967W        W19041   6.156   4.072  14.401  0.0092  0.0150  0.0466
 2968W        W19042  16.095   2.323   3.954 -0.0493 -0.0464 -0.0760
 2969W        W19043  15.057  11.957   4.868  0.2266 -0.0741  0.2022
 2970W        W19044   0.087   6.753  13.950 -0.0458  0.0579  0.0361
 2971W        W19045  13.844  13.345   3.596  0.2857  0.1891 -0.1994
 2972W        W19046   5.125  18.090  11.882  0.2187  0.3718 -0.0821
 2973W        W19047  11.877   6.040  14.851  0.1030 -0.0555 -0.2471
 2974W        W19048  17.706  17.841   4.834  0.0291 -0.1348  0.0572
 2975W        W19049   4.753   9.458  13.273 -0.1905  0.2812 -0.4014
 2976W        W19050   2.851   2.458   4.007  0.0450  0.1127 -0.0295
 2977W        W19051   0.896   2.808   4.526  0.6311  0.0027 -0.2595
 2978W        W19052   0.949  18.726  12.913 -0.0824  0.0010 -0.1606
 2979W        W19053  12.957   3.206   2.977 -0.0208 -0.0868  0.3945
 2980W        W19054  14.834   4.283   1.185  0.2301  0.0154  0.0509
 2981W        W19055   3.440  18.213  14.817 -0.1756 -0.0429 -0.0940
 2982W        W19056   3.641   2.070  14.957 -0.2317 -0.0712  0.1665
 2983W        W19057   7.097   7.317  14.403 -0.1416  0.0385  0.2707
 2984W        W19058  17.282   2.583   5.757 -0.0849 -0.0002  0.1178
 2985W        W19059   7.369  15.355   0.961  0.2746  0.0245 -0.0638
 2986W        W19060  17.518  17.058  12.922 -0.0626  0.2822  0.3070
 2987W        W19061   0.203  14.392  10.903 -0.0917 -0.0589 -0.2129
 2988W        W19062  18.801  16.200  10.809  0.0916  0.1184  0.1022
 2989W        W19063  18.570  13.716  12.912  0.0970 -0.0150  0.2106
 2990W        W19064   9.807  10.001  10.334  0.1596 -0.1197 -0.0205
 2991W        W19065   7.789  10.839   4.224 -0.0629 -0.3149  0.0269
 2992W        W19066   4.340  17.378   2.160  0.2584  0.0565  0.0848
 2993W        W19067   0.719  11.710  11.093 -0.0943 -0.3095 -0.0247
 2994W        W19068   5.654  18.481   1.965 -0.0819  0.1894 -0.1480
 2995W        W19069   8.611   3.385   9.560  0.0122  0.1518 -0.2480
 2996W        W19070  15.472  11.364  13.608  0.3006 -0.0664  0.2933
 2997W        W19071   6.816   9.706  12.910 -0.2981 -0.0338  0.0379
 2998W        W19072   6.604   4.866  11.351  0.0393  0.0528  0.0141
 2999W        W19073  18.593  14.370   4.973  0.0321 -0.0895 -0.2783
 3000W        W19074  18.478  10.967   0.760 -0.0779  0.0634 -0.1332
 3001W        W19075   3.408   8.739   0.865  0.0981 -0.1991 -0.0614
 3002W        W19076   5.265  13.524  14.524  0.1516  0.0536 -0.1816
 3003W        W19077   0.962   4.899  10.093  0.0410 -0.0987 -0.0699
 3004W        W19078   8.699   0.421  10.373  0.2177 -0.1476  0.1211
 3005W        W19079  18.699   2.551   0.126  0.0546 -0.3177  0.0953
 3006W        W19080  13.137   8.080   1.293 -0.0783  0.2461  0.4873
 3007W        W19081   0.821  16.009   3.060  0.2285 -0.0021 -0.0593
 3008W        W19082   6.382   5.446   0.612 -0.0713 -0.1282  0.2005
 3009W        W19083  14.748  14.866   1.100  0.0092  0.0760 -0.0306
 3010W        W19084  15.523   5.964   0.339 -0.2216  0.3753 -0.3171
 3011W        W19085   6.440   9.136   4.346 -0.5432 -0.1220 -0.0125
 3012W        W19086   5.942   0.057   0.162 -0.1666  0.1348  0.1464
 3013W        W19087  14.631   0.176   3.584  0.4226 -0.0468  0.0525
 3014W        W19088  16.933   5.250   0.790  0.1456  0.0354  0.1992
 3015W        W19089   2.873   9.469   3.593  0.0092  0.1068 -0.0116
 3016W        W19090   9.895  16.864   2.180 -0.3273  0.1176  0.3727
 3017W        W19091  16.187  13.020   4.797 -0.0134 -0.1632 -0.0232
 3018W        W19092  13.397   3.402  11.002  0.4802 -0.0338 -0.1844
 3019W        W19093  18.575   6.917  12.281  0.0359  0.3173  0.0432
 3020W        W19094   1.475   4.353  12.256 -0.2810  0.0717 -0.0193
 3021W        W19095   8.257  13.600  13.554 -0.1725  0.1897  0.0514
 3022W        W19096  13.094  19.054  11.964 -0.1629  0.0953 -0.1624
 3023W        W19097   9.084  17.076   1.947 -0.1141  0.0241 -0.0508
 3024W        W19098  17.917  14.027   4.497  0.0368 -0.0638 -0.0900
 3025W        W19099  14.378  10.941  11.272 -0.1489  0.2452  0.1596
 3026W        W19100   4.689   7.267   1.161  0.0988  0.0136 -0.0602
 3027W        W19101  18.146  19.175   5.214 -0.2636  0.2900  0.2509
 3028W        W19102   7.956  10.047  14.113  0.0665  0.1482  0.0481
 3029W        W19103   7.815   9.216  13.958 -0.1854  0.1406 -0.1153
 3030W        W19104   1.449  15.707  14.818 -0.2145  0.0549 -0.3889
 3031W        W19105  13.173  10.000   9.343 -0.2297 -0.1784  0.2162
 3032W        W19106   7.322   1.906  14.362  0.1182 -0.2495 -0.0154
 3033W        W19107  16.816   5.739  10.722  0.2440  0.1424 -0.0938
 3034W        W19108  11.259  17.416   5.113  0.0536  0.2901 -0.1632
 3035W        W19109   7.249  14.716   3.380  0.0740 -0.1684  0.0498
 3036W        W19110   1.454   5.040  10.301 -0.1605  0.3175  0.1332
 3037W        W19111  18.192  13.751  11.760  0.0102 -0.3875 -0.1187
 3038W        W19112  18.403  19.209   0.378 -0.0945 -0.0185 -0.1520
 3039W        W19113   0.517   9.595  11.509 -0.1129 -0.1081 -0.2923
 3040W        W19114   4.380   6.471   2.555 -0.3244  0.1066  0.1164
 3041W        W19115   5.660   9.140   1.200 -0.0443  0.0226 -0.3421
 3042W        W19116   6.824  10.187  11.721 -0.0462  0.2326 -0.2047
 3043W        W19117   6.881   1.875  11.924 -0.2111  0.0412  0.1639
 3044W        W19118   8.002  14.050  12.425  0.2337 -0.2135 -0.0384
 3045W        W19119   9.975   2.035  12.956 -0.0085 -0.4259  0.1318
 3046W        W19120  15.177   0.288   3.559 -0.5318  0.0625 -0.0343
 3047W        W19121   3.139   5.844  11.045  0.1267 -0.1234 -0.4282
 3048W        W19122  12.639   8.402   4.383  0.0082 -0.0437 -0.3411
 3049W        W19123  15.065   5.828  14.132 -0.0547 -0.1007 -0.1812
 3050W        W19124  15.505  18.560   2.563 -0.0973 -0.0796  0.0861
 3051W        W19125   8.537   4.267   3.597 -0.3202 -0.1833 -0.1486
 3052W        W19126   9.110   3.791  14.311  0.2904 -0.2976 -0.0419
 3053W        W19127   9.144   1.832  12.940  0.0518  0.1140 -0.1348
 3054W        W19128  12.528   3.505   1.217 -0.1214 -0.0731 -0.0434
 3055W        W19129  17.451  11.152  14.200  0.2547  0.0890 -0.0715
 3056W        W19130   1.700   5.571   0.022  0.3444 -0.1915  0.0630
 3057W        W19131  17.512   6.879   0.748  0.2646  0.4137 -0.2503
 3058W        W19132  17.362  18.920  11.263  0.3798 -0.0381  0.2388
 3059W        W19133   4.902  14.404  11.396  0.4381 -0.1315  0.0098
 3060W        W19134   2.839  18.684   0.370  0.2058  0.2062 -0.2670
 3061W        W19135  14.550   8.154   1.972  0.1016  0.4196  0.1240
 3062W        W19136  13.703   0.277   3.670 -0.2197 -0.0763 -0.1968
 3063W        W19137   4.504   1.707  13.289  0.1348 -0.1920  0.0627
 3064W        W19138   0.630   1.573   2.327  0.1539  0.0288 -0.2260
 3065W        W19139   7.233   4.581  12.758  0.0301  0.2311  0.0092
 3066W        W19140   0.156  17.755   0.506 -0.0833  0.0553 -0.0399
 3067W        W19141  10.650  14.365  10.056 -0.0065 -0.1682 -0.0176
 3068W        W19142  16.011   7.406   2.869 -0.2464  0.1120  0.1102
 3069W        W19143  18.077  11.841   1.146 -0.2026 -0.0862  0.1064
 3070W        W19144   7.066  13.002   3.200  0.0943 -0.1104 -0.1219
 3071W        W19145  15.826  16.523  10.598 -0.0749  0.0537 -0.2095
 3072W        W19146   7.383  19.150   4.109 -0.2357 -0.0298 -0.2633
 3073W        W19147  12.003  16.027  14.659 -0.3257  0.1151  0.1856
 3074W        W19148   1.383   9.566   6.142 -0.0473 -0.0103  0.2844
 3075W        W19149   2.266  19.244   1.951 -0.1208  0.1306  0.0810
 3076W        W19150   0.225   6.770   2.020 -0.1847  0.4820  0.2205
 3077W        W19151   7.232   8.725  11.828 -0.1582  0.0948  0.3342
 3078W        W19152  16.690   7.134  11.348  0.2998  0.0088 -0.0163
 3079W        W19153  13.153  17.342   4.407 -0.2357  0.0023  0.1639
 3080W        W19154  15.611   5.045  14.041  0.0257 -0.0532  0.3205
 3081W        W19155   9.468  18.489  12.124 -0.2199 -0.0597 -0.1415
 3082W        W19156  12.581   2.154  14.533  0.6288  0.3276 -0.0444
 3083W        W19157   8.608  16.488   1.314 -0.0229 -0.0082 -0.0467
 3084W        W19158   7.102   4.804  13.704  0.2914 -0.0695 -0.0195
 3085W        W19159   0.018  17.572   0.992 -0.0147 -0.1191 -0.0362
 3086W        W19160  14.859   1.301  14.342  0.1186 -0.0516  0.1646
 3087W        W19161   1.048  18.356  10.987 -0.0960  0.0336 -0.0855
 3088W        W19162   5.930  13.713  10.649  0.0496 -0.0735 -0.0220
 3089W        W19163   8.253  11.997   2.252  0.1536 -0.1290 -0.0144
 3090W        W19164   8.731   0.079   2.880 -0.0136 -0.0967 -0.0484
 3091W        W19165   3.295   4.625  10.906 -0.3679 -0.3450  0.1937
 3092W        W19166  10.335   6.181   3.988 -0.0985 -0.3439  0.1763
 3093W        W19167  15.984  10.150   3.199 -0.2114 -0.4157 -0.0511
 3094W        W19168  12.942  17.674  14.465  0.0060  0.1422  0.2338
 3095W        W19169   0.780  13.791  12.852  0.2957 -0.2024 -0.1109
 3096W        W19170  10.166   9.662  11.123 -0.1089 -0.0332 -0.1346
 3097W        W19171  18.886   6.457   5.893  0.2287  0.3726 -0.1629
 3098W        W19172   1.963  11.068   0.840 -0.3358  0.3144 -0.0641
 3099W        W19173   6.685  19.231  13.394 -0.2870 -0.1621  0.0694
 3100W        W19174  12.102  18.969   0.945 -0.0693 -0.2094 -0.2726
 3101W        W19175   8.928   9.737   1.343 -0.4261 -0.0715  0.2159
 3102W        W19176   5.520   1.119   3.400  0.5088 -0.0881  0.4359
 3103W        W19177  10.876  13.607   3.918  0.2303  0.2470 -0.2549
 3104W        W19178  11.589  18.410   3.098 -0.0462 -0.3741 -0.2148
 3105W        W19179  11.330  11.264  10.181 -0.2557 -0.0449  0.1353
 3106W        W19180   1.406  12.757   4.336 -0.1212 -0.4256 -0.1592
 3107W        W19181   9.403   8.741  14.200 -0.0958 -0.1418 -0.1731
 3108W        W19182   6.199  16.433   2.847  0.2088  0.1084  0.1545
 3109W        W19183   8.764  15.774  13.319  0.1924  0.2137 -0.0074
 3110W        W19184  17.558  16.820  10.780  0.1205  0.1248  0.0248
 3111W        W19185  13.899  14.235   4.274  0.1833 -0.3288  0.0604
 3112W        W19186   0.118   9.948  11.315 -0.0935 -0.2502  0.0716
 3113W        W19187  12.956   0.811   4.315  0.3300  0.1485 -0.1332
 3114W        W19188   2.212  12.691  12.031  0.1062 -0.0782  0.0178
 3115W        W19189  11.997   2.938   5.601  0.1820  0.0114 -0.2272
 3116W        W19190   1.123   4.092  10.051 -0.1039  0.2065 -0.0618
 3117W        W19191   5.119   3.399   0.787  0.2777 -0.2386 -0.0325
 3118W        W19192  12.533   7.174   5.067  0.0970  0.0401  0.2684
 3119W        W19193   6.699   5.848   4.540  0.2108  0.0219  0.0609
 3120W        W19194  12.745  12.480   1.932 -0.1473 -0.0974 -0.1457
 3121W        W19195   5.574   3.707  11.211 -0.1588 -0.0766 -0.1272
 3122W        W19196   8.952  19.020  13.158 -0.1281  0.3155 -0.3621
 3123W        W19197  15.264   4.339   1.992 -0.0422 -0.2781 -0.0443
 3124W        W19198   3.643  10.298  12.674  0.0933  0.2850 -0.0121
 3125W        W19199  13.013  10.534  10.924  0.1905 -0.2482  0.0071
 3126W        W19200  11.606   1.486  14.114 -0.0443  0.0094 -0.2197
 3127W        W19201   4.224   8.972   9.673 -0.0035 -0.0798  0.0497
 3128W        W19202   2.631   5.459  13.960  0.0392  0.2864  0.4287
 3129W        W19203   2.800  15.187   1.569  0.0122  0.1208  0.2214
 3130W        W19204   6.457   1.377  12.104  0.1536 -0.0714  0.0128
 3131W        W19205  11.872  13.209  11.619 -0.1679  0.0776 -0.5115
 3132W        W19206   5.474   6.851   4.227  0.1676 -0.3280 -0.0494
 3133W        W19207  18.000  14.152   0.781  0.3040  0.0732 -0.0640
 3134W        W19208   2.919   3.170   4.568  0.1668  0.0710  0.0852
 3135W        W19209  18.602   6.883   0.025  0.0816 -0.0352  0.2867
 3136W        W19210   3.197   9.100   2.944  0.2272 -0.2273 -0.0613
 3137W        W19211  11.702  14.394  14.843  0.2657  0.0527  0.0691
 3138W        W19212   8.410   8.606   4.177  0.2731 -0.0271 -0.1946
 3139W        W19213  13.934   7.583  11.945  0.2317 -0.1288  0.0545
 3140W        W19214   8.860   5.349  14.989 -0.0489 -0.2639 -0.0869
 3141W        W19215  12.548   8.348   3.293  0.0127 -0.6051  0.1489
 3142W        W19216   5.181   4.178   2.977 -0.0403 -0.2343 -0.0028
 3143W        W19217  18.415  11.155  11.228  0.1531  0.3454  0.1702
 3144W        W19218  14.467   3.814   3.324  0.0054 -0.1885  0.0632
 3145W        W19219  17.334  16.922   3.705 -0.1792  0.1178 -0.3192
 3146W        W19220   3.151  13.262   4.197  0.0729  0.0349 -0.2977
 3147W        W19221   4.567   3.099   2.044  0.0086  0.1183 -0.0280
 3148W        W19222   3.472  11.013   4.282 -0.0622 -0.0401  0.1615
 3149W        W19223  10.925  15.691   3.129 -0.3174  0.3331  0.3385
 3150W        W19224   5.454   2.377   0.371  0.2144 -0.1557 -0.0246
 3151W        W19225   3.347   7.083  11.808  0.0671 -0.1492 -0.2297
 3152W        W19226  15.496   2.975  13.925  0.3869 -0.1338  0.1218
 3153W        W19227   4.743  12.079   1.040  0.2053 -0.1705 -0.0706
 3154W        W19228   9.119  15.622  13.690 -0.2567 -0.2075  0.2778
 3155W        W19229   9.105   3.181   4.269 -0.0286 -0.2055  0.2709
 3156W        W19230   3.278   6.997   1.740 -0.0957  0.0816 -0.4319
 3157W        W19231  13.104   8.867  10.936 -0.3492  0.1396 -0.1946
 3158W        W19232  15.466   8.363   5.160  0.2490 -0.0372 -0.0820
 3159W        W19233  19.321   5.596  11.441 -0.0242 -0.1994 -0.0160
 3160W        W19234   3.727   2.844  12.562  0.2718 -0.1201 -0.1825
 3161W        W19235   4.489  18.328   2.348 -0.2186 -0.1980 -0.1147
 3162W        W19236   5.567   3.257   1.992  0.3685  0.1572  0.3363
 3163W        W19237   9.177  16.029  10.487 -0.2573  0.1419 -0.3941
 3164W        W19238  13.367  12.772  12.906 -0.1672 -0.0536  0.0442
 3165W        W19239  14.244   9.088  11.418  0.2851  0.1490 -0.1761
 3166W        W19240   7.346   9.359   0.161 -0.1962 -0.0519  0.1010
 3167W        W19241  10.999   8.799   4.808 -0.3919  0.1450 -0.1399
 3168W        W19242  10.369   3.667   0.920  0.4844  0.0483 -0.0314
 3169W        W19243   9.708   8.435   1.604 -0.1513  0.2846 -0.0068
 3170W        W19244   5.931  10.383   2.323 -0.0366 -0.0967 -0.2204
 3171W        W19245   9.669   1.234   1.874 -0.2388  0.3085  0.0536
 3172W        W19246   7.545  16.874  10.240  0.2217  0.2380 -0.1498
 3173W        W19247   7.628   3.652   0.606  0.1731  0.1137 -0.2626
 3174W        W19248  18.210   4.529  12.359  0.1515 -0.1103 -0.1070
 3175W        W19249   0.909  16.948  11.618 -0.0504  0.0464  0.0074
 3176W        W19250  13.657  13.521  11.919 -0.1263  0.1529 -0.2919
 3177W        W19251   9.470  15.340   4.447 -0.3294 -0.4211 -0.2491
 3178W        W19252   3.657   6.651   0.225 -0.1481  0.0028 -0.0172
 3179W        W19253   1.776  19.262   1.717  0.2120  0.0854  0.4229
 3180W        W19254   6.461   3.403  12.378 -0.4537 -0.2505 -0.5188
 3181W        W19255  10.899   5.654  11.199 -0.1858 -0.1519 -0.0657
 3182W        W19256   4.497   4.037   1.379 -0.0074 -0.1206 -0.2722
 3183W        W19257  15.913   5.328  11.273  0.0140  0.0166 -0.1971
 3184W        W19258   2.445  16.647  13.429 -0.1921 -0.0531  0.1983
 3185W        W19259  15.136  10.397   2.740  0.0066 -0.0307  0.2348
 3186W        W19260  16.749  16.783   5.245 -0.2826  0.1322 -0.3801
 3187W        W19261   4.782  16.985   0.265  0.0190 -0.0077  0.2138
 3188W        W19262   5.331   5.140  13.976 -0.1070 -0.2057 -0.1272
 3189W        W19263   9.040   9.684  11.155  0.3655 -0.1322 -0.0559
 3190W        W19264   4.384  18.303  12.987  0.1258  0.5527  0.0885
 3191W        W19265   7.364   0.187  13.702  0.2112 -0.2579  0.1135
 3192W        W19266  13.372   2.266  14.665  0.3965 -0.0804  0.3110
 3193W        W19267   9.232  10.530   5.150  0.1581  0.1091  0.1106
 3194W        W19268  10.357  13.084  12.061  0.0822  0.0517 -0.0943
 3195W        W19269   7.065  11.627   1.302 -0.2544 -0.1718  0.0560
 3196W        W19270   2.801   6.981  14.000  0.1962  0.2475  0.3126
 3197W        W19271   7.363   7.532   2.894  0.0967  0.1675  0.0640
 3198W        W19272  15.276   7.132   2.333 -0.0721 -0.1125  0.0292
 3199W        W19273  15.078   8.783   2.223  0.1333 -0.1633 -0.0637
 3200W        W19274  13.447   5.407  13.993 -0.0539 -0.2113 -0.0162
 3201W        W19275  14.691   0.700   1.372  0.1001 -0.1006 -0.1901
 3202W        W19276   3.604   0.502  10.456  0.0981  0.0398 -0.1944
 3203W        W19277  12.605   7.469   0.137  0.1801 -0.0812 -0.0049
 3204W        W19278  17.460  10.258   4.481 -0.0461  0.0177 -0.0418
 3205W        W19279  16.566  18.710   0.146 -0.1107  0.0403 -0.0181
 3206W        W19280  16.617   6.629   2.492  0.0494 -0.0112 -0.4386
 3207W        W19281  12.861  17.222  14.540 -0.0239  0.1578 -0.3851
 3208W        W19282   0.644  17.538   0.261 -0.0737 -0.1164 -0.2231
 3209W        W19283  12.293   1.919   0.594  0.0370 -0.1236  0.0191
 3210W        W19284  10.571  17.444   1.832  0.0241  0.1473 -0.0374
 3211W        W19285   5.967  16.471   1.400  0.0499 -0.2315  0.3737
 3212W        W19286  18.831   4.479   1.204  0.0265  0.0601 -0.0182
 3213W        W19287  13.947   3.191  12.275  0.0601 -0.1435 -0.0251
 3214W        W19288   9.643   0.742  12.859  0.0171  0.2168 -0.1834
 3215W        W19289  12.183   7.454  10.485  0.0350  0.1248  0.0177
 3216W        W19290   1.237   9.759   3.859  0.0885 -0.2187  0.3883
 3217W        W19291   9.800  18.788  12.344  0.2175  0.1074  0.0365
 3218W        W19292   3.323  18.064   1.143 -0.0204  0.1016  0.1313
 3219W        W19293   9.357   4.141  13.967 -0.0767 -0.1153 -0.0027
 3220W        W19294  16.038  12.940  10.900  0.1079 -0.2004  0.0681
 3221W        W19295  15.364   1.611  13.716 -0.0155  0.1858 -0.2560
 3222W        W19296   7.786  19.302  13.780 -0.4057 -0.1292 -0.0469
 3223W        W19297  11.436   1.635   1.413  0.0547 -0.1537  0.2033
 3224W        W19298   4.548  15.671   3.783  0.5355 -0.2844 -0.1629
 3225W        W19299   4.968  16.743  14.241 -0.0499  0.1608  0.0861
 3226W        W19300   5.807   5.991  11.012 -0.1493 -0.3548  0.0973
 3227W        W19301   6.228   2.629  11.192  0.0315 -0.0714  0.2490
 3228W        W19302  10.380   1.064   1.832 -0.2544 -0.2407  0.1628
 3229W        W19303  17.120   2.315   1.105  0.0145  0.1396  0.1357
 3230W        W19304   0.967   8.096  12.955 -0.0475 -0.0249  0.4985
 3231W        W19305  19.111  12.347  14.656 -0.0101  0.0934 -0.1464
 3232W        W19306   7.931   8.563  11.312  0.0396  0.1398 -0.1406
 3233W        W19307   7.973  15.962  13.960  0.2994 -0.1184 -0.1116
 3234W        W19308   7.736   2.544   5.437  0.0539  0.4375  0.1350
 3235W        W19309  13.995   5.993  12.908  0.1112 -0.0559  0.0827
 3236W        W19310  11.584   5.844   1.879 -0.1511  0.0605  0.2965
 3237W        W19311   4.961  16.796   2.078  0.0370 -0.1579  0.4216
 3238W        W19312   9.081  11.845   0.887 -0.2062  0.0721 -0.1410
 3239W        W19313   2.624   2.839  13.319 -0.0598 -0.1598 -0.1262
 3240W        W19314   2.791   4.587   0.644 -0.1556  0.2875  0.0514
 3241W        W19315  14.287  15.448  14.067  0.1481  0.0411  0.0632
 3242W        W19316  11.911   4.112  14.121 -0.0221 -0.1124  0.0751
 3243W        W19317   6.403   0.777  10.144 -0.0032 -0.3235 -0.1764
 3244W        W19318  19.164  16.558  10.869 -0.1265  0.2634  0.0277
 3245W        W19319   3.526   0.935   2.248  0.4193  0.2475  0.0147
 3246W        W19320   0.453  16.095   1.311 -0.1159 -0.0857 -0.0414
 3247W        W19321  11.100  15.376   1.810 -0.1960  0.0420  0.4589
 3248W        W19322   3.194   4.091  14.886 -0.2718  0.0065 -0.2799
 3249W        W19323  15.801  12.480  14.013  0.0894  0.1234 -0.0642
 3250W        W19324   8.137   9.449   1.969 -0.0034 -0.0289 -0.2104
 3251W        W19325  11.076   0.813   5.433  0.0897  0.0037  0.3958
 3252W        W19326  13.894   8.439   0.960  0.1855  0.5549 -0.3127
 3253W        W19327   1.120   7.188   5.228  0.0338 -0.3596 -0.1008
 3254W        W19328  12.712  12.505   4.869 -0.2298 -0.1848  0.0493
 3255W        W19329   1.089  12.345  14.556  0.0609  0.5693 -0.1407
 3256W        W19330   3.477  18.548  14.484 -0.0804 -0.2402 -0.0623
 3257W        W19331  11.771   2.011   1.536 -0.0665  0.1925 -0.0940
 3258W        W19332  13.425  16.039  12.801  0.1141 -0.1625  0.0478
 3259W        W19333  18.433   0.437  14.103 -0.3122 -0.0079 -0.1804
 3260W        W19334  11.748  11.416   0.402  0.2097  0.3044  0.1500
 3261W        W19335   1.204   3.541  12.493 -0.0987  0.0086 -0.1439
 3262W        W19336  16.430  14.589  10.662 -0.0533 -0.3584 -0.1436
 3263W        W19337  15.320   2.263  13.233  0.0024 -0.1519  0.1281
 3264W        W19338   1.022   5.145  12.437 -0.0273 -0.3107  0.2424
 3265W        W19339   9.547   7.212  14.680 -0.0644 -0.0220  0.2336
 3266W        W19340  17.172   0.405   5.413  0.0634  0.1222  0.0969
 3267W        W19341  10.156   9.584  12.071 -0.1361  0.1785 -0.4606
 3268W        W19342   1.866   6.451  11.507  0.3030  0.3401  0.0545
 3269W        W19343   7.165   6.611   0.876 -0.1727  0.2681 -0.2026
 3270W        W19344   3.342  16.527   3.997 -0.1850 -0.0751  0.1930
 3271W        W19345   1.608  18.397   4.521 -0.1428  0.0836  0.0434
 3272W        W19346  14.405  14.253   4.393  0.1439 -0.0600  0.2846
 3273W        W19347  18.478   3.158   1.356 -0.2552  0.2435  0.2605
 3274W        W19348   8.971   1.231  11.215 -0.0339  0.1868  0.0298
 3275W        W19349   1.271   7.777  13.137  0.0816 -0.0975 -0.2090
 3276W        W19350   7.661   5.676  13.918  0.0032 -0.0475  0.4131
 3277W        W19351   8.287  16.087  13.552 -0.2192 -0.1863  0.0548
 3278W        W19352   9.777   2.991   5.548 -0.2734 -0.0527  0.1903
 3279W        W19353   1.734  16.042   3.346  0.0086  0.2355  0.0693
 3280W        W19354  10.420   5.116   1.370 -0.0542 -0.2421  0.0875
 3281W        W19355   3.380   7.382   5.747 -0.2451 -0.0651 -0.0289
 3282W        W19356   2.148   0.805   0.184  0.3984 -0.1401 -0.0510
 3283W        W19357   8.403   1.219  13.099 -0.1419 -0.0237  0.0379
 3284W        W19358  16.527  11.418   5.318 -0.0134  0.2152  0.2072
 3285W        W19359   9.323   8.863   3.463 -0.0012  0.1406 -0.2969
 3286W        W19360   7.106  18.101   3.530 -0.0715 -0.2263  0.1803
 3287W        W19361  10.440  10.886   8.943  0.1491  0.2122 -0.1484
 3288W        W19362   0.807   6.537   4.038  0.0016 -0.0998 -0.0650
 3289W        W19363  14.786   9.882  14.740  0.1238 -0.1680 -0.0474
 3290W        W19364   1.731   3.098  14.988 -0.0288  0.2166 -0.0866
 3291W        W19365   5.319   4.251  14.857 -0.0048 -0.0089 -0.2608
 3292W        W19366  15.382  17.742  13.704 -0.2035  0.0996  0.5043
 3293W        W19367  11.250   1.481   0.651  0.3051 -0.1259 -0.1453
 3294W        W19368   2.153  15.582  11.816  0.3553 -0.4265 -0.2281
 3295W        W19369   4.964   0.389  12.301  0.1296  0.0943  0.0223
 3296W        W19370   7.689   3.507   2.832  0.3346  0.1409 -0.3102
 3297W        W19371   5.672   3.345   3.109  0.2158 -0.1321  0.3035
 3298W        W19372   0.554   4.300   4.092 -0.6466 -0.0214  0.0439
 3299W        W19373   6.268   5.275  11.505  0.2805 -0.0060 -0.3099
 3300W        W19374  14.309   3.112   5.225 -0.0134  0.0390 -0.0848
 3301W        W19375   6.769  16.368  10.805 -0.3178  0.0932 -0.0359
 3302W        W19376   1.253  12.230  13.620  0.1920  0.0853 -0.1137
 3303W        W19377   3.645  14.108  10.220  0.2777 -0.0968 -0.1130
 3304W        W19378  12.242  16.385   0.725 -0.0583  0.1136  0.3518
 3305W        W19379  17.678   0.275   2.633  0.3501  0.2246  0.0979
 3306W        W19380   0.077  14.269   4.262 -0.2629  0.2278 -0.0555
 3307W        W19381   6.503  16.826  13.880 -0.1405  0.0981  0.2676
 3308W        W19382  15.447  18.005   2.421  0.0549  0.2330  0.2144
 3309W        W19383   2.227  12.411   2.948 -0.0171  0.0799  0.0004
 3310W        W19384   9.348  15.301  12.669  0.0397 -0.0502 -0.1044
 3311W        W19385   9.769   3.636   4.418 -0.3580  0.1544  0.0988
 3312W        W19386   1.133  14.524  11.407  0.0588  0.1534 -0.0407
 3313W        W19387  17.023  14.129   2.545 -0.0769 -0.0891  0.0318
 3314W        W19388  14.642  17.489  14.322  0.0558  0.3380 -0.0394
 3315W        W19389   8.707  18.186   2.472 -0.0197 -0.1692 -0.0433
 3316W        W19390  13.220  13.158   0.750  0.2756 -0.2633 -0.1152
 3317W        W19391  10.580   9.925   2.865 -0.0197  0.2859 -0.0125
 3318W        W19392  15.749   9.916   2.158 -0.0410  0.1092 -0.0509
 3319W        W19393   2.459  16.067  10.501  0.0762  0.2545 -0.1680
 3320W        W19394  11.287  18.371   4.027 -0.1862 -0.1449  0.0013
 3321W        W19395   4.232   2.410   4.535  0.1716 -0.0002  0.1763
 3322W        W19396   6.400   6.791  14.660  0.1546 -0.0628  0.1907
 3323W        W19397   9.719  16.098  10.486  0.1925  0.2453 -0.2631
 3324W        W19398  15.506  11.748  14.957 -0.1835  0.3886  0.0631
 3325W        W19399   7.710   9.209  12.013 -0.0225  0.0062 -0.2839
 3326W        W19400   7.936  19.062  11.659  0.2603  0.3358 -0.1874
 3327W        W19401   8.385   0.220   4.106 -0.3029 -0.1094  0.2473
 3328W        W19402  18.408   2.650   3.571  0.1586  0.1141 -0.2023
 3329W        W19403  15.494   8.246  11.569  0.1716  0.0972 -0.0171
 3330W        W19404   1.109  11.731   5.346  0.2100  0.2498  0.0601
 3331W        W19405  15.123  14.466   2.635 -0.0630 -0.0212 -0.1593
 3332W        W19406   5.749  16.199  13.061 -0.0743  0.2651 -0.2315
 3333W        W19407  19.314  11.804  13.057 -0.0741  0.2960 -0.1140
 3334W        W19408   6.150   9.845  10.871  0.1807 -0.1600 -0.1865
 3335W        W19409   6.945   8.943   2.053  0.1907 -0.0403 -0.2036
 3336W        W19410  18.850   4.778   1.985  0.0185  0.1278  0.0713
 3337W        W19411  11.254  14.703  10.967 -0.1868  0.2855 -0.0180
 3338W        W19412  14.008  11.245   3.087  0.2839  0.0761 -0.0545
 3339W        W19413  17.565  18.937  13.190  0.1863 -0.3166 -0.1255
 3340W        W19414   2.407  11.103  14.094 -0.1579 -0.0362 -0.0860
 3341W        W19415   5.530  12.654  14.404  0.1700  0.0427  0.1626
 3342W        W19416  15.560  17.812   4.054  0.1128  0.0138  0.1604
 3343W        W19417  19.171  18.064   3.044 -0.0455  0.0809  0.0951
 3344W        W19418  13.819  12.832   4.271 -0.1988 -0.0878  0.2914
 3345W        W19419  12.356  16.894  14.990  0.0296 -0.1784  0.1678
 3346W        W19420   2.992  10.237   1.018  0.1705  0.2049  0.2133
 3347W        W19421  11.458   1.564   2.303 -0.0995 -0.2828 -0.0028
 3348W        W19422  13.565  11.134  11.364 -0.2788  0.0690  0.0441
 3349W        W19423  16.686   0.619   4.443  0.3634  0.0604  0.2008
 3350W        W19424   9.962  14.135  11.111  0.0822  0.0959  0.3908
 3351W        W19425   0.955   9.504  12.305 -0.1789  0.0473  0.0035
 3352W        W19426   7.417  13.375   1.484 -0.1049  0.0162  0.0028
 3353W        W19427  13.384   9.017  13.831 -0.1164  0.0574  0.2489
 3354W        W19428  18.874   7.030  14.472 -0.2537  0.0037 -0.0455
 3355W        W19429  14.272   6.384  12.556  0.3850  0.1662 -0.1782
 3356W        W19430  16.997   9.163  11.779 -0.3274  0.3624  0.0532
 3357W        W19431   2.748  12.174   4.479 -0.1488 -0.1623  0.1187
 3358W        W19432  15.402   5.848  13.142 -0.1584  0.2735 -0.0346
 3359W        W19433  15.680  18.684   5.228  0.0858 -0.4536  0.0549
 3360W        W19434   1.238   8.313  14.925  0.2394  0.1620 -0.0615
 3361W        W19435   7.603  10.284  10.511 -0.0599  0.0179  0.0535
 3362W        W19436   6.825   5.660   2.726  0.0904 -0.0485 -0.3103
 3363W        W19437   2.379  11.652   4.986 -0.3289 -0.0054 -0.1702
 3364W        W19438  17.386  14.524  13.679  0.1644  0.1071 -0.0284
 3365W        W19439   9.626   6.169   3.680  0.1224 -0.1951 -0.6338
 3366W        W19440   5.418   4.915  14.627 -0.1912  0.0966  0.0508
 3367W        W19441  13.771   7.238  14.221  0.0680 -0.1350 -0.1073
 3368W        W19442   3.793  14.134   3.787 -0.3573  0.4194 -0.0951
 3369W        W19443  11.494  12.643  14.679  0.1370  0.1590 -0.2373
 3370W        W19444   6.949   8.648   0.756  0.0309  0.1416  0.2211
 3371W        W19445  19.309   7.183  13.672 -0.2753  0.1384  0.1071
 3372W        W19446   1.217   7.063  10.149  0.2950  0.1396 -0.1682
 3373W        W19447  18.630   9.561   4.718  0.2905  0.3475  0.0906
 3374W        W19448   2.460   4.134   3.567  0.1048  0.3323  0.0049
 3375W        W19449  15.427  13.104   2.314  0.0048 -0.1952  0.0186
 3376W        W19450   0.661   2.719  12.387  0.0393 -0.1114  0.0728
 3377W        W19451  16.077   3.712  14.200  0.3671  0.5400  0.1867
 3378W        W19452   3.379   0.218  11.979 -0.0813 -0.2437  0.0360
 3379W        W19453   1.161  11.380   0.097  0.2107  0.1022 -0.0194
 3380W        W19454  11.526   0.715   3.441  0.0501 -0.2974  0.2537
 3381W        W19455  11.581  10.226   1.107  0.2326 -0.0347  0.0506
 3382W        W19456   7.589  19.187   4.587  0.2625 -0.0593  0.2502
 3383W        W19457   5.674  11.097  12.752  0.3409 -0.1825 -0.2028
 3384W        W19458   9.627  17.366  13.417  0.0781  0.1933 -0.0518
 3385W        W19459  18.960   1.462  13.921 -0.2271  0.2335 -0.3378
 3386W        W19460  12.661  12.638  14.845  0.0322 -0.2210  0.0683
 3387W        W19461  10.606  15.065  14.829 -0.3253 -0.2275 -0.2391
 3388W        W19462  11.590   5.003   1.561 -0.0358 -0.1168 -0.0038
 3389W        W19463  13.108  15.881  12.011  0.3094 -0.2706 -0.2251
 3390W        W19464   9.242  19.039   3.847  0.2457  0.1616  0.2395
 3391W        W19465  11.725  13.342  13.091 -0.2424  0.1215  0.1328
 3392W        W19466   3.721  13.910  13.819  0.3057 -0.0224  0.0302
 3393W        W19467  10.229   2.455  13.808  0.2405  0.2211 -0.3499
 3394W        W19468   3.842  11.522  11.151  0.2882 -0.0945  0.0829
 3395W        W19469  18.402  15.153   3.931 -0.0719  0.3303  0.0639
 3396W        W19470  16.252   6.617   1.248  0.1888 -0.0346 -0.0366
 3397W        W19471   2.517  14.003   5.279  0.0586 -0.1347  0.0032
 3398W        W19472   5.082  16.784   0.698  0.0602 -0.0624  0.0227
 3399W        W19473   3.707  18.757   0.740  0.1181 -0.0534 -0.0955
 3400W        W19474  16.204  14.531   0.375  0.0798  0.0989  0.1320
 3401W        W19475  11.277  13.264  13.344  0.0119  0.3378  0.2489
 3402W        W19476   3.628   0.859   0.181  0.0787 -0.2150 -0.1220
 3403W        W19477  10.940   2.891  12.269  0.1583  0.1295  0.2093
 3404W        W19478   6.050   7.695   1.940  0.2950  0.1359  0.2434
 3405W        W19479  18.532   5.599  14.951  0.0338 -0.1447 -0.1929
 3406W        W19480   0.500   4.261   0.156  0.0457 -0.3097 -0.1193
 3407W        W19481   5.693  13.233   3.868 -0.0435 -0.0340  0.1789
 3408W        W19482   3.521  15.455   3.164  0.0864 -0.1421 -0.0072
 3409W        W19483   9.212   9.266   1.326 -0.0374 -0.1559 -0.0454
 3410W        W19484  13.522   5.633  13.553  0.1310  0.1666 -0.2165
 3411W        W19485   8.262  15.790   4.305  0.0982  0.2497 -0.2105
 3412W        W19486   3.499  14.899   3.304 -0.0492 -0.0777  0.0474
 3413W        W19487  15.809  13.209   3.124  0.0266  0.2116 -0.2649
 3414W        W19488  14.084  13.374  10.998  0.1496  0.0516  0.1250
 3415W        W19489  15.375  16.784   0.814 -0.1008  0.1400  0.0608
 3416W        W19490   9.989   9.761   1.108  0.2631 -0.1836  0.1668
 3417W        W19491   1.037  12.702  13.544 -0.2581 -0.0701 -0.0076
 3418W        W19492   9.483  13.048   4.399  0.0731 -0.0718  0.0477
 3419W        W19493  16.682  15.684   9.897  0.1033  0.3832 -0.2651
 3420W        W19494   9.697   2.896  11.493  0.0498  0.1896 -0.2519
 3421W        W19495   3.088  16.537  12.215 -0.2111 -0.0586  0.0716
 3422W        W19496   6.041   3.015  11.695 -0.2203  0.0584  0.4122
 3423W        W19497  10.646   4.606   1.473  0.0530  0.1605 -0.0214
 3424W        W19498   7.359   6.976   2.851 -0.0236  0.1351  0.2504
 3425W        W19499  11.663  14.989  13.641  0.1651  0.2122  0.0208
 3426W        W19500   6.259  16.624  14.299 -0.1274  0.0504 -0.2760
 3427W        W19501  10.648   4.805  14.266 -0.2271 -0.0115  0.0229
 3428W        W19502  10.484  15.200   9.918  0.1152  0.2183 -0.1950
 3429W        W19503  18.142   2.473  13.782 -0.1470 -0.0293 -0.0289
 3430W        W19504  10.571  16.195   9.879  0.0203 -0.0362  0.1610
 3431W        W19505   9.558  18.506   2.727 -0.1618 -0.1460  0.2731
 3432W        W19506   1.901  12.410  14.566 -0.1020 -0.1985  0.0649
 3433W        W19507   8.468   8.259   1.548  0.1020  0.0143  0.0752
 3434W        W19508  10.434  19.173   3.966  0.2400 -0.0145 -0.2533
 3435W        W19509   3.544   6.029  13.869  0.3173  0.3781  0.4558
 3436W        W19510   3.780   7.882   4.561  0.2090 -0.1025  0.0217
 3437W        W19511   7.946  13.746   4.762  0.2734 -0.0771  0.0401
 3438W        W19512  12.259  18.025  10.663  0.1240  0.0295 -0.0311
 3439W        W19513  13.775   2.507  10.844 -0.0605  0.0770  0.2750
 3440W        W19514   6.710   2.430  14.766 -0.3233  0.1795  0.3373
 3441W        W19515  17.813   3.052   0.755  0.1949 -0.1356  0.0680
 3442W        W19516  15.605   6.175  10.879  0.3185 -0.2538 -0.3526
 3443W        W19517  10.942   1.427   3.600  0.0648 -0.2682  0.0570
 3444W        W19518  12.075  12.100   1.155  0.0475 -0.1028  0.2397
 3445W        W19519  10.396  10.742  10.697 -0.2802 -0.0899  0.1769
 3446W        W19520   6.284  12.838  13.682  0.3027 -0.0285 -0.1600
 3447W        W19521  14.388  10.272  13.291  0.2883  0.0235 -0.2489
 3448W        W19522   4.640   4.570  14.735  0.3045 -0.2575  0.2739
 3449W        W19523  10.638  17.273  14.088 -0.2857 -0.2269 -0.0806
 3450W        W19524  14.866  13.986  14.164 -0.2462 -0.0875  0.1108
 3451W        W19525   3.716  18.229   3.126 -0.3855  0.1347 -0.0950
 3452W        W19526   3.593  17.700   1.348  0.0165  0.2696 -0.5284
 3453W        W19527   1.258  10.298   5.554  0.2749 -0.3526 -0.0009
 3454W        W19528  15.590   6.111  13.555  0.2438 -0.0937  0.1436
 3455W        W19529   7.305  12.034  13.625  0.0708 -0.0088 -0.0543
 3456W        W19530  11.269   5.594  10.693  0.0387 -0.1777  0.0388
 3457W        W19531   0.458   6.712  14.419  0.2828 -0.1181  0.0029
 3458W        W19532  18.626   5.691   2.664 -0.0192 -0.0456  0.1227
 3459W        W19533   1.622   5.535   1.112  0.0048  0.2111 -0.0520
 3460W        W19534  18.865   9.956  12.536  0.2173  0.2441 -0.1565
 3461W        W19535  17.193  18.978  13.780  0.2442 -0.3192  0.2217
 3462W        W19536   0.173   3.663  11.435  0.1766  0.2149  0.1538
 3463W        W19537   3.056  14.177   2.659 -0.3613 -0.1508 -0.0871
 3464W        W19538  15.009  16.782  13.199  0.1015 -0.1096 -0.0441
 3465W        W19539   3.202   7.276  13.066 -0.0470 -0.1089  0.0029
 3466W        W19540  16.883   1.116   1.521 -0.0136  0.1481  0.1020
 3467W        W19541   5.640  14.923   2.795  0.4107 -0.2761 -0.2637
 3468W        W19542  15.642   7.054   1.944 -0.0862 -0.0346  0.0492
 3469W        W19543  10.093  11.328  12.755 -0.0259  0.4889  0.0043
 3470W        W19544  13.854   4.561  11.173 -0.2992 -0.1412  0.0782
 3471W        W19545   6.824   0.670  14.298 -0.0654 -0.1013  0.2685
 3472W        W19546  12.926   5.601  12.817 -0.2246 -0.4555 -0.0974
 3473W        W19547  10.808   4.057  10.366  0.2476  0.1193 -0.0452
 3474W        W19548   0.812   1.816  11.417 -0.0912 -0.5344 -0.0538
 3475W        W19549   1.387   3.141   3.152 -0.1353  0.2674 -0.0762
 3476W        W19550   5.277  12.150   0.884 -0.1248 -0.1172  0.3300
 3477W        W19551  11.933  19.325   1.380  0.1573 -0.2940 -0.2677
 3478W        W19552   1.939  16.030  11.163 -0.2974 -0.1702  0.3491
 3479W        W19553   9.685  13.020  12.884 -0.2171 -0.0598 -0.0819
 3480W        W19554   8.784  16.176  11.751 -0.3498  0.1301 -0.2853
 3481W        W19555  18.959   2.526   5.310  0.1314 -0.1094 -0.1210
 3482W        W19556   5.891  16.241   2.539  0.0144  0.0340  0.1350
 3483W        W19557   4.042   0.193  10.724  0.1635 -0.1257 -0.1382
 3484W        W19558   4.472   4.494   5.169 -0.0903  0.3917 -0.3052
 3485W        W19559   5.281   4.162  14.155  0.0790  0.3313 -0.2410
 3486W        W19560  10.311  11.155  14.773 -0.5644  0.2940 -0.0447
 3487W        W19561   3.784   9.603   2.384 -0.0546 -0.1250  0.3034
 3488W        W19562   4.844  16.319   2.062 -0.1532 -0.2576 -0.1724
 3489W        W19563   7.089  10.915   3.387  0.3044  0.1353  0.1815
 3490W        W19564   4.573  18.981  12.360  0.0056 -0.2809  0.1827
 3491W        W19565  12.458  15.605   3.701 -0.0464 -0.1089  0.1445
 3492W        W19566   0.058  13.842   0.496  0.2271  0.0720 -0.1007
 3493W        W19567  14.247   0.747  10.707  0.0186 -0.0534 -0.1483
 3494W        W19568   0.467   2.664   2.971 -0.0653  0.2527 -0.1184
 3495W        W19569   1.233  10.857   4.796 -0.0620 -0.0913  0.1328
 3496W        W19570   1.938  10.734  10.708  0.0493 -0.3243  0.2457
 3497W        W19571  16.966  13.882  12.308 -0.0105  0.0398  0.1849
 3498W        W19572  17.084  13.849   4.253 -0.0282  0.0638  0.0913
 3499W        W19573   1.823   6.970  11.566 -0.0001 -0.3187 -0.0172
 3500W        W19574  12.095  16.015  11.848  0.1207 -0.0539  0.1437
 3501W        W19575   8.106  14.042  10.996  0.0193 -0.1607 -0.0438
 3502W        W19576   2.980  14.919   3.859 -0.0485  0.4294 -0.1124
 3503W        W19577   8.701   1.999  11.792  0.0457  0.0271  0.0525
 3504W        W19578   4.979   1.200   3.557 -0.3686  0.2584  0.1098
 3505W        W19579  10.466  12.074  13.777  0.2488 -0.0272  0.0239
 3506W        W19580  12.369  15.556   1.155  0.1424  0.1326  0.3981
 3507W        W19581   6.061   4.447   4.473 -0.1040  0.1478 -0.0902
 3508W        W19582  12.254  13.113  14.792 -0.3941 -0.1944 -0.1215
 3509W        W19583   8.904  11.212  14.680 -0.2236  0.0456  0.5198
 3510W        W19584   8.007  16.074   3.957  0.2921 -0.3350 -0.2214
 3511W        W19585  12.791   7.301   0.852 -0.0778  0.3943  0.1363
 3512W        W19586  15.600  10.562  13.088  0.3023 -0.2663  0.2200
 3513W        W19587   2.559  13.880   4.714 -0.3467 -0.0349 -0.1461
 3514W        W19588  16.168  16.695   4.505 -0.1154 -0.3608  0.0371
 3515W        W19589   0.737   1.112   4.715  0.0045  0.3445 -0.2028
 3516W        W19590   7.327  15.779  13.296  0.0692  0.1416 -0.0582
 3517W        W19591   6.193  10.135  12.194  0.0245 -0.1011 -0.0229
 3518W        W19592   8.538   9.025   3.923 -0.0834 -0.1512 -0.0063
 3519W        W19593  15.574   6.005   4.801 -0.2212 -0.2265 -0.0458
 3520W        W19594  11.993   2.357   3.757  0.3203 -0.1002  0.1232
 3521W        W19595  13.822  11.175  10.115 -0.0184  0.0374  0.2612
 3522W        W19596   3.655   6.037   1.836 -0.1185 -0.0637 -0.0671
 3523W        W19597   6.879   6.950  12.829  0.2774 -0.1559 -0.3362
 3524W        W19598  16.203  16.494  11.940  0.0762  0.0343 -0.0325
 3525W        W19599   6.986   1.176  14.661 -0.0993  0.1614 -0.0402
 3526W        W19600   5.144  15.117   2.528  0.0278 -0.2896 -0.3871
 3527W        W19601  18.020   8.753   0.601 -0.0451 -0.1913  0.3100
 3528W        W19602   1.570  13.667   5.477  0.2204 -0.1189 -0.0152
 3529W        W19603  17.503   5.439  12.779 -0.1500 -0.2265  0.0919
 3530W        W19604   9.130  11.755   4.967  0.0540 -0.2046  0.1428
 3531W        W19605  18.965  13.768   0.856 -0.3177 -0.1852  0.3697
 3532W        W19606  18.384  13.426  12.089 -0.2377 -0.0220  0.0579
 3533W        W19607  13.379   2.084  11.322  0.0682  0.1624  0.0836
 3534W        W19608   8.001  13.193  11.300 -0.3060  0.3979  0.1961
 3535W        W19609   6.043   1.975   1.971 -0.0078  0.2253 -0.2001
 3536W        W19610   6.570  12.023  10.584 -0.0350 -0.0511  0.2086
 3537W        W19611   3.796   2.650   1.776  0.3232  0.1515 -0.1732
 3538W        W19612  14.985  18.590  11.344 -0.0173 -0.4114 -0.2804
 3539W        W19613  18.028  16.543  13.170  0.2768  0.0971  0.0908
 3540W        W19614   2.332   3.090  14.505 -0.1265  0.3540  0.1953
 3541W        W19615   3.894   5.923   3.115 -0.0599  0.2133  0.0748
 3542W        W19616   6.339  11.464  10.533  0.1063 -0.0725  0.2051
 3543W        W19617  14.909  17.409   4.314 -0.0416  0.0781 -0.0170
 3544W        W19618   3.504   6.418  12.448 -0.2096 -0.2145  0.3072
 3545W        W19619   9.741   1.757  13.691 -0.3797 -0.0173  0.1559
 3546W        W19620  15.167   8.595   5.599 -0.2984  0.0611  0.0865
 3547W        W19621   8.408  11.051  12.653  0.0079 -0.0009 -0.1813
 3548W        W19622   3.293  16.314   4.641 -0.0353  0.0424  0.1758
 3549W        W19623  16.615   2.463   4.922  0.3865  0.3166  0.2810
 3550W        W19624  14.930  18.636  14.631  0.4340  0.0974  0.0772
 3551W        W19625   7.946   2.322   1.768 -0.1440 -0.2562 -0.3072
 3552W        W19626   8.647   2.840  11.314  0.1706  0.1133  0.1497
 3553W        W19627   7.963  10.753  11.052 -0.4136 -0.1316  0.3950
 3554W        W19628   1.539   9.307   3.190  0.2102  0.1356 -0.0497
 3555W        W19629  18.339  16.853  14.695  0.2047 -0.1486  0.5453
 3556W        W19630  10.978  16.473   9.973  0.0641  0.0856 -0.0204
 3557W        W19631  16.904   3.104   1.152  0.0698  0.0313  0.0155
 3558W        W19632   9.082   8.240   4.755  0.0627  0.1813  0.3012
 3559W        W19633   2.445   4.958   1.578  0.2299  0.0306 -0.3139
 3560W        W19634  10.748   0.133   0.633  0.0427  0.2536 -0.1688
 3561W        W19635  17.774   1.209  13.532 -0.1104 -0.1427  0.0570
 3562W        W19636  13.322   9.828   0.697  0.3350 -0.1241 -0.3312
 3563W        W19637  11.343   5.803  14.847 -0.2876  0.0863 -0.3253
 3564W        W19638  15.529   0.205  13.057 -0.2632  0.0291  0.0135
 3565W        W19639   8.258   0.855   5.677 -0.1274 -0.0047 -0.1707
 3566W        W19640   4.667   9.951  13.918  0.1043 -0.0883 -0.1121
 3567W        W19641   8.627  13.374  12.206 -0.0960  0.1152  0.3157
 3568W        W19642  12.190   9.587   1.420 -0.1185  0.1730 -0.0788
 3569W        W19643  17.093   6.705  13.257 -0.3843 -0.1942 -0.1114
 3570W        W19644  18.077   4.434   4.768  0.1247  0.1549 -0.0901
 3571W        W19645   7.429  10.976   3.746  0.0817  0.1699  0.0586
 3572W        W19646   0.767   6.487   2.954  0.1236  0.0792 -0.1358
 3573W        W19647  13.271   0.923   1.961 -0.1896  0.0849 -0.1077
 3574W        W19648   8.776  10.559  12.940 -0.3382  0.2156  0.2612
 3575W        W19649  13.157   4.843   3.261 -0.4115 -0.4791 -0.2363
 3576W        W19650  13.008   2.023   3.584  0.1706  0.0971  0.0407
 3577W        W19651  18.388  16.601  10.314 -0.1243 -0.0707  0.3304
 3578W        W19652  11.975  18.665   4.960  0.0331  0.2291 -0.1562
 3579W        W19653  13.100  11.877   0.590 -0.3548 -0.0113  0.2934
 3580W        W19654   5.313  12.910  12.896  0.0818  0.0067  0.0736
 3581W        W19655  10.971  13.029  14.732  0.1356  0.0169  0.3349
 3582W        W19656  10.024   9.312   0.793 -0.1588  0.0201 -0.1962
 3583W        W19657  14.081  15.041  11.622 -0.4454 -0.0348 -0.0857
 3584W        W19658  15.283   4.827   2.056  0.0076  0.1756  0.0164
 3585W        W19659   5.409  11.808  12.401 -0.1996 -0.0902  0.0155
 3586W        W19660  15.014   3.766   5.271  0.1420 -0.1242 -0.2465
 3587W        W19661  18.959   0.596   4.503 -0.0044 -0.0772 -0.1652
 3588W        W19662  14.724  14.830   2.599  0.1502  0.3582  0.2828
 3589W        W19663   6.342   0.922  12.527  0.0093 -0.1725  0.6486
 3590W        W19664  10.394  11.665  11.374  0.3293 -0.0157  0.1202
 3591W        W19665   5.709   9.040  11.693 -0.0353  0.0242  0.0558
 3592W        W19666  11.070  13.749   1.056  0.0229 -0.0417  0.1159
 3593W        W19667   2.838  16.752  14.372  0.0385  0.1338  0.0809
 3594W        W19668   3.441  15.096   2.420  0.1215  0.0293  0.2519
 3595W        W19669  11.031   6.870   9.550 -0.0877  0.0818 -0.2760
 3596W        W19670  14.608   1.976   1.219 -0.0788  0.2340  0.2833
 3597W        W19671   7.621   5.640   1.660  0.2937 -0.0461  0.0251
 3598W        W19672  13.110  13.425   2.265  0.1038  0.3578 -0.0696
 3599W        W19673  17.691   8.121   3.891 -0.0379 -0.0731  0.6529
 3600W        W19674  15.628   2.476   1.870 -0.2317 -0.3319  0.2277
 3601W        W19675  15.762   2.787   2.225  0.1330 -0.1388  0.1763
 3602W        W19676  11.029  15.484   0.943 -0.1309  0.3424 -0.0926
 3603W        W19677   3.528   3.596  10.547 -0.2862 -0.2816 -0.2190
 3604W        W19678  11.080   3.201  12.827 -0.0886  0.1366  0.0702
 3605W        W19679  16.182  11.712  12.128  0.0821 -0.3450  0.1289
 3606W        W19680  10.374  15.516  14.762 -0.0560 -0.1194 -0.0439
 3607W        W19681  14.401  13.608  12.963  0.1500 -0.2393 -0.0544
 3608W        W19682  18.755   0.039   0.006  0.2792 -0.0617  0.1111
 3609W        W19683  12.980  17.752  12.880 -0.0850 -0.1815  0.1042
 3610W        W19684  10.376   5.603  12.027  0.0556 -0.1582 -0.2379
 3611W        W19685   7.975   0.812   2.769 -0.0966 -0.1556  0.1152
 3612W        W19686   1.547  11.796   0.167 -0.0523  0.0844 -0.4631
 3613W        W19687   6.844   6.724  11.157  0.5503 -0.1968  0.1908
 3614W        W19688  12.319   8.560   1.641  0.1152  0.1913 -0.1807
 3615W        W19689   7.466   3.041   4.321 -0.0108 -0.0473  0.1815
 3616W        W19690   2.469   8.287   5.218  0.0521 -0.3282  0.0390
 3617W        W19691  11.245  17.398   3.564 -0.1499  0.1329  0.0614
 3618W        W19692  17.630  11.211   3.648 -0.2639  0.0297  0.2803
 3619W        W19693  18.514   2.657   1.459 -0.0055 -0.1514 -0.0320
 3620W        W19694  11.647  13.000  10.579  0.0218 -0.0419  0.0285
 3621W        W19695   4.543   8.437   4.548  0.0797 -0.0720  0.1119
 3622W        W19696   8.533   3.492  12.645  0.1610 -0.0054  0.0070
 3623W        W19697  16.097  17.675   4.841  0.1386 -0.0129 -0.0554
 3624W        W19698   3.649  17.991   2.280  0.0188  0.2403  0.5692
 3625W        W19699   8.449  10.367  10.327 -0.1236 -0.2682  0.1948
 3626W        W19700  12.899  17.269   1.383 -0.2427  0.1655  0.0595
 3627W        W19701   3.460  18.393  10.347 -0.3205 -0.0933 -0.1259
 3628W        W19702   5.861  14.296   0.055  0.1301  0.0119  0.2012
 3629W        W19703  15.758   2.398  14.630 -0.1430 -0.0164  0.0769
 3630W        W19704   8.373  10.648  10.791 -0.2895 -0.0789 -0.1226
 3631W        W19705  18.782   8.769   4.603 -0.0550  0.2017 -0.0822
 3632W        W19706  18.229  18.795   3.664  0.1296  0.1716  0.1228
 3633W        W19707  17.152   5.216   9.845 -0.0471  0.0921  0.1476
 3634W        W19708  13.405  15.371  11.920 -0.0809  0.0461  0.2934
 3635W        W19709  15.271   4.135  13.218  0.3978  0.0117  0.0721
 3636W        W19710  19.236   7.816   5.573  0.0832 -0.0360  0.1517
 3637W        W19711   5.968   0.580  13.756  0.2204  0.1713 -0.2836
 3638W        W19712  19.139  14.775  13.568 -0.1443 -0.0143 -0.0805
 3639W        W19713  11.026  18.166  12.615  0.4923  0.0455 -0.0030
 3640W        W19714  17.531  17.557   0.421  0.0401 -0.1224  0.2499
 3641W        W19715   0.666   8.225  14.831 -0.3062  0.0100  0.3034
 3642W        W19716   8.087  10.332  11.958 -0.1463  0.2124 -0.2771
 3643W        W19717   7.511   8.571  10.616 -0.0957 -0.0057  0.1113
 3644W        W19718   1.552  12.001  14.623 -0.2671 -0.0526  0.0400
 3645W        W19719  13.965  14.353  14.941 -0.2324 -0.3003  0.1492
 3646W        W19720   3.327   8.018  12.009 -0.1389  0.3994  0.1508
 3647W        W19721  10.218  10.792   4.376  0.1013  0.1704  0.0302
 3648W        W19722   8.627  14.625   4.692  0.3789  0.1760 -0.5002
 3649W        W19723   3.847   9.103   5.347  0.0174 -0.0900  0.0746
 3650W        W19724  11.701  12.601   9.386  0.0654 -0.2463  0.0393
 3651W        W19725   3.768   4.323  11.750  0.0232 -0.0967  0.0197
 3652W        W19726   2.260   5.910   0.745 -0.1380  0.0007 -0.1766
 3653W        W19727   0.654  12.743   3.145 -0.0005 -0.0961  0.0043
 3654W        W19728  18.178   7.775  13.974 -0.1792 -0.2167 -0.2795
 3655W        W19729  17.075  18.154  11.215  0.3590 -0.0412  0.1677
 3656W        W19730  16.847   0.329  14.441 -0.0971 -0.1125  0.4991
 3657W        W19731   5.276  17.871   1.067  0.2937  0.1607 -0.0139
 3658W        W19732   2.333   7.632  11.536  0.2283  0.0064  0.3663
 3659W        W19733  17.180   6.674   3.506 -0.0423 -0.1885  0.2653
 3660W        W19734   1.339   3.343  14.481 -0.1237  0.1525 -0.3086
 3661W        W19735  18.814  13.859  13.767 -0.0197 -0.0860  0.2740
 3662W        W19736  15.469  14.296   3.398 -0.2799  0.0996  0.1416
 3663W        W19737   2.768   2.163   0.355  0.2145 -0.1403  0.2809
 3664W        W19738   0.455   4.399   3.295 -0.1961  0.1866 -0.0895
 3665W        W19739  17.861   6.939   0.201  0.0780 -0.2154 -0.1607
 3666W        W19740   0.897   0.111  14.577  0.3108 -0.1620  0.3307
 3667W        W19741  18.615   2.838  10.084 -0.1172 -0.0832  0.1905
 3668W        W19742  19.061   6.026   2.628  0.1175  0.0232  0.0193
 3669W        W19743   7.881  15.735  10.693 -0.1545 -0.2916  0.0494
 3670W        W19744   4.665  13.685  14.653  0.0573 -0.0943  0.0713
 3671W        W19745  10.805  14.118  14.805 -0.0243 -0.1012  0.0026
 3672W        W19746  10.949   0.215  11.205  0.0373 -0.0961 -0.0936
 3673W        W19747   9.159   5.204   0.434  0.0528 -0.0276  0.3685
 3674W        W19748   3.020  17.655   3.484  0.1775  0.0173 -0.0518
 3675W        W19749  12.283   4.572   4.303  0.0468  0.5671  0.0597
 3676W        W19750  15.829  17.260   1.310  0.3949  0.1977 -0.1499
 3677W        W19751  12.910  12.663   3.997 -0.1557  0.0594  0.0638
 3678W        W19752   5.529  14.152   4.045 -0.0263 -0.2531 -0.0193
 3679W        W19753   4.262  11.334   4.962 -0.0606  0.0421 -0.0440
 3680W        W19754  16.431  15.982  11.133 -0.0084  0.0881  0.1418
 3681W        W19755   8.003   8.839  14.671  0.1118 -0.1040 -0.1016
 3682W        W19756  13.513   7.965  11.985 -0.0064  0.1342  0.2828
 3683W        W19757  12.145   5.379   3.442  0.3705 -0.1902  0.3018
 3684W        W19758   7.055   0.289  14.106  0.0516  0.2226  0.1529
 3685W        W19759   6.465   3.655  11.202  0.4311  0.0729 -0.2975
 3686W        W19760   2.157   4.666  11.263  0.1607 -0.0813 -0.0709
 3687W        W19761  16.624   6.330  12.961 -0.1251  0.0160 -0.1188
 3688W        W19762  12.530  12.727   1.486 -0.2864  0.2199 -0.1208
 3689W        W19763  12.751  14.281   0.692 -0.1487  0.0421 -0.3906
 3690W        W19764  16.344  12.782   1.792  0.1170 -0.4440 -0.0680
 3691W        W19765  15.461   7.379   0.103 -0.2953 -0.3980  0.0632
 3692W        W19766   9.627   6.752   3.360  0.1302 -0.1651 -0.1396
 3693W        W19767  11.397   4.862   4.556 -0.0858 -0.1936  0.2150
 3694W        W19768   8.702   5.887  13.805  0.1143  0.1191 -0.3015
 3695W        W19769  18.716  15.349  13.434 -0.0349  0.0806  0.0015
 3696W        W19770  15.877   3.456   6.315 -0.3005 -0.1981 -0.0835
 3697W        W19771   4.647   4.174  11.798  0.2016 -0.2143 -0.3392
 3698W        W19772  19.307  10.284  10.901 -0.1445  0.2463 -0.1063
 3699W        W19773   1.035  19.280  11.016 -0.2477  0.1169 -0.0166
 3700W        W19774   6.846  17.768  11.743  0.0589  0.0731 -0.3603
 3701W        W19775  18.086  13.636  10.791 -0.2891 -0.3373 -0.1853
 3702W        W19776   2.057   6.841   5.484 -0.1137 -0.0023  0.0792
 3703W        W19777  14.146   2.225  10.690  0.2620  0.3132  0.1453
 3704W        W19778   0.463   9.325   3.543  0.0965  0.1778 -0.0840
 3705W        W19779  16.832   1.358  13.623  0.3483 -0.0205 -0.0751
 3706W        W19780   0.539  16.333   5.347 -0.0451  0.0050  0.2321
 3707W        W19781   3.549  16.489  11.934  0.1722  0.1254  0.4526
 3708W        W19782  13.289   1.447   0.346 -0.1015 -0.0138  0.2548
 3709W        W19783   4.884   4.263   2.403 -0.0915 -0.2240  0.2261
 3710W        W19784   5.116   1.382  14.584 -0.1521  0.2906 -0.0495
 3711W        W19785   9.831   9.798   1.914 -0.0112  0.1327  0.1371
 3712W        W19786  16.787  18.892   0.539 -0.1434  0.3369 -0.0702
 3713W        W19787   5.388   5.073   0.153  0.2660 -0.0934 -0.3105
 3714W        W19788   9.630  11.841   4.930 -0.0406 -0.1905 -0.0961
 3715W        W19789   8.482  14.045  14.759  0.1751 -0.0262 -0.1885
 3716W        W19790   3.501  11.661   0.530 -0.0342 -0.2724  0.0729
 3717W        W19791  13.950  12.605   1.973 -0.0716 -0.1572  0.1471
 3718W        W19792  10.106  12.799  10.171  0.0066 -0.2070  0.2131
 3719W        W19793   3.158  17.359   2.606  0.0715  0.1194  0.0247
 3720W        W19794  14.988   3.781   0.148  0.5299 -0.1852 -0.0180
 3721W        W19795  15.472   3.796   4.649  0.0331 -0.0497  0.1582
 3722W        W19796  17.256   2.256   5.333  0.2806 -0.4847 -0.3740
 3723W        W19797   3.256  11.628   5.930 -0.1048  0.1475 -0.0028
 3724W        W19798   5.493  16.465  12.002  0.4353  0.0373  0.0656
 3725W        W19799  19.049  16.398   1.901 -0.4220 -0.0064 -0.0148
 3726W        W19800  18.219  18.282   2.063  0.1327  0.1215  0.0284
 3727W        W19801   6.328   2.362   1.812  0.0695  0.1239  0.0297
 3728W        W19802   3.189  16.783  11.818  0.1984  0.3098  0.0402
 3729W        W19803  10.745   4.880   5.459 -0.2735 -0.3106 -0.0620
 3730W        W19804   7.294   4.156   2.412 -0.0134  0.1709  0.4398
 3731W        W19805  10.466   6.807   2.220 -0.0729 -0.2253 -0.1253
 3732W        W19806  11.970   7.487   2.352  0.0430 -0.2850  0.3338
 3733W        W19807  18.036  14.163   1.303 -0.0919  0.2229 -0.2029
 3734W        W19808  13.514   2.017   1.364  0.0686  0.1416  0.5319
 3735W        W19809   5.267   2.280  11.099  0.5106 -0.1032  0.1417
 3736W        W19810  12.774   3.363   0.719 -0.2877  0.2162 -0.2044
 3737W        W19811  10.604   6.639  11.257  0.0717 -0.2249 -0.2250
 3738W        W19812   0.429  10.377  14.941  0.2204  0.1992 -0.4115
 3739W        W19813  13.748   4.361   3.151 -0.1692  0.0754  0.0686
 3740W        W19814   5.596   0.434  14.174  0.1796 -0.0610 -0.3621
 3741W        W19815   4.140  11.601   3.760 -0.2557 -0.2943  0.0267
 3742W        W19816  13.130   7.384  12.088  0.3664 -0.0038 -0.1749
 3743W        W19817   8.071  14.196   5.055  0.1112 -0.0889 -0.1203
 3744W        W19818  17.138  12.524  14.698 -0.1260  0.0285  0.0200
 3745W        W19819  16.274   3.321   5.333  0.2363  0.3146 -0.3179
 3746W        W19820  19.025  10.470   3.311  0.0970  0.5268 -0.3189
 3747W        W19821   8.870  10.837  12.467 -0.1406 -0.0666 -0.0055
 3748W        W19822   0.757   2.645  11.734 -0.0492 -0.0812 -0.1840
 3749W        W19823  11.869   3.474   0.110  0.1407 -0.2303 -0.0887
 3750W        W19824   7.141   9.745   2.422 -0.1760 -0.4725  0.4142
 3751W        W19825  15.044  16.028  12.715 -0.0994  0.2216  0.1788
 3752W        W19826  11.593  10.799   0.268  0.2405 -0.0603 -0.2072
 3753W        W19827   3.733   9.200  12.748 -0.3753 -0.0502  0.1981
 3754W        W19828   8.312  16.447   2.130 -0.2746 -0.3691 -0.2521
 3755W        W19829   0.707  18.269   4.705 -0.2378  0.1052  0.1085
 3756W        W19830  16.230   4.989   1.673  0.2981 -0.0161 -0.1193
 3757W        W19831   9.494  18.664  10.325  0.0065 -0.1227 -0.1408
 3758W        W19832  11.680   6.776  11.118 -0.0879 -0.1911 -0.1187
 3759W        W19833   9.482  10.014  14.464  0.3656  0.0439 -0.1604
 3760W        W19834   8.820  13.069  13.767  0.0109  0.2264 -0.1067
 3761W        W19835  11.951  12.839  12.456  0.0295 -0.0779 -0.0834
 3762W        W19836   9.401   5.633  11.157 -0.0491  0.1667 -0.1191
 3763W        W19837   3.612  12.726   3.392  0.1556  0.0402  0.0625
 3764W        W19838   0.293   3.546  10.443 -0.1932 -0.1136 -0.0599
 3765W        W19839   1.356  15.827  12.012  0.1160 -0.2104 -0.0159
 3766W        W19840   3.838  14.507   4.185 -0.0754 -0.1225 -0.2222
 3767W        W19841  17.375   1.261   2.418  0.1200 -0.0842 -0.0793
 3768W        W19842  12.506  15.215   3.982 -0.3365  0.2985 -0.0138
 3769W        W19843   0.401   0.372   3.213  0.1589  0.0097  0.1233
 3770W        W19844   9.079  10.243   1.418  0.1549  0.4530 -0.1290
 3771W        W19845   1.609  11.710  12.270  0.6489 -0.1419 -0.0541
 3772W        W19846  19.259   4.406  10.935  0.0116  0.0019  0.0579
 3773W        W19847  14.429  14.828  11.272  0.2973  0.2367 -0.1597
 3774W        W19848  10.109   8.001   1.389 -0.0791 -0.0910 -0.1694
 3775W        W19849   6.608   6.916   0.619 -0.2548  0.1021  0.2598
 3776W        W19850   9.465   4.253   0.296 -0.1941 -0.1987  0.0968
 3777W        W19851   9.433  11.530  10.384 -0.0924 -0.0078  0.1625
 3778W        W19852  14.420   5.988   2.480  0.0542  0.0450 -0.0707
 3779W        W19853   8.276   9.520   5.054  0.1094  0.0952  0.0672
 3780W        W19854   7.972  18.778   1.918 -0.0930 -0.1515 -0.0896
 3781W        W19855  17.201  12.038   5.328 -0.0034 -0.1335  0.3079
 3782W        W19856  11.940  10.603  11.185  0.1031 -0.3092 -0.0584
 3783W        W19857   7.103   2.243   3.822 -0.1353  0.1729 -0.0665
 3784W        W19858   0.791   6.586   5.398  0.0386  0.0417 -0.2938
 3785W        W19859   7.981  10.170   3.201  0.1163  0.3044  0.0939
 3786W        W19860   1.136  10.587  14.284 -0.2376  0.0051 -0.0277
 3787W        W19861  11.548   1.481  13.082 -0.2291 -0.1209  0.0750
 3788W        W19862  19.044   4.165   3.539 -0.2768  0.1798  0.1619
 3789W        W19863  11.583   7.463  10.861 -0.1787  0.0805 -0.0376
 3790W        W19864   0.072  13.070   0.150 -0.2851  0.1530  0.0227
 3791W        W19865   4.821   6.234  10.890 -0.0513  0.0040 -0.0248
 3792W        W19866   1.369  10.437  12.602  0.1382  0.1980  0.0134
 3793W        W19867   0.060  15.567   1.534 -0.1804  0.0997  0.0563
 3794W        W19868  15.461   1.040  11.412  0.1457  0.0736  0.0369
 3795W        W19869  10.728  15.304   9.414 -0.1478 -0.1765  0.1893
 3796W        W19870   6.011  14.961  11.279 -0.0913  0.1285  0.2128
 3797W        W19871   2.921   9.702   4.488 -0.0183 -0.0307 -0.0573
 3798W        W19872   1.852  17.375  12.085 -0.1820  0.1780  0.0661
 3799W        W19873  12.097  12.807  11.280  0.0916 -0.0783 -0.3972
 3800W        W19874   7.246   8.428   2.218 -0.0456 -0.1364 -0.3183
 3801W        W19875  11.684   5.025  14.114  0.4591 -0.1194  0.0387
 3802W        W19876   0.912  18.283  12.442 -0.0866  0.0837  0.2971
 3803W        W19877   9.059  10.933  14.274  0.2344 -0.1213 -0.1578
 3804W        W19878  16.146   5.706   4.047  0.1392  0.0759  0.0691
 3805W        W19879  16.579   8.016   2.366 -0.0131  0.2045  0.1724
 3806W        W19880   6.715  14.596   3.483 -0.3451 -0.0597 -0.1932
 3807W        W19881   4.204  13.438   3.445  0.0452 -0.2540  0.0269
 3808W        W19882   4.910  12.221  12.597  0.2614  0.0281 -0.2613
 3809W        W19883   0.044  10.025  14.049  0.3114 -0.3380  0.0954
 3810W        W19884  13.487  14.694  14.866  0.2754  0.0497  0.3546
 3811W        W19885  11.644  12.098   0.541  0.0508 -0.4357  0.2116
 3812W        W19886   5.617  16.091   0.780  0.1882 -0.0843 -0.0053
 3813W        W19887  17.183   2.132   4.822  0.0625  0.1909 -0.4674
 3814W        W19888  12.820   6.813  13.413  0.2436  0.0199  0.2477
 3815W        W19889   1.984   8.204   4.570 -0.1295 -0.0824  0.0722
 3816W        W19890   6.555  11.979  14.018 -0.0630  0.1686  0.0263
 3817W        W19891   6.460   3.936   0.707 -0.0040 -0.1403  0.1153
 3818W        W19892   5.524  13.466  11.940  0.0545 -0.3178 -0.0244
 3819W        W19893   6.158  10.842  12.951 -0.0089  0.0341 -0.1361
 3820W        W19894  15.653   7.523  10.828 -0.1512 -0.1188 -0.2227
 3821W        W19895  11.053  13.608  14.743  0.0544  0.0135  0.3231
 3822W        W19896  12.495  17.688   0.300 -0.0461  0.2432 -0.1276
 3823W        W19897   9.489   3.211  12.751  0.2461  0.0503 -0.1179
 3824W        W19898  17.862   4.990  11.549 -0.0836  0.1940 -0.0653
 3825W        W19899   1.856  11.424   5.067  0.3597 -0.3355 -0.2179
 3826W        W19900  12.004   4.245  12.118 -0.2927  0.2010  0.2824
 3827W        W19901   4.040  10.168   5.016  0.0364  0.0074  0.0651
 3828W        W19902  11.697   7.254  10.432  0.0810 -0.2435 -0.1665
 3829W        W19903   7.376  12.628  12.983  0.0074  0.1536 -0.0600
 3830W        W19904   0.402  16.723   2.954 -0.3600  0.0323  0.2015
 3831W        W19905   3.501  18.464  11.266 -0.0706  0.2091  0.0302
 3832W        W19906  12.091   8.852  14.868 -0.5147  0.0562  0.2502
 3833W        W19907   2.058  12.291  13.989  0.1722 -0.0837  0.0449
 3834W        W19908   9.127   3.673   5.097 -0.1290 -0.2139 -0.1442
 3835W        W19909  11.099   4.355   0.890 -0.0697 -0.1954 -0.1508
 3836W        W19910  10.533   4.656  10.871  0.0999 -0.0305 -0.0114
 3837W        W19911  15.346  11.146   3.434  0.1067 -0.0537  0.3073
 3838W        W19912   7.219  12.735   2.757  0.0283 -0.2264  0.1618
 3839W        W19913  18.216   0.065  14.307 -0.0910 -0.1728 -0.0170
 3840W        W19914  13.735   4.554  12.799  0.0490  0.0344 -0.0291
 3841W        W19915  10.794   6.450  11.732  0.4487 -0.0310 -0.1142
 3842W        W19916   1.044   4.100   4.340  0.0681 -0.2066 -0.1017
 3843W        W19917   0.947  10.439  13.877 -0.0012  0.0976  0.2706
 3844W        W19918   9.037  17.597   0.293 -0.0916  0.1371  0.2174
 3845W        W19919   2.559   7.812  12.660  0.2518  0.1807 -0.0604
 3846W        W19920  14.511   6.311   5.523  0.0970 -0.1858  0.0074
 3847W        W19921   4.287   6.912  12.202  0.2353  0.0275  0.1916
 3848W        W19922  11.214   7.239  12.119 -0.1787 -0.0261  0.1603
 3849W        W19923  15.555  14.266   0.921  0.1911 -0.1187  0.1665
 3850W        W19924   8.889   4.142   2.848 -0.1132 -0.1573  0.0402
 3851W        W19925  12.524  14.609  10.274 -0.4899  0.0549 -0.1553
 3852W        W19926  14.851  15.097   3.859 -0.0335 -0.0419 -0.0286
 3853W        W19927  17.788  11.401   1.024  0.1656 -0.1716  0.3638
 3854W        W19928  17.890   2.043  12.825 -0.1554 -0.1563  0.1270
 3855W        W19929   1.990  17.378  10.900  0.1825  0.1166 -0.2116
 3856W        W19930  17.934  10.919  14.091 -0.0070  0.0695 -0.2586
 3857W        W19931   2.611  19.160  10.749 -0.1503 -0.0461 -0.2162
 3858W        W19932  10.098  11.789   3.525 -0.3470 -0.2950 -0.2273
 3859W        W19933  15.262   6.119   1.366  0.0243 -0.1133  0.2465
 3860W        W19934  14.555   4.534  14.622  0.1189 -0.1375 -0.2921
 3861W        W19935   8.984   5.519  13.943 -0.2798  0.3547  0.0261
 3862W        W19936  11.487  18.478  13.135 -0.0216  0.0890  0.0256
 3863W        W19937   9.944   1.517  10.845 -0.0106 -0.1667  0.3278
 3864W        W19938   8.701   9.618  14.814  0.1550 -0.1804  0.0481
 3865W        W19939   2.619  15.921  14.625 -0.4371  0.3764 -0.0274
 3866W        W19940  18.644   3.184   2.767  0.2781  0.3117  0.2412
 3867W        W19941   4.388  12.696  12.488 -0.3207 -0.3127 -0.1012
 3868W        W19942  18.904   1.604  12.819 -0.3132 -0.2289  0.0147
 3869W        W19943   4.393  12.105  12.311 -0.0344 -0.0917  0.1065
 3870W        W19944   9.331  16.599   1.928  0.0415  0.0555 -0.1051
 3871W        W19945   8.279   6.386   1.686  0.2913  0.3104 -0.0278
 3872W        W19946  17.321   3.118   0.879  0.0081 -0.2964  0.0604
 3873W        W19947  10.959   6.526  10.808  0.2283  0.0557  0.2939
 3874W        W19948  10.150  12.402   2.261  0.2112 -0.2906 -0.1237
 3875W        W19949  11.146   1.996   3.661 -0.3035  0.1630  0.1376
 3876W        W19950  11.790  17.904  12.417  0.1284  0.0569  0.2488
 3877W        W19951  11.724   0.084  10.163  0.1610  0.1704 -0.2007
 3878W        W19952  13.517  16.694   4.807 -0.1532 -0.2391 -0.1408
 3879W        W19953  13.196   3.311  13.251  0.0032 -0.0226 -0.0978
 3880W        W19954   1.056  14.543  14.321 -0.0880 -0.0042 -0.1610
 3881W        W19955   5.037  13.709  10.090  0.2442  0.1620  0.0164
 3882W        W19956   6.677  14.473  11.790  0.1133 -0.1859 -0.3295
 3883W        W19957   9.463   7.179   0.190 -0.0308 -0.0212 -0.0347
 3884W        W19958   1.832  12.381   0.886  0.2269  0.1455  0.0452
 3885W        W19959   5.445  15.640  13.791 -0.0656 -0.0249  0.0064
 3886W        W19960  18.769  16.514  11.307 -0.1339  0.1685  0.3636
 3887W        W19961   4.508   6.054  11.786  0.0999  0.1773  0.1210
 3888W        W19962  18.035  15.484   4.403  0.1188  0.1301 -0.0764
 3889W        W19963   4.461  17.684   2.742  0.0339  0.1688  0.2290
 3890W        W19964  12.367  18.227  13.945 -0.1397 -0.0673  0.1813
 3891W        W19965   9.245   0.511  11.741 -0.0536  0.2291  0.1186
 3892W        W19966  13.608  14.025   1.903 -0.3353 -0.1902  0.0978
 3893W        W19967   3.065  16.910  11.315  0.0325 -0.2966  0.1985
 3894W        W19968  14.826  10.424   0.825 -0.0146 -0.2326 -0.1146
 3895W        W19969   7.094  13.731   0.143 -0.1667  0.0374  0.4189
 3896W        W19970   5.238  17.284  12.982  0.1949  0.1105  0.1219
 3897W        W19971  12.562  13.772   0.534  0.2053  0.0990  0.1147
 3898W        W19972  16.559  18.493   5.126  0.2400  0.0948 -0.3712
 3899W        W19973   1.317   4.324  13.011  0.0952 -0.2128 -0.0706
 3900W        W19974  15.704   5.552  13.377  0.1965  0.3027  0.3357
 3901W        W19975   2.521  19.222  12.177  0.1988 -0.0116  0.1263
 3902W        W19976   2.687  15.636   3.680 -0.0635 -0.3510 -0.0208
 3903W        W19977   9.708   8.278  12.813 -0.3073  0.1237 -0.4019
 3904W        W19978   7.323  19.325   1.409 -0.0118  0.1821  0.1349
 3905W        W19979  16.922   7.420  14.196  0.3933  0.1371  0.1435
 3906W        W19980  13.120  13.097  13.235  0.1074  0.0041  0.1235
 3907W        W19981  15.104   6.218  12.198  0.0816  0.0903  0.2301
 3908W        W19982   4.773   3.915   3.224 -0.0029 -0.1690 -0.4522
 3909W        W19983   5.352   8.998   4.081  0.2351  0.0356 -0.1005
 3910W        W19984   1.970  16.182   2.057 -0.1903 -0.2367  0.2034
 3911W        W19985   5.476  13.659   3.963 -0.4868 -0.1594 -0.0248
 3912W        W19986   3.525   7.303   4.285  0.0782  0.1050 -0.0202
 3913W        W19987   6.553   3.470  13.490  0.1466  0.0031  0.5833
 3914W        W19988  11.584   5.340   1.977 -0.0226  0.3909 -0.1108
 3915W        W19989   7.587  13.219  14.004  0.1323 -0.0430 -0.0327
 3916W        W19990   7.106   0.593  11.544  0.3061 -0.0794  0.3103
 3917W        W19991  11.497   8.078  12.472 -0.0153 -0.2538  0.1935
 3918W        W19992  10.307  10.638  14.560 -0.1694 -0.0931 -0.1625
 3919W        W19993   8.623  13.167  14.280 -0.0413 -0.2013 -0.1680
 3920W        W19994   7.118   1.223   5.413 -0.0739  0.1620  0.0499
 3921W        W19995   7.809  11.615  12.151 -0.1020 -0.1642 -0.0890
 3922W        W19996   9.419  17.219  11.393 -0.1211 -0.3772  0.2195
 3923W        W19997  19.270   9.399   2.502  0.1598  0.3047 -0.0538
 3924W        W19998   5.044  13.620   5.436 -0.3472  0.2759  0.3054
 3925W        W19999   6.266  14.251  11.567 -0.2158  0.0163 -0.2832
 3926W        W20000  18.658  11.421   3.295  0.1001  0.2062  0.3550
 3927W        W20001   3.943  18.597  13.030 -0.1681  0.0523 -0.0245
 3928W        W20002  17.699  11.652   1.897  0.0338 -0.0873 -0.0368
 3929W        W20003   3.898   0.325   0.086  0.1898 -0.0810  0.2393
 3930W        W20004   1.976   4.798   1.819 -0.2971 -0.1667 -0.3037
 3931W        W20005   2.797  17.099   1.152 -0.0606 -0.0516  0.1282
 3932W        W20006   2.341  17.398  12.333  0.3578 -0.0338  0.2225
 3933W        W20007   9.562  14.802   2.092 -0.0836 -0.1825  0.4534
 3934W        W20008   4.668  13.778   0.196 -0.1744 -0.2530 -0.0756
 3935W        W20009  16.016   3.380  14.588  0.0366  0.1185  0.0564
 3936W        W20010   3.998   6.473   1.180 -0.2673 -0.0493 -0.1337
 3937W        W20011   4.896   0.936   0.044 -0.0216 -0.4008  0.4104
 3938W        W20012   0.146   3.528  10.898  0.0624 -0.0320  0.0009
 3939W        W20013   3.789  14.528   1.588  0.0767 -0.3384 -0.1109
 3940W        W20014  16.564   6.531  11.916  0.2390 -0.1067 -0.1064
 3941W        W20015  16.169  14.563  14.426 -0.0422 -0.0229 -0.0522
 3942W        W20016   3.602   6.145  14.988  0.0247  0.0240  0.1710
 3943W        W20017  17.958   0.551  14.410 -0.1193  0.0118  0.0658
 3944W        W20018  10.184  18.268  13.959 -0.1973 -0.0643  0.1754
 3945W        W20019  11.142   2.937   1.678  0.0163  0.0562 -0.1727
 3946W        W20020  13.149  17.003  10.315 -0.0887  0.0685  0.0374
 3947W        W20021   8.790   4.179  12.044 -0.1250 -0.3509  0.5177
 3948W        W20022   8.490  13.131   1.874 -0.1600 -0.0261  0.1813
 3949W        W20023   4.534  13.218  11.380  0.0786 -0.2168 -0.2010
 3950W        W20024  16.456   6.317   4.721  0.0565 -0.2916  0.0892
 3951W        W20025  11.948  14.662   4.563  0.1332 -0.0946  0.1297
 3952W        W20026   4.529   8.965   3.531 -0.2302 -0.0202 -0.1363
 3953W        W20027  14.547  13.860   0.991  0.4428 -0.1342 -0.0954
 3954W        W20028  12.848   9.787  12.531  0.0194  0.0867 -0.1116
 3955W        W20029   0.913  13.419  12.065 -0.1868  0.1929  0.0682
 3956W        W20030   7.702  18.918  13.188 -0.0818  0.1124  0.1226
 3957W        W20031  19.197  10.600   2.110  0.1587  0.4134  0.0980
 3958W        W20032   2.225   6.669   0.742  0.1270 -0.0022  0.1225
 3959W        W20033  14.167  10.901   4.250  0.1023  0.0287  0.0217
 3960W        W20034  12.416   2.421  11.431 -0.1396 -0.0549  0.1103
 3961W        W20035  19.022  13.597  12.502  0.1292 -0.1856  0.1908
 3962W        W20036   8.136  13.861   3.870  0.5309  0.1831 -0.0609
 3963W        W20037  11.011  19.064  11.336  0.1785  0.1152 -0.1126
 3964W        W20038   4.031  12.929  11.015 -0.3560  0.0075 -0.4056
 3965W        W20039   0.611   4.868  13.548  0.2664  0.1042 -0.2069
 3966W        W20040  16.209   4.562   0.462 -0.3912 -0.0846  0.0191
 3967W        W20041   7.208   7.450  12.001 -0.0473 -0.1660 -0.2375
 3968W        W20042  14.549   4.608  13.494  0.3699 -0.1235 -0.2525
 3969W        W20043  11.198   5.259  12.610 -0.1392  0.0371 -0.1279
 3970W        W20044  16.307   1.658   2.627 -0.1124 -0.1140  0.2412
 3971W        W20045  19.170   1.639   1.913 -0.0835  0.0748  0.5060
 3972W        W20046  12.916   8.285   2.347 -0.0633  0.2439  0.0224
 3973W        W20047   8.525   9.481   2.238  0.3511 -0.1447  0.0543
 3974W        W20048  18.643  17.976  13.917 -0.3222  0.0240 -0.0658
 3975W        W20049   8.593  16.548   0.540  0.3435  0.1568 -0.3750
 3976W        W20050  12.831   4.738   2.081 -0.0973  0.0753  0.1732
 3977W        W20051   8.412   4.904   2.880 -0.1549 -0.1834 -0.0125
 3978W        W20052  11.700  14.473  10.936 -0.0925 -0.1245 -0.0016
 3979W        W20053  18.176  13.711  12.544 -0.0891  0.1467 -0.1262
 3980W        W20054   1.798   3.007   2.973  0.0122  0.0042  0.5001
 3981W        W20055  17.566  11.633  13.431  0.0684 -0.1285  0.2850
 3982W        W20056   2.242  10.708  14.995  0.1366  0.0700  0.2314
 3983W        W20057   8.239  12.239  13.431  0.1463 -0.0941  0.2389
 3984W        W20058  17.902  13.936   3.931  0.0757 -0.2691 -0.0021
 3985W        W20059   2.980  11.690  11.681 -0.0734  0.1592  0.0268
 3986W        W20060   4.266  14.090  12.766  0.2752  0.1189 -0.2745
 3987W        W20061  11.295   2.929   4.091 -0.2156  0.0133  0.1265
 3988W        W20062   2.877   9.294   0.602 -0.0546 -0.0183 -0.2261
 3989W        W20063   7.383   2.788   2.616 -0.0141  0.3228  0.3063
 3990W        W20064  19.072  16.692   1.036  0.1012 -0.1702  0.0674
 3991W        W20065   3.163  15.900  14.842 -0.0540 -0.0076  0.0195
 3992W        W20066  16.574  18.459   5.695 -0.1270  0.1149  0.0545
 3993W        W20067  11.119   3.475   3.689 -0.2341  0.1996  0.1556
 3994W        W20068  15.041   8.287  12.964  0.1424  0.0935  0.0181
 3995W        W20069   2.098  16.644  14.878 -0.3100 -0.1346 -0.0241
 3996W        W20070   4.275  12.366   1.956 -0.2403 -0.0774  0.2411
 3997W        W20071   2.910   3.364   3.917  0.0434  0.0287  0.0924
 3998W        W20072  14.643  16.685   2.294 -0.1738  0.0014  0.0162
 3999W        W20073   2.731   6.840  11.465  0.1469 -0.7611 -0.2674
 4000W        W20074  18.557  15.828  12.670  0.1129  0.0411  0.0338
 4001W        W20075  11.783  14.655   4.064 -0.1794  0.1531  0.1877
 4002W        W20076  17.087   4.965   3.453  0.0730 -0.1827 -0.0949
 4003W        W20077  16.752  11.136  11.011  0.3971  0.1513  0.1213
 4004W        W20078   9.651  16.342   9.571  0.0358  0.1162  0.1369
 4005W        W20079  13.337  15.528  12.911 -0.2273 -0.1291  0.1374
 4006W        W20080   0.705   5.050   1.216  0.0922  0.1940 -0.4170
 4007W        W20081  13.996  11.451  14.361 -0.0911  0.0250  0.0659
 4008W        W20082  18.559  11.435   2.642  0.0132 -0.0546  0.1382
 4009W        W20083  16.065  18.371   3.005 -0.0909  0.1774  0.2112
 4010W        W20084   9.649   0.249  11.957  0.1886  0.0872  0.1732
 4011W        W20085  14.995  11.786  12.089  0.0235  0.1239  0.0734
 4012W        W20086  12.218  14.396  14.558  0.0637 -0.2649 -0.1303
 4013W        W20087   3.663  15.443   2.705  0.0651 -0.2816  0.0155
 4014W        W20088  17.130   3.804   2.458  0.0161  0.0523  0.2614
 4015W        W20089   9.510  13.528   0.378  0.0740 -0.1355 -0.1758
 4016W        W20090   3.955   3.033  13.474 -0.0624  0.1587  0.1163
 4017W        W20091  14.830   9.553   4.606  0.2117 -0.2737  0.1472
 4018W        W20092  14.441  16.010   1.630  0.2830 -0.2008 -0.0131
 4019W        W20093   2.104  10.135  12.390  0.0196  0.1698  0.1899
 4020W        W20094  12.948  10.978  13.918  0.0406 -0.3874  0.1492
 4021W        W20095   6.079   9.293   2.561 -0.2206 -0.0910  0.4061
 4022W        W20096   5.255   4.511   0.387  0.2179  0.0195 -0.1252
 4023W        W20097  14.377   0.051  11.316  0.2527 -0.4034 -0.1251
 4024W        W20098   0.641  13.998   0.207  0.0353  0.0280  0.0217
 4025W        W20099   4.567  11.464   3.023  0.3656 -0.0044 -0.2595
 4026W        W20100  10.640   9.925   3.355  0.1364  0.1017  0.0427
 4027W        W20101   7.959  18.266   4.146 -0.4488  0.1662  0.2312
 4028W        W20102   2.407  11.015   1.063  0.2597 -0.0265  0.1455
 4029W        W20103  12.107   9.021  14.364 -0.2940 -0.3083 -0.2205
 4030W        W20104  11.681   3.027  11.343  0.1656 -0.0650 -0.2355
 4031W        W20105  11.493  12.214  10.272 -0.0821 -0.1319 -0.1011
 4032W        W20106   3.058   8.476  11.893  0.0270 -0.1372 -0.0752
 4033W        W20107  16.776   7.342  12.253 -0.1036  0.4302  0.0130
 4034W        W20108  12.339  11.566   0.150  0.2573  0.3044  0.0640
 4035W        W20109  11.134  10.818  14.341 -0.0430 -0.3019  0.0154
 4036W        W20110   5.233  16.510  12.514 -0.1664  0.3489  0.0448
 4037W        W20111  11.990   2.216  11.267 -0.0110  0.1252  0.3483
 4038W        W20112   3.841   4.675  14.912 -0.1150  0.1515 -0.1789
 4039W        W20113  13.067  16.231  14.246 -0.0191  0.0140  0.0603
 4040W        W20114  15.428  15.090   0.062  0.0866  0.2176 -0.0859
 4041W        W20115   2.458  15.613  10.675  0.2576  0.4996 -0.0465
 4042W        W20116  17.896   4.624   2.163  0.2990 -0.1046  0.0502
 4043W        W20117   3.266  11.565   1.608 -0.0123  0.0865  0.1728
 4044W        W20118  12.214  11.085  12.081  0.0986 -0.2658  0.0185
 4045W        W20119  11.800  17.517   2.353 -0.0209 -0.1271 -0.3181
 4046W        W20120   8.449  17.626   1.503 -0.6090 -0.2293  0.0662
 4047W        W20121   7.996  18.315   1.938 -0.1960 -0.0345  0.0858
 4048W        W20122  13.234   8.326  12.182  0.1032 -0.1215  0.2777
 4049W        W20123  16.805   1.302   3.320 -0.3162 -0.1501  0.0857
 4050W        W20124  17.708   5.756   2.877  0.2623 -0.1016 -0.2269
 4051W        W20125   7.849   9.118  11.246 -0.0950 -0.2975  0.0771
 4052W        W20126   9.815   5.034  12.640 -0.2842  0.1479 -0.1362
 4053W        W20127  10.721   0.379  12.937 -0.0280  0.6114  0.0773
 4054W        W20128  18.056   2.636  10.229 -0.1706 -0.3822  0.2249
 4055W        W20129  11.322   1.938  12.261 -0.1458 -0.1970  0.1500
 4056W        W20130   3.341   4.685   3.002  0.0168 -0.2756  0.1507
 4057W        W20131  12.535  14.082  10.777 -0.0916  0.0629 -0.0109
 4058W        W20132   6.831  18.933   3.690  0.2347 -0.0376 -0.0985
 4059W        W20133  12.670   1.542  11.080  0.0611 -0.4198 -0.2526
 4060W        W20134   0.157  17.631  10.800  0.0644 -0.2486  0.2326
 4061W        W20135   0.741   5.693  15.002 -0.2482  0.0099  0.1269
 4062W        W20136   9.886   2.430   2.762  0.3104 -0.1199 -0.1912
 4063W        W20137  10.321  10.647   1.252  0.4202  0.2699  0.1911
 4064W        W20138  15.528  15.820  13.301 -0.2861  0.0054 -0.0053
 4065W        W20139  10.661  17.807  10.576 -0.0375 -0.2716  0.0841
 4066W        W20140   7.164   0.374  13.096  0.0855  0.0717 -0.0355
 4067W        W20141  12.936  10.975  12.784 -0.0946 -0.3333  0.4912
 4068W        W20142  12.466   4.867  14.404  0.0914  0.1432 -0.5516
 4069W        W20143   1.234  15.554  13.352  0.0271  0.1155 -0.3623
 4070W        W20144  13.041  10.861   4.095  0.1377 -0.2250  0.1145
 4071W        W20145  16.323  15.889   1.987 -0.2293  0.4780  0.0111
 4072W        W20146  16.314   4.781   3.196 -0.1077  0.2047 -0.1133
 4073W        W20147   5.870  19.205  13.222  0.2210 -0.3379 -0.1337
 4074W        W20148   8.794   3.268  11.668  0.1681  0.1379  0.0916
 4075W        W20149   4.909  15.023   0.675  0.1959  0.1483 -0.3282
 4076W        W20150  10.404   2.551   2.123 -0.1291 -0.2505  0.1443
 4077W        W20151   8.632   0.166  14.031 -0.2467 -0.1393  0.2537
 4078W        W20152  17.465   4.995  12.623  0.0343  0.0320  0.0647
 4079W        W20153  16.901  16.329  13.584  0.0842 -0.1033 -0.0456
 4080W        W20154   9.364   0.631  13.271  0.4997  0.0025  0.0624
 4081W        W20155  17.858   0.604   1.384 -0.2813 -0.1480  0.2084
 4082W        W20156  14.193  13.615  13.504 -0.0182 -0.0776 -0.2080
 4083W        W20157   7.796   2.740  12.536 -0.0881 -0.2735  0.1203
 4084W        W20158  11.885   8.073   3.143  0.2134 -0.0330  0.0531
 4085W        W20159  11.339  16.898   1.034  0.3274  0.1253 -0.2943
 4086W        W20160  12.714   0.087   0.579 -0.0094  0.1333  0.0768
 4087W        W20161  16.407   2.985  14.628  0.1590  0.0936 -0.1139
 4088W        W20162   3.142   7.472   1.786 -0.1807  0.2047  0.2649
 4089W        W20163   3.290  14.959  13.078  0.1617  0.1879 -0.1424
 4090W        W20164   7.705  17.727  12.197  0.2462  0.1022  0.3995
 4091W        W20165  16.166   4.724   3.639  0.3565 -0.0004  0.1455
 4092W        W20166   5.366  10.242   1.184 -0.3969 -0.1513 -0.0662
 4093W        W20167  17.849   7.155  12.099 -0.1652 -0.2209  0.4403
 4094W        W20168  12.215   4.980   3.803  0.1218  0.4393  0.0912
 4095W        W20169  14.653  18.414  10.977 -0.1911 -0.2174  0.1317
 4096W        W20170  15.529   8.434   2.963  0.0024 -0.5438  0.1081
 4097W        W20171   5.094  10.628   3.962 -0.0956  0.1300 -0.5856
 4098W        W20172  16.267  16.072   3.227 -0.0910  0.1736  0.1262
 4099W        W20173  14.055  13.079  12.091 -0.3615 -0.3758  0.0793
 4100W        W20174  10.247  15.312   4.481  0.2612 -0.0209 -0.0778
 4101W        W20175   8.966   2.130   3.545 -0.2146 -0.0359  0.1126
 4102W        W20176   5.183  17.086  13.868 -0.0037 -0.0123  0.1969
 4103W        W20177   4.062   7.429   5.297  0.1221 -0.0645 -0.1508
 4104W        W20178   0.703  15.701  11.262 -0.1483  0.2221  0.1200
 4105W        W20179   5.060  14.050  13.235  0.1210 -0.0320 -0.3037
 4106W        W20180  16.758  18.863  11.349 -0.1006 -0.0804 -0.1881
 4107W        W20181   7.666   4.969   2.040  0.0006 -0.3320  0.0633
 4108W        W20182  18.515  17.357  14.600  0.2680 -0.0385 -0.1696
 4109W        W20183  14.932   0.702   4.698  0.0986 -0.0971 -0.2486
 4110W        W20184   5.435   6.826  14.979  0.0909  0.1429  0.0883
 4111W        W20185  15.895   6.204   5.466  0.0023 -0.0802  0.0887
 4112W        W20186  10.138   1.592  11.552  0.0828 -0.2207  0.2471
 4113W        W20187  17.024  11.266   0.580  0.3341 -0.3128 -0.1105
 4114W        W20188  17.529  19.335   2.252  0.0793  0.1169 -0.0255
 4115W        W20189   9.411  17.487   1.273  0.3078  0.1094 -0.0888
 4116W        W20190   9.060   9.450   3.426 -0.0848  0.0084 -0.0281
 4117W        W20191   7.533  17.588   4.306  0.0144  0.2437 -0.0345
 4118W        W20192   4.585   5.149   2.103  0.2335  0.0840 -0.1751
 4119W        W20193   0.507  12.766   0.105 -0.2228 -0.0464  0.0294
 4120W        W20194  18.484  11.189   1.275  0.0481 -0.2418  0.0841
 4121W        W20195  12.997  13.153  14.963 -0.1643 -0.0191  0.0627
 4122W        W20196  18.384  11.755   3.029 -0.1218 -0.1738 -0.0054
 4123W        W20197   9.416   5.117  14.195 -0.0291 -0.1901 -0.0644
 4124W        W20198  18.056   7.617  11.956  0.1242  0.0657 -0.2322
 4125W        W20199   9.639   4.320   3.608 -0.2749 -0.2403  0.3272
 4126W        W20200  17.158   3.460   4.517  0.4825 -0.0650  0.1371
 4127W        W20201   8.322  17.720   2.709 -0.0274 -0.0168 -0.3145
 4128W        W20202   5.466   7.542  12.208  0.1702  0.1995 -0.0026
 4129W        W20203  16.574  10.513   5.272  0.0379 -0.0567  0.2862
 4130W        W20204  16.397  14.676  12.628 -0.0349 -0.2588  0.0522
 4131W        W20205   1.569   0.132  12.876 -0.1339  0.1769 -0.1297
 4132W        W20206  11.918   1.943   9.990  0.0499 -0.1685  0.0504
 4133W        W20207   2.154   9.453  14.325 -0.0547 -0.1021 -0.0329
 4134W        W20208   7.136  10.257   2.614 -0.0090  0.0142 -0.0331
 4135W        W20209  17.441  12.144   1.317 -0.3171  0.0705  0.3737
 4136W        W20210  16.919  11.861  14.174  0.2609 -0.3568 -0.1098
 4137W        W20211   3.007  15.042   4.371  0.0440 -0.1808  0.0775
 4138W        W20212  10.058  10.837   3.815 -0.0415 -0.2097  0.2187
 4139W        W20213   4.700   0.463   0.252  0.1989  0.1766 -0.2796
 4140W        W20214  16.400   7.197  10.401  0.2248  0.3499  0.4266
 4141W        W20215   4.521   5.723   1.583 -0.4509  0.0953  0.1438
 4142W        W20216  16.670   6.603   0.926  0.0796 -0.3334  0.1316
 4143W        W20217  18.160  13.631   4.313 -0.0182 -0.1103 -0.0315
 4144W        W20218   1.773  18.398   4.993 -0.1068 -0.1258  0.0430
 4145W        W20219   3.412  15.002  14.661 -0.0182  0.3644  0.3860
 4146W        W20220   5.592   3.092   3.602 -0.0273  0.0947  0.2646
 4147W        W20221  13.195  18.338  11.151  0.3456  0.0251  0.0618
 4148W        W20222  19.007  19.262   1.576 -0.0014  0.1434  0.0545
 4149W        W20223  11.055   1.580  14.313  0.0533  0.0203 -0.0655
 4150W        W20224   1.628  10.859   1.134 -0.1806 -0.1953  0.0748
 4151W        W20225  10.108   3.279   4.214  0.3266  0.1797  0.1496
 4152W        W20226   3.785  10.645   5.062 -0.3180 -0.0294  0.1319
 4153W        W20227   7.978  17.526  11.490  0.0500 -0.1950  0.3846
 4154W        W20228   8.900  14.397   2.506  0.2510 -0.2963  0.2711
 4155W        W20229  18.934  16.127   3.852  0.0558  0.0173  0.1213
 4156W        W20230  15.421   3.553  11.616  0.0422 -0.1603 -0.0092
 4157W        W20231  10.795   7.183  12.412 -0.3070  0.0853 -0.4268
 4158W        W20232  11.469   4.911   2.591  0.0117  0.2414 -0.0950
 4159W        W20233  13.125  14.416   1.522  0.4865 -0.0761  0.0362
 4160W        W20234   1.626  11.562   6.263  0.0365  0.0764 -0.1204
 4161W        W20235  10.761   0.627   1.689 -0.0100 -0.0482  0.1936
 4162W        W20236  16.162  12.620   4.062  0.1512  0.2178 -0.4638
 4163W        W20237   8.775  11.485  12.521  0.1841  0.1226 -0.1643
 4164W        W20238  13.607   7.950   1.576  0.1238  0.1259  0.0601
 4165W        W20239  16.673  17.478  12.824 -0.0409  0.1334 -0.0109
 4166W        W20240   4.137   6.380   3.212  0.3833 -0.1433 -0.3303
 4167W        W20241   8.109   0.147   1.284  0.2374  0.0697  0.3870
 4168W        W20242  18.355  16.367  14.947 -0.2007 -0.3134 -0.1812
 4169W        W20243  10.065   5.953   0.891  0.1575  0.1384 -0.0406
 4170W        W20244  15.252   9.416   1.456 -0.0144  0.2157  0.0080
 4171W        W20245  16.943   9.179  13.234  0.2869 -0.1909 -0.1322
 4172W        W20246   5.401   8.809   2.682  0.1108 -0.0570  0.0396
 4173W        W20247  15.565   5.556  13.882 -0.2740  0.0709 -0.1948
 4174W        W20248   7.454  13.276   2.432 -0.0480  0.0782  0.2208
 4175W        W20249  10.515   1.711  10.197 -0.0090  0.0330 -0.1837
 4176W        W20250   9.175   8.119   4.256 -0.0845 -0.1914 -0.1858
 4177W        W20251   4.908  18.245   1.963  0.0064  0.0977 -0.1529
 4178W        W20252   9.321   8.477   3.884 -0.1098 -0.0582  0.0341
 4179W        W20253  15.741  15.184  10.718  0.0872 -0.0234 -0.1274
 4180W        W20254   3.090   3.909  10.516 -0.0079  0.2096 -0.0166
 4181W        W20255   3.144   6.560   1.462  0.2632  0.0963  0.2533
 4182W        W20256  13.344   7.097   3.713 -0.2617 -0.0923 -0.0801
 4183W        W20257  13.918   8.525  13.544 -0.1027 -0.0320  0.1559
 4184W        W20258   7.800   3.846  13.260 -0.0429 -0.1812 -0.4357
 4185W        W20259   2.643   5.842  10.644 -0.0378 -0.1162 -0.0820
 4186W        W20260  10.183  15.982   3.533 -0.0460  0.0172 -0.3165
 4187W        W20261   3.684   8.612  14.148  0.1482 -0.0653 -0.1584
 4188W        W20262   9.254   0.901  12.319  0.1714  0.0506  0.0266
 4189W        W20263   7.149  11.589   0.085  0.2538 -0.0745 -0.1373
 4190W        W20264   7.708  15.463   3.285 -0.0080 -0.0832 -0.0614
 4191W        W20265   0.736   4.781   4.209 -0.0658 -0.1216 -0.1371
 4192W        W20266  18.702  18.092   0.648 -0.2789  0.2069  0.1133
 4193W        W20267   9.034   7.102  14.866 -0.1814 -0.0264  0.1388
 4194W        W20268   5.927  16.297   9.878 -0.2841  0.0488  0.1823
 4195W        W20269   7.354  13.324   4.133  0.3485 -0.1736  0.0538
 4196W        W20270   9.452   4.746   3.313  0.1439 -0.1287 -0.4181
 4197W        W20271  16.649  15.272   2.381  0.2594  0.0291 -0.0742
 4198W        W20272   7.471   9.983   1.443 -0.0236  0.2805  0.0074
 4199W        W20273  18.860  18.523   2.196  0.3944 -0.1626  0.0115
 4200W        W20274  10.336   1.974   3.925  0.0591 -0.0045 -0.5348
 4201W        W20275   5.396  18.437  11.693 -0.3592 -0.0581 -0.1459
 4202W        W20276   6.579   2.003  10.604 -0.1102  0.1229  0.2985
 4203W        W20277   7.685   9.182  10.389  0.0272 -0.1208 -0.3854
 4204W        W20278   9.976  14.713   1.162 -0.2086  0.0715 -0.1012
 4205W        W20279   8.375   4.459   1.100 -0.0111 -0.3406 -0.0757
 4206W        W20280   5.199  11.770   4.238 -0.0364 -0.3104 -0.1010
 4207W        W20281  11.545   0.742   0.236 -0.1222  0.2935  0.1516
 4208W        W20282   8.897  13.258  11.035  0.2074  0.1600  0.3371
 4209W        W20283  14.586  17.710   2.127 -0.1893  0.2891 -0.5602
 4210W        W20284   4.111  10.148   1.533  0.0690 -0.1046  0.0346
 4211W        W20285   3.888   1.662   4.306 -0.1287 -0.0717  0.0447
 4212W        W20286  18.097  15.495   0.342  0.1577  0.0043 -0.2083
 4213W        W20287  11.927  14.927   0.758 -0.0009 -0.2412 -0.2443
 4214W        W20288   7.319  14.663  11.093  0.0745  0.2098 -0.3405
 4215W        W20289  16.810  14.945   1.968 -0.2629 -0.1236 -0.0436
 4216W        W20290  15.907  10.291  13.377 -0.0025  0.2456  0.0933
 4217W        W20291   0.604   0.360   2.752 -0.0310 -0.1648  0.1829
 4218W        W20292   4.884  11.197  12.616  0.0719  0.4549  0.1382
 4219W        W20293   7.052   3.016   2.262  0.3501  0.2081 -0.3363
 4220W        W20294  12.964  18.151  14.586 -0.2152 -0.2305 -0.4337
 4221W        W20295   6.464   8.976   1.297 -0.3014  0.1115  0.5252
 4222W        W20296  17.686   4.095   2.389 -0.0317  0.2518  0.2722
 4223W        W20297   2.728   4.065   0.757 -0.1246 -0.2649  0.1847
 4224W        W20298   6.697  16.606  12.504 -0.0201  0.0322  0.0199
 4225W        W20299  15.794  16.460   5.762  0.0760  0.0491 -0.2688
 4226W        W20300  10.798  17.650   3.725 -0.0747 -0.0868  0.2420
 4227W        W20301  14.927   1.239   4.891  0.0850  0.2091 -0.5473
 4228W        W20302  12.190   7.464  12.223  0.1935  0.0109  0.0171
 4229W        W20303  16.396   9.333  11.333  0.3226  0.1531 -0.1793
 4230W        W20304   5.440   0.506   1.433 -0.0439 -0.1366 -0.1760
 4231W        W20305  14.947  11.154   5.945 -0.0596  0.1472  0.2262
 4232W        W20306  16.887  15.194   3.792  0.1596 -0.3411  0.1694
 4233W        W20307   7.863   5.636   5.791 -0.1666  0.1192 -0.2294
 4234W        W20308   7.333   2.603  12.353 -0.0458 -0.2641 -0.0664
 4235W        W20309   0.789   7.040   4.257 -0.0841  0.1915 -0.0312
 4236W        W20310  11.446   7.421  13.702  0.2982 -0.0749 -0.0959
 4237W        W20311  14.259  10.314  14.776  0.1335  0.0347  0.2555
 4238W        W20312   7.161  12.604  12.480 -0.1390 -0.0395  0.4243
 4239W        W20313  16.360  10.720  14.612 -0.0632 -0.2166  0.0602
 4240W        W20314   9.561  17.842   2.266  0.1899  0.0905 -0.0258
 4241W        W20315  13.282  13.281   1.223  0.2653  0.3068 -0.1905
 4242W        W20316  10.343   6.768  14.190 -0.4465 -0.0609 -0.2003
 4243W        W20317   2.271   9.949   0.046  0.3147  0.0547  0.0090
 4244W        W20318   5.988   1.642   4.095 -0.1227 -0.3670 -0.1004
 4245W        W20319   2.205   3.801  11.656 -0.0058 -0.3538  0.1945
 4246W        W20320  15.393  13.847   5.447  0.0857  0.2046 -0.3399
 4247W        W20321  12.006   3.321   2.597 -0.1020  0.1214 -0.2705
 4248W        W20322  18.784   7.984  14.720  0.0192  0.1227 -0.4248
 4249W        W20323  14.027  13.921  14.486 -0.0210  0.0820 -0.1221
 4250W        W20324   6.582   5.706   1.908 -0.2661  0.0037  0.0464
 4251W        W20325  13.877  12.152   1.372  0.3534  0.1629 -0.0126
 4252W        W20326   0.178   3.985  11.949 -0.1464 -0.0402  0.1270
 4253W        W20327   4.817   9.084   2.051 -0.1325 -0.3729  0.0570
 4254W        W20328   4.105   2.085   1.305  0.0774 -0.4353  0.3122
 4255W        W20329   4.730   1.208   2.615  0.4033 -0.1052  0.0724
 4256W        W20330  17.919   7.815   2.338  0.1927  0.2433  0.0436
 4257W        W20331  15.039   2.551   4.520 -0.0507 -0.1451 -0.1219
 4258W        W20332  16.210  10.776   3.819 -0.2566 -0.0557 -0.0126
 4259W        W20333  10.467  10.294  13.122  0.0641  0.1164 -0.0574
 4260W        W20334   5.685   1.919   1.328  0.2465 -0.2247  0.0420
 4261W        W20335   7.788   2.819   3.456 -0.2790 -0.0080 -0.2975
 4262W        W20336   1.206   6.352   1.495  0.0484 -0.2565 -0.0121
 4263W        W20337  10.080   4.054   1.092  0.0988 -0.0741  0.0695
 4264W        W20338  10.711   5.558  10.725  0.2167 -0.1401 -0.0880
 4265W        W20339   6.606   5.511   3.684 -0.0966  0.1368  0.0117
 4266W        W20340   9.042   2.618   3.507 -0.0322 -0.0668  0.0828
 4267W        W20341  13.159  15.005  11.202  0.0856 -0.1283 -0.2761
 4268W        W20342  10.904   4.962   4.601 -0.1294  0.4079 -0.1099
 4269W        W20343  16.622   9.075   0.315  0.4096 -0.3565  0.3330
 4270W        W20344  15.918  18.720  14.612  0.1245  0.0398  0.0086
 4271W        W20345  13.242   6.570   3.060  0.0913 -0.2410  0.0187
 4272W        W20346   4.669   2.935   9.736 -0.1197  0.2304 -0.0007
 4273W        W20347  11.212  13.582  11.065  0.1685  0.0776 -0.0587
 4274W        W20348  10.153   1.272  14.324 -0.1288  0.0359  0.1935
 4275W        W20349  12.730  17.857  10.462  0.0052 -0.0460 -0.3057
 4276W        W20350   1.052  15.828  10.848  0.0102  0.1605  0.1110
 4277W        W20351   9.010   6.822  11.891 -0.0752  0.3292  0.2075
 4278W        W20352  12.852   0.432  10.336 -0.1952 -0.0592 -0.3202
 4279W        W20353   7.169   3.053  10.249  0.3611 -0.3210  0.0703
 4280W        W20354  17.736   1.014   4.331 -0.0569  0.0074 -0.0714
 4281W        W20355   8.534   5.094  12.827  0.0606  0.1039 -0.0561
 4282W        W20356  16.509   4.727   1.217 -0.0135 -0.0229  0.1294
 4283W        W20357  12.996  15.288   4.171  0.0221  0.1338 -0.3766
 4284W        W20358  17.976  10.334  13.879 -0.1048 -0.1375 -0.1083
 4285W        W20359   0.462   9.025  11.507  0.4018 -0.3022 -0.0748
 4286W        W20360   1.718  15.197   1.829 -0.1879  0.1383  0.0849
 4287W        W20361  14.726  18.603   1.324  0.1511 -0.0814  0.2418
 4288W        W20362  12.676   9.689  10.471  0.0988 -0.0819 -0.1000
 4289W        W20363  10.798   2.604  10.325  0.1577  0.1035 -0.1594
 4290W        W20364   5.259  17.928   3.598 -0.0246  0.0383 -0.2585
 4291W        W20365   6.586  19.255  14.048  0.0733  0.3835  0.0999
 4292W        W20366  18.684  17.300   3.380 -0.1437 -0.1299 -0.0152
 4293W        W20367  19.099  14.011  11.362 -0.1910 -0.0311  0.2060
 4294W        W20368   2.492  11.578  14.291 -0.0933  0.2011 -0.0960
 4295W        W20369  10.862  16.621   2.376  0.0746 -0.0532  0.0739
 4296W        W20370  17.055   9.373  14.221 -0.0041 -0.1784  0.0852
 4297W        W20371   6.143   0.205  12.971  0.0900 -0.0703  0.4788
 4298W        W20372   7.896  19.303   4.078  0.0351 -0.1599  0.4595
 4299W        W20373   2.741  11.231   4.813  0.1739  0.0709  0.1744
 4300W        W20374   1.599   0.144   0.632  0.0556 -0.2212  0.2442
 4301W        W20375  11.434   5.526   1.542 -0.2811 -0.0100  0.0050
 4302W        W20376  19.313   9.498  14.839 -0.1475  0.5240 -0.0304
 4303W        W20377  11.013   4.997  13.336  0.0096 -0.0026  0.0130
 4304W        W20378   0.857  10.003   5.412 -0.1091  0.3158 -0.0506
 4305W        W20379   2.415  13.327  10.816  0.1175  0.2838  0.2867
 4306W        W20380   0.557   0.679   0.909 -0.1036 -0.1465  0.1028
 4307W        W20381   2.023   6.928  12.799 -0.0187 -0.0213 -0.1066
 4308W        W20382   3.365  17.915   3.802 -0.1366 -0.2661  0.1313
 4309W        W20383  13.552   6.298  11.260  0.1631  0.2325 -0.0305
 4310W        W20384   1.407  17.622   5.114 -0.0252 -0.2759  0.3779
 4311W        W20385  17.270   0.843   5.261  0.1135 -0.0757  0.0938
 4312W        W20386  11.814  17.133  13.302 -0.0400  0.1833 -0.0874
 4313W        W20387  12.758   2.080  12.183 -0.0560 -0.1305  0.2183
 4314W        W20388  17.225   1.630  10.376  0.1330  0.0693 -0.0331
 4315W        W20389   5.845   1.766  12.739  0.1372  0.3576 -0.2913
 4316W        W20390  10.108   1.361  13.836 -0.1227 -0.0521 -0.0143
 4317W        W20391  19.137  11.593   3.917 -0.2009 -0.1175  0.0479
 4318W        W20392   2.762   3.396   0.830  0.1644 -0.1598 -0.1206
 4319W        W20393  18.200  16.971  12.967  0.3830  0.2805  0.3299
 4320W        W20394   9.225   1.687   1.170  0.1328 -0.0162 -0.2580
 4321W        W20395  14.617  16.479  13.305  0.1084 -0.1568 -0.1387
 4322W        W20396  17.369  18.527  13.817 -0.1694 -0.1028 -0.3767
 4323W        W20397   4.210  15.263   0.378  0.1652 -0.2942  0.1972
 4324W        W20398   4.644  11.657  13.382 -0.1150 -0.0444 -0.2014
 4325W        W20399   6.636  10.871  13.906 -0.1928  0.0440  0.1546
 4326W        W20400  16.892   3.697   3.367 -0.4924 -0.0275 -0.0906
 4327W        W20401   0.434  15.163   3.886 -0.0231  0.2889  0.0546
 4328W        W20402   7.592   3.637   4.375  0.0212  0.1409 -0.0790
 4329W        W20403   1.905  15.566   0.046 -0.2179 -0.4326 -0.0430
 4330W        W20404   9.305  15.312  10.005 -0.2882  0.1149 -0.1099
 4331W        W20405   1.226   9.399   4.951  0.1586  0.0072  0.0681
 4332W        W20406   1.390   8.649  13.381 -0.0669 -0.1600 -0.3262
 4333W        W20407   6.439   3.854  12.646 -0.1134 -0.3778 -0.1579
 4334W        W20408   9.924   0.947  10.120 -0.1796 -0.0486 -0.2299
 4335W        W20409   3.311   6.387  13.641 -0.0899 -0.0114  0.2092
 4336W        W20410   0.782   8.975  14.326 -0.2488 -0.1824 -0.1355
 4337W        W20411   8.928   4.540  11.531 -0.2679  0.0754 -0.2357
 4338W        W20412   8.704   0.486  10.949 -0.1776 -0.0583 -0.1151
 4339W        W20413  17.055   4.779  11.453 -0.0588 -0.1601 -0.0716
 4340W        W20414  14.756   0.643  11.808 -0.0658  0.0669 -0.0797
 4341W        W20415  13.780  13.676   4.383 -0.0982 -0.2469 -0.2547
 4342W        W20416   2.165  15.662   4.290 -0.3141 -0.2657  0.1810
 4343W        W20417  16.022  17.087   1.710 -0.3730  0.2490  0.0895
 4344W        W20418  12.723   2.408   4.981  0.1094  0.1534 -0.0586
 4345W        W20419  11.677  17.561  13.124 -0.1042  0.0806  0.1491
 4346W        W20420   0.240   5.111  12.197  0.0078  0.3854  0.0959
 4347W        W20421   3.161  12.333   0.374 -0.0789  0.1521  0.2598
 4348W        W20422  12.160  13.065   2.676  0.1283 -0.0990  0.0028
 4349W        W20423   3.337   9.931  13.344 -0.0947 -0.0233 -0.4102
 4350W        W20424   0.431  18.840   1.449  0.1848 -0.3969 -0.2565
 4351W        W20425   9.357   3.794   3.584 -0.2283 -0.1205  0.0797
 4352W        W20426   0.335  10.379  12.211  0.1045 -0.0288  0.0923
 4353W        W20427   2.406   9.086   2.156 -0.0847  0.0425 -0.1224
 4354W        W20428   8.406  14.265  10.634 -0.3466  0.1490 -0.1128
 4355W        W20429  10.295   5.447   2.365  0.2034  0.1379 -0.1695
 4356W        W20430  13.240  18.000  10.355 -0.1295  0.0120 -0.1802
 4357W        W20431  14.319   7.910  11.060  0.3710 -0.3291 -0.1229
 4358W        W20432  13.992   2.459   3.416  0.0714  0.3742  0.2184
 4359W        W20433  11.487   1.509   3.678  0.1730 -0.1110  0.2563
 4360W        W20434   9.570   2.309  11.258 -0.0293  0.2377 -0.1513
 4361W        W20435   6.724   4.661   3.191 -0.4583 -0.3149  0.1492
 4362W        W20436   5.980  18.047  13.489  0.1555  0.0667  0.0833
 4363W        W20437   7.142   3.099   1.778 -0.2945  0.0799 -0.0466
 4364W        W20438   3.791  15.681   2.067  0.2549 -0.0610  0.1107
 4365W        W20439   9.914  12.972  13.445 -0.0912 -0.1015  0.0405
 4366W        W20440   2.258  18.309   4.885  0.0641 -0.2184  0.1243
 4367W        W20441  12.380  15.020   1.189  0.0456 -0.3538  0.3562
 4368W        W20442  12.233  17.025   4.661  0.0754  0.1044 -0.1858
 4369W        W20443  14.175   6.956  11.239  0.0961  0.0174 -0.0316
 4370W        W20444   2.881   1.080  12.567  0.3080 -0.3471  0.0433
 4371W        W20445   0.194   6.461   1.598  0.1654 -0.1355  0.2608
 4372W        W20446   1.177   3.393  13.465  0.0279  0.0232  0.0612
 4373W        W20447  10.391  15.064  11.855  0.1667  0.2311 -0.0064
 4374W        W20448   2.903  12.624   4.844 -0.2061  0.0653 -0.0234
 4375W        W20449   6.212   4.765  12.763 -0.0502  0.0604 -0.1537
 4376W        W20450   5.563  18.314  12.219 -0.1417  0.2967 -0.3922
 4377W        W20451  17.254  16.441  10.830  0.1802  0.1619 -0.1654
 4378W        W20452  10.692   7.412   1.833  0.1677 -0.4060  0.0452
 4379W        W20453  14.640   9.466  12.606 -0.5439  0.0113  0.1614
 4380W        W20454  17.110   3.094  11.810 -0.3613 -0.0271  0.0780
 4381W        W20455   0.154   2.871  10.957  0.5670 -0.3457 -0.2146
 4382W        W20456   7.529  10.787  13.777 -0.1209 -0.0784 -0.1936
 4383W        W20457  11.728   7.539  12.838 -0.2305 -0.0013 -0.0581
 4384W        W20458  13.219  16.727  12.176  0.2470 -0.1803 -0.0789
 4385W        W20459   7.419   5.968   3.151 -0.0620  0.1590  0.0163
 4386W        W20460   6.384  18.051   0.532 -0.4465 -0.3821  0.1389
 4387W        W20461  18.431   5.032  14.159  0.1064  0.1676 -0.3720
 4388W        W20462  14.193   0.497   0.985 -0.3082 -0.3062 -0.2120
 4389W        W20463  18.616   1.629   3.873 -0.5060  0.1172 -0.1617
 4390W        W20464  12.859   6.313  12.572 -0.0658  0.0301 -0.0765
 4391W        W20465   3.155  11.602  14.900  0.3167  0.1235  0.4107
 4392W        W20466  10.321   4.749  11.497 -0.3562  0.0006 -0.0896
 4393W        W20467   5.831  11.884  13.662  0.3844  0.2150 -0.1550
 4394W        W20468   7.187  12.134   1.101  0.1138  0.0095  0.2078
 4395W        W20469   9.244  10.799   2.365  0.0465 -0.0327  0.0193
 4396W        W20470  16.114  19.323   3.418  0.0730  0.0505 -0.3620
 4397W        W20471   7.324  13.037  12.667  0.0678 -0.2189 -0.3474
 4398W        W20472  18.518  13.166   0.135  0.0970  0.0024 -0.4215
 4399W        W20473  13.708   4.449   1.367  0.0355  0.1526 -0.4387
 4400W        W20474  18.407   4.892   0.808  0.0271  0.0187 -0.0069
 4401W        W20475   8.909   4.095   5.381 -0.1998  0.0673 -0.2430
 4402W        W20476   3.821  13.650   2.909  0.1372  0.1372  0.0027
 4403W        W20477  13.484   1.610  11.126 -0.0403  0.0188 -0.1731
 4404W        W20478  11.103  18.515   0.526 -0.0297  0.0343  0.0011
 4405W        W20479   7.165  11.277  14.710  0.3261  0.0069 -0.1393
 4406W        W20480  10.695  10.876  13.142 -0.0943  0.1567  0.3271
 4407W        W20481  10.773   6.003   3.541 -0.0697 -0.0584  0.1846
 4408W        W20482  17.469   4.120  11.890  0.1339 -0.0435  0.3942
 4409W        W20483  13.555  18.632  13.315  0.1051 -0.1441 -0.1050
 4410W        W20484   2.807  10.493  11.716 -0.0548  0.0125  0.0750
 4411W        W20485  17.115   8.097  14.686 -0.0324  0.0624 -0.4348
 4412W        W20486  10.808  12.909   0.846  0.0335  0.2150  0.0769
 4413W        W20487  10.891   4.250  10.834  0.0648  0.1552 -0.0143
 4414W        W20488  16.201  10.601  13.723 -0.1924 -0.0339  0.0283
 4415W        W20489   4.488   3.812   1.859  0.1007  0.2407  0.2163
 4416W        W20490   2.874  12.183  14.950 -0.1541  0.1170 -0.0942
 4417W        W20491  10.067   1.399   4.067 -0.0540  0.0036  0.0258
 4418W        W20492   4.424   1.252  11.302 -0.0862 -0.1547 -0.0440
 4419W        W20493  13.990  12.561   5.228 -0.1729 -0.1865  0.0395
 4420W        W20494  12.453   5.771  12.668 -0.0644 -0.0382 -0.4807
 4421W        W20495  14.897   1.776   3.565  0.0514  0.0915  0.0110
 4422W        W20496  17.357   6.653  14.246 -0.0862  0.4362 -0.0372
 4423W        W20497  15.308  13.759   0.638  0.0057  0.1143 -0.5038
 4424W        W20498   2.288  14.204  13.222 -0.1222 -0.3819 -0.0021
 4425W        W20499   8.048   8.257  14.099  0.1248 -0.1476 -0.1925
 4426W        W20500  15.505  14.835   3.477  0.1937  0.3269 -0.0355
 4427W        W20501  13.131   0.467  12.010  0.0890  0.0532 -0.1101
 4428W        W20502  10.172   0.181  14.260 -0.2406  0.2724  0.1937
 4429W        W20503   1.350   1.083  12.726  0.2089  0.2261  0.3185
 4430W        W20504  16.639  18.917   1.121  0.1221  0.0104 -0.1842
 4431W        W20505  11.837   6.992   0.878  0.0357  0.0441 -0.0863
 4432W        W20506   8.115  14.551  12.383  0.1486  0.2434  0.0872
 4433W        W20507  14.038  18.112  13.535  0.2285  0.0640 -0.0044
 4434W        W20508  13.003  15.331  13.993 -0.2517  0.1453 -0.0034
 4435W        W20509  14.067   0.221  10.933  0.2262  0.1536 -0.0794
 4436W        W20510   0.195  18.926   4.422  0.0873 -0.1171  0.0473
 4437W        W20511  11.161   9.555  11.202  0.0608  0.1953 -0.0523
 4438W        W20512   9.754   5.971   0.523 -0.2124  0.1367 -0.0674
 4439W        W20513   7.415  10.498  11.204  0.3939  0.6645  0.0328
 4440W        W20514  10.153  17.823  11.435 -0.0626  0.3026  0.1581
 4441W        W20515   9.834   4.711   2.992 -0.0557 -0.0820 -0.1294
 4442W        W20516  16.851   8.098   0.171 -0.1063 -0.3285  0.2233
 4443W        W20517  17.225   9.711   2.888 -0.0397 -0.3290  0.2263
 4444W        W20518  13.151   5.845   4.071 -0.2289 -0.1930  0.0182
 4445W        W20519   2.019  11.235   1.320  0.0013  0.0012  0.0316
 4446W        W20520   8.237  15.095  10.241  0.1791 -0.2347  0.1617
 4447W        W20521  16.167   1.519  12.593  0.1116 -0.2082 -0.2678
 4448W        W20522   5.406   5.166   1.596 -0.0371 -0.1027  0.0324
 4449W        W20523  12.813  18.090   0.534  0.1516  0.0725  0.0092
 4450W        W20524   9.277   3.535   2.537 -0.0476  0.0879  0.2197
 4451W        W20525  14.597  18.498  14.229 -0.0609  0.1244  0.2302
 4452W        W20526   2.124   3.020   2.136 -0.2320  0.1633 -0.0873
 4453W        W20527   8.664   1.280   1.747  0.2910  0.2140  0.1452
 4454W        W20528   5.488   2.245   2.212 -0.0623  0.1677  0.0838
 4455W        W20529  17.008   3.408   3.834 -0.0374  0.2987 -0.2089
 4456W        W20530  12.284   0.248  11.001 -0.2107 -0.3358  0.1436
 4457W        W20531   1.847  16.417  10.440  0.0652 -0.0069  0.1421
 4458W        W20532   9.993  13.476  14.436 -0.0231  0.0138 -0.1167
 4459W        W20533  17.934  11.341   4.375  0.0871 -0.2281  0.3117
 4460W        W20534  19.311  17.627   2.886 -0.2360 -0.1889  0.0281
 4461W        W20535   4.265  15.681  10.699  0.1806 -0.3210 -0.2260
 4462W        W20536  19.171  11.388   3.426  0.1570 -0.1944  0.0980
 4463W        W20537   8.036   8.307  13.538  0.4851 -0.0379 -0.2521
 4464W        W20538  19.026  11.672  14.824 -0.0169  0.3376 -0.1124
 4465W        W20539  13.816   3.419   1.084  0.3922 -0.1260 -0.1396
 4466W        W20540   1.822   4.353  12.963 -0.3424  0.1788  0.3127
 4467W        W20541  18.247   5.441   3.823  0.1135  0.1882  0.0114
 4468W        W20542   4.505   0.915  10.621 -0.1705  0.2266 -0.0176
 4469W        W20543  10.463   2.462  11.845  0.0340 -0.0759  0.0762
 4470W        W20544   6.225  19.027  15.002  0.0704  0.1903  0.4104
 4471W        W20545  18.418  14.907   1.408  0.1166 -0.1778  0.1908
 4472W        W20546   7.609   3.937  12.813  0.0107  0.0714  0.0771
 4473W        W20547  11.083  16.550  13.242  0.0096 -0.0441  0.1063
 4474W        W20548  19.292   6.311  13.760  0.1723 -0.0860  0.1225
 4475W        W20549   4.196   7.075  12.691  0.0626 -0.0176 -0.0636
 4476W        W20550  15.253   4.779   0.889  0.0940  0.2184 -0.2616
 4477W        W20551   4.507  17.096   4.833  0.0466 -0.3747 -0.0666
 4478W        W20552   7.031   6.266  11.367 -0.0302  0.2714  0.2726
 4479W        W20553  11.909   3.685  14.689 -0.3135 -0.2000  0.1545
 4480W        W20554   9.187   0.249   2.921  0.2430 -0.0439 -0.1379
 4481W        W20555  18.305   4.940  13.673 -0.2144  0.0741 -0.3951
 4482W        W20556  11.634  12.251  11.615 -0.0813 -0.0018  0.3357
 4483W        W20557   7.390   1.436  14.216 -0.0608 -0.1100 -0.0556
 4484W        W20558  10.093   9.998   3.353 -0.1345  0.0273  0.1880
 4485W        W20559   9.484  14.020   9.962  0.0962  0.0702 -0.1033
 4486W        W20560  10.091  16.107  12.331  0.0671  0.0204  0.0270
 4487W        W20561  14.226  18.875   1.265  0.1700 -0.0493 -0.0156
 4488W        W20562  17.321   9.570   0.084 -0.2140 -0.1273  0.1175
 4489W        W20563   6.833  14.682  14.782  0.0921 -0.0787 -0.0977
 4490W        W20564   5.905  15.360  14.777 -0.4331  0.2232 -0.0857
 4491W        W20565   7.391  11.085   2.214  0.0640 -0.0281  0.1434
 4492W        W20566  14.859   3.301  14.933  0.0913 -0.1033  0.1927
 4493W        W20567   0.713   0.130   0.636 -0.2224 -0.0993 -0.0466
 4494W        W20568   6.899   3.135  13.671  0.2156  0.1687 -0.1420
 4495W        W20569   0.023  16.206   2.276 -0.0799  0.2478  0.0283
 4496W        W20570   0.421  11.435   4.578 -0.1984  0.0577  0.1392
 4497W        W20571  13.740   2.943   2.420 -0.0506  0.0295  0.1488
 4498W        W20572   3.185   0.015  14.543  0.0655  0.2318 -0.1075
 4499W        W20573   7.597   1.642  14.695  0.3484  0.3830 -0.1740
 4500W        W20574  15.477  17.911  14.254  0.1820 -0.1048  0.0866
 4501W        W20575   1.144  10.564   3.096 -0.2152 -0.0598 -0.4640
 4502W        W20576  17.024   3.203   3.098 -0.2032  0.0304  0.2538
 4503W        W20577   2.098   1.640   4.714  0.2700  0.2836 -0.5104
 4504W        W20578  17.188   2.186   4.214 -0.0516  0.1025 -0.2431
 4505W        W20579   3.084   6.367  11.498  0.0775 -0.1441 -0.0301
 4506W        W20580  10.011  16.561   0.671 -0.2439  0.0305 -0.0088
 4507W        W20581  15.238   3.238  13.274 -0.0401  0.0177 -0.1476
 4508W        W20582   2.567   3.812  11.285 -0.3005 -0.2886  0.0712
 4509W        W20583  11.146   9.805  13.007 -0.2603  0.1492  0.1660
 4510W        W20584   5.036  12.410  13.646  0.1352  0.0547 -0.0155
 4511W        W20585  12.753  15.054   0.186  0.0034  0.3548 -0.0870
 4512W        W20586   7.913   2.889  14.304  0.5859  0.3006 -0.2427
 4513W        W20587   3.283   9.870   1.326 -0.1510 -0.2977  0.0885
 4514W        W20588   8.492  15.909   2.921 -0.2229  0.0383  0.0649
 4515W        W20589  13.204  14.486   1.034  0.2036 -0.2452  0.1169
 4516W        W20590  19.306   5.160   3.685  0.0147 -0.3066 -0.1985
 4517W        W20591   7.788  13.479   3.327 -0.0907 -0.0056  0.1177
 4518W        W20592  15.981  17.893   3.047  0.2421  0.1022 -0.1074
 4519W        W20593   8.725   0.723   0.281 -0.1344  0.1494  0.0332
 4520W        W20594   0.394   8.159   0.252  0.2209 -0.2578  0.0426
 4521W        W20595  10.697   3.615   9.508  0.1433  0.2128  0.0456
 4522W        W20596   3.307   5.761  11.974  0.0323 -0.1608  0.1240
 4523W        W20597  12.029  13.271   3.095  0.3515 -0.0892 -0.2398
 4524W        W20598   1.561  11.888  13.383  0.1592  0.3757 -0.0383
 4525W        W20599   3.698   6.859   5.999 -0.1441 -0.2107  0.0568
 4526W        W20600  11.501   6.623   9.620 -0.1532  0.0410  0.1152
 4527W        W20601  15.954   2.865  13.713 -0.1112  0.2431 -0.2776
 4528W        W20602   3.598  16.357  11.444 -0.1012  0.2032  0.1055
 4529W        W20603   1.074  15.130  14.312  0.0418  0.0165  0.0275
 4530W        W20604   8.357  12.952  11.066 -0.0551 -0.2607 -0.1310
 4531W        W20605  11.536   3.302   2.354  0.0313 -0.1508  0.1151
 4532W        W20606  11.209  11.843   1.809 -0.2356 -0.0518 -0.0373
 4533W        W20607   7.155   0.142   3.601  0.0934  0.1326 -0.2426
 4534W        W20608   9.718   7.292   5.221 -0.2298  0.2986 -0.2096
 4535W        W20609   3.048   5.122   2.213  0.0737  0.2287 -0.0579
 4536W        W20610   4.021   0.857  11.859  0.1145 -0.1007  0.1346
 4537W        W20611   7.775   5.983   1.257 -0.1351 -0.0356  0.1213
 4538W        W20612  13.428  17.465  12.524 -0.1924 -0.1340  0.3580
 4539W        W20613  19.138   5.717  10.943  0.1782  0.4209 -0.2962
 4540W        W20614   3.951  18.170  10.972 -0.2211  0.1388  0.2189
 4541W        W20615  16.590   5.318   4.816 -0.3317 -0.3719 -0.1549
 4542W        W20616  17.434  14.929   3.696  0.0547  0.0054  0.0370
 4543W        W20617   1.486   9.432  11.762  0.0494  0.1998  0.2538
 4544W        W20618   1.265  18.484   5.375 -0.3335  0.2343  0.3485
 4545W        W20619  11.749  15.871  13.124 -0.1826  0.0303  0.0442
 4546W        W20620   2.288   7.136  13.191 -0.1441  0.2316 -0.1544
 4547W        W20621   4.926  16.088   4.129 -0.0861 -0.2020  0.2359
 4548W        W20622   8.959  16.118   9.955 -0.1320  0.3748 -0.1321
 4549W        W20623   2.249  15.228  10.980  0.1366 -0.1529 -0.1193
 4550W        W20624  14.327   9.194   4.721  0.0116 -0.0592 -0.1993
 4551W        W20625  16.914  14.926   4.497 -0.1475 -0.1469 -0.2034
 4552W        W20626  11.240  12.107   9.066  0.1115 -0.2568  0.3036
 4553W        W20627   3.706   8.809   2.892 -0.1933 -0.1173 -0.0971
 4554W        W20628   8.288  16.776  14.771  0.2124  0.1740 -0.2132
 4555W        W20629  14.495  13.759  12.519  0.1230  0.0059  0.2032
 4556W        W20630   8.354  19.172  12.001 -0.2261 -0.0399  0.1520
 4557W        W20631   6.539  11.341   4.007 -0.1976 -0.0284  0.0687
 4558W        W20632   7.820  10.709   3.567  0.0389 -0.2598  0.2327
 4559W        W20633   9.850  11.616   2.199  0.0562 -0.0837  0.1748
 4560W        W20634  17.879   7.764  12.793  0.3000  0.0761  0.3105
 4561W        W20635   3.735  10.001  10.789 -0.1564 -0.0665  0.0057
 4562W        W20636  16.371   0.428   5.387  0.4265 -0.2450 -0.0241
 4563W        W20637   1.693   9.271   5.000 -0.0093  0.1357 -0.2920
 4564W        W20638  11.868  11.823   4.488 -0.1318 -0.4988 -0.0576
 4565W        W20639  15.239   1.298  14.671 -0.4114 -0.0385  0.2018
 4566W        W20640   8.885   4.944   3.331  0.0348 -0.1536  0.3194
 4567W        W20641   2.898   8.207   5.482  0.0662  0.4210 -0.1260
 4568W        W20642  16.278   5.441  12.111  0.3045  0.3300  0.1424
 4569W        W20643   9.987  10.198   5.029  0.1245 -0.2414 -0.1737
 4570W        W20644  13.035   0.250   0.201 -0.0567  0.1645 -0.2031
 4571W        W20645  15.591   9.855  13.505  0.5236  0.2470  0.1604
 4572W        W20646  14.494  10.257   1.867  0.0764 -0.1355  0.0512
 4573W        W20647  14.783   4.382   1.874  0.0202 -0.1474  0.1541
 4574W        W20648  11.517   0.134  14.691 -0.1579 -0.2576  0.0694
 4575W        W20649  12.193   0.543  11.579  0.0587  0.4985  0.3436
 4576W        W20650   3.919  11.994  14.724  0.1310  0.1492  0.2314
 4577W        W20651  10.882  14.644  14.955  0.0392  0.2464  0.0249
 4578W        W20652   3.247  10.431   2.994 -0.0236 -0.2186 -0.1436
 4579W        W20653   3.445   2.282  10.725 -0.1016  0.1232 -0.2984
 4580W        W20654  17.773  10.806   3.305 -0.0529 -0.0544  0.1357
 4581W        W20655  16.648   9.623   5.723  0.0799 -0.2491 -0.2459
 4582W        W20656   9.410   5.709  10.606 -0.0942  0.0070  0.2934
 4583W        W20657  14.247   3.419   0.830 -0.2922 -0.2372 -0.3042
 4584W        W20658   7.689  15.247   9.872 -0.0497  0.3687 -0.0877
 4585W        W20659  14.867   5.833  13.245  0.1031 -0.0451  0.1531
 4586W        W20660  10.510  15.999   3.175  0.2471  0.0195 -0.1313
 4587W        W20661   8.589  16.048   0.583 -0.1409  0.0856 -0.2488
 4588W        W20662   5.663   2.985   0.045 -0.1458  0.1366  0.1430
 4589W        W20663   7.360   1.665   2.455 -0.2504 -0.3468 -0.0214
 4590W        W20664   3.735   6.890  14.370 -0.1400  0.1184  0.3622
 4591W        W20665  18.635   3.944   4.924  0.1491  0.1168 -0.3377
 4592W        W20666  19.108  11.837   2.059 -0.1801  0.2504 -0.1649
 4593W        W20667   7.987   5.432  13.598 -0.1213 -0.0643  0.1989
 4594W        W20668   7.257   8.112   3.016 -0.0266 -0.1636 -0.1970
 4595W        W20669   7.470  13.861  12.692 -0.1337 -0.0573  0.0203
 4596W        W20670   3.475   9.936   4.313  0.3024 -0.0976  0.2432
 4597W        W20671   6.720   8.211  11.531 -0.0498 -0.0494 -0.1330
 4598W        W20672  18.806  10.880   4.708 -0.3335  0.0238  0.0031
 4599W        W20673   7.072  12.701   4.043  0.0122  0.0356  0.0643
 4600W        W20674   5.108   5.626   0.846 -0.0988 -0.0613  0.1506
 4601W        W20675   3.301  12.777  12.342 -0.0081 -0.1125  0.2169
 4602W        W20676  19.219  14.754  14.190  0.0319 -0.2772 -0.0635
 4603W        W20677  17.102   0.408  12.836  0.3785 -0.2626 -0.0983
 4604W        W20678  13.115  13.546  13.492  0.1076  0.0757 -0.0242
 4605W        W20679  14.812   4.019  11.203 -0.1082  0.0090 -0.0425
 4606W        W20680   8.782  14.296   1.998  0.2936 -0.2265  0.2448
 4607W        W20681  18.623  17.493   4.481 -0.2887  0.4090 -0.0765
 4608W        W20682  11.768   9.322  14.674  0.5461 -0.1386 -0.1166
 4609W        W20683   6.009  15.372   2.901 -0.1042  0.1779  0.0270
 4610W        W20684  12.925  14.581   2.812 -0.1324 -0.1653  0.1059
 4611W        W20685   9.622  13.068  10.301 -0.2516  0.3063  0.1864
 4612W        W20686   0.253  10.930  12.094  0.1154  0.0616  0.2292
 4613W        W20687  17.508   0.014   6.347  0.1092 -0.1721  0.3119
 4614W        W20688  17.373   6.572  13.666 -0.0914 -0.1774 -0.0330
 4615W        W20689   2.783  13.707  12.866  0.0359  0.1058 -0.0606
 4616W        W20690   0.254   0.699  12.636  0.0972 -0.1500 -0.3277
 4617W        W20691  16.741   8.246   1.427  0.2069 -0.2069 -0.0845
 4618W        W20692   4.438  12.690  10.719  0.0526  0.3234 -0.0629
 4619W        W20693   6.367  15.816  12.844  0.1335 -0.0172  0.2279
 4620W        W20694  13.553  12.384  13.903 -0.1215 -0.1891  0.0820
 4621W        W20695  18.903  15.656   0.248  0.0301 -0.0178 -0.2118
 4622W        W20696  17.791  12.118   4.302 -0.0392  0.0544 -0.1429
 4623W        W20697   4.498   4.804  12.224  0.3515 -0.0325 -0.2978
 4624W        W20698  17.542   9.313   1.335  0.0787  0.2491  0.1191
 4625W        W20699   9.379   1.155  13.223  0.0008  0.0499 -0.0020
 4626W        W20700   5.756  15.289   1.979 -0.1251  0.2270 -0.0123
 4627W        W20701  11.990   2.812   8.977  0.0725  0.1266 -0.0024
 4628W        W20702   5.256  16.734   1.140 -0.1678 -0.0012 -0.4149
 4629W        W20703   4.623  15.745   4.303  0.4351  0.2506 -0.4985
 4630W        W20704   5.060   7.745  11.886  0.2574 -0.4919 -0.0828
 4631W        W20705   6.450   0.868  14.700 -0.4065  0.4863 -0.1423
 4632W        W20706  15.675  10.454   3.563  0.1788 -0.1723  0.0891
 4633W        W20707   8.044   3.651  12.756  0.2055  0.0927 -0.4004
 4634W        W20708  16.184  14.793   5.118 -0.2008 -0.0100  0.0453
 4635W        W20709   5.450   3.670   2.788  0.0429 -0.1703 -0.3518
 4636W        W20710   6.621  19.271   1.040  0.0801  0.1780 -0.0560
 4637W        W20711   6.338   2.827   1.607  0.1979  0.1841 -0.0803
 4638W        W20712  14.211  11.667  11.757 -0.0891  0.3301 -0.0399
 4639W        W20713   2.732   8.186   0.192 -0.3485  0.3928  0.2669
 4640W        W20714   4.467  17.546   3.909 -0.1143  0.0584  0.0768
 4641W        W20715  15.909  13.412   4.577 -0.1178 -0.3035 -0.1714
 4642W        W20716   0.074   9.836   2.093  0.0069  0.2302 -0.0448
 4643W        W20717  17.235   6.612   5.083  0.0737  0.2790 -0.0517
 4644W        W20718   8.932   7.745  14.200 -0.0259 -0.1108 -0.0414
 4645W        W20719   7.041   2.054  10.471  0.0157 -0.1381 -0.3648
 4646W        W20720  12.816   4.552  10.647 -0.1916 -0.3503  0.3687
 4647W        W20721  15.932  16.022   2.283 -0.0037  0.1367 -0.0596
 4648W        W20722   7.675  16.676   0.710 -0.1079  0.0227 -0.1153
 4649W        W20723  15.862   9.480   2.416 -0.0630 -0.2649 -0.2164
 4650W        W20724   1.974  15.212   2.740  0.3210 -0.2272 -0.1808
 4651W        W20725   1.231   2.778  10.820 -0.0896 -0.0789 -0.1875
 4652W        W20726   7.478   7.368  10.599  0.2141  0.0770  0.4506
 4653W        W20727   7.576  13.279  11.071  0.1048 -0.1898 -0.0129
 4654W        W20728   8.707  10.660   3.616  0.1747 -0.0139  0.3342
 4655W        W20729  10.407   7.303  10.493 -0.1639 -0.0769  0.0401
 4656W        W20730  11.170   6.317  14.004  0.0135 -0.0524 -0.2032
 4657W        W20731  11.802  18.161   2.652 -0.2282 -0.0282 -0.1994
 4658W        W20732   9.194   1.973   2.010  0.1658 -0.0257 -0.0290
 4659W        W20733  13.280   8.530  11.313  0.0383 -0.2754  0.0797
 4660W        W20734   5.646   8.051  13.098  0.4445 -0.1634 -0.2801
 4661W        W20735  13.663   3.720   0.548  0.0674  0.0403  0.1521
 4662W        W20736   9.978  15.657   0.071 -0.1885  0.0512 -0.1300
 4663W        W20737   0.876   5.356  14.600 -0.0902  0.0589 -0.0276
 4664W        W20738   6.883   5.651   0.908 -0.5384  0.0768 -0.0900
 4665W        W20739  16.432  10.222   4.503 -0.0524 -0.1708 -0.1856
 4666W        W20740   3.225  10.006   2.752 -0.3145  0.3537  0.1855
 4667W        W20741   3.229  12.125  12.866 -0.1219 -0.0762  0.3062
 4668W        W20742   6.262  10.615   4.498  0.0215 -0.0066  0.2390
 4669W        W20743   4.727  12.287   3.339  0.2358  0.1275  0.0351
 4670W        W20744  11.460  14.717   0.704 -0.1613 -0.4032  0.3216
 4671W        W20745   6.571  11.418  13.224  0.1271 -0.0660 -0.0033
 4672W        W20746   2.046   4.031  12.573 -0.0794  0.0771 -0.3026
 4673W        W20747  11.890   8.527  11.784 -0.0767 -0.0358  0.1561
 4674W        W20748  10.226  12.836   1.961 -0.3073 -0.5950  0.3189
 4675W        W20749   2.179   5.822  14.752  0.0959  0.0734 -0.4847
 4676W        W20750   0.382   5.513  11.190  0.0264  0.0724  0.0242
 4677W        W20751   4.340  10.321  14.720  0.3252  0.0062 -0.3048
 4678W        W20752  19.286  17.205  11.656  0.0184 -0.1623 -0.1013
 4679W        W20753  11.310   2.008  14.410 -0.0134  0.1280  0.1601
 4680W        W20754  17.340   0.865   1.516 -0.2110  0.1349  0.0891
 4681W        W20755   7.531  16.282  13.308  0.0136 -0.3120  0.1074
 4682W        W20756  13.937   1.272  11.529  0.2987  0.1090 -0.0711
 4683W        W20757  17.611   0.406  10.824 -0.2595 -0.2085  0.3086
 4684W        W20758  17.019  18.173   1.561 -0.0678 -0.3187  0.2892
 4685W        W20759   8.315  14.232  12.856  0.1344 -0.1059 -0.0606
 4686W        W20760   9.665  13.513  13.479 -0.0979  0.0632  0.3244
 4687W        W20761   9.962  15.652  12.476 -0.1440  0.1412 -0.1259
 4688W        W20762   3.815   4.602   4.605 -0.1980 -0.2860 -0.0869
 4689W        W20763   7.057   6.640   5.490 -0.0388 -0.3806  0.1323
 4690W        W20764  10.315  17.954   2.722 -0.0434  0.0514 -0.1684
 4691W        W20765   8.234   3.174   4.793 -0.1313  0.0366  0.2899
 4692W        W20766  10.917  18.442  13.886 -0.1569 -0.1337  0.4350
 4693W        W20767   2.608  14.362   1.877 -0.0918 -0.2904  0.1660
 4694W        W20768   2.291  14.325   1.275 -0.4349 -0.1711 -0.0101
 4695W        W20769  13.182  19.064  13.372 -0.0179 -0.1223 -0.1424
 4696W        W20770  14.336   9.526   3.858 -0.0955  0.1005 -0.0897
 4697W        W20771   8.441   6.309  12.952  0.0880 -0.3552 -0.4511
 4698W        W20772   6.480  16.273  10.337  0.0593  0.4051  0.0569
 4699W        W20773   2.979   8.317  13.424  0.2528 -0.0044  0.0619
 4700W        W20774  11.799   0.408   4.952  0.3324 -0.4129  0.1751
 4701W        W20775  12.717  15.626   1.513  0.3083 -0.1330  0.1993
 4702W        W20776   0.362   3.900  13.797  0.1651  0.3613  0.0407
 4703W        W20777   4.397   9.639  14.170 -0.2324 -0.0551  0.0383
 4704W        W20778  17.493  14.847  13.003 -0.1882  0.0845  0.1376
 4705W        W20779  11.186   9.702  13.919 -0.2613 -0.0751 -0.0712
 4706W        W20780  14.352   4.751   2.644 -0.0173  0.2445 -0.0752
 4707W        W20781   6.475  10.317   0.011 -0.0219 -0.1658 -0.0884
 4708W        W20782  17.448  13.581  10.591  0.6519  0.1882  0.0921
 4709W        W20783  11.427  18.435   4.517 -0.4714 -0.0425  0.1836
 4710W        W20784  11.997   2.321   2.502 -0.1198 -0.1818  0.2220
 4711W        W20785  19.269  12.063   0.188  0.1256 -0.0314 -0.1505
 4712W        W20786   5.850  10.475   0.610  0.0784 -0.1159 -0.2455
 4713W        W20787   2.694   1.568   0.796 -0.1959 -0.0630 -0.1060
 4714W        W20788  11.669   0.828  13.903 -0.2071  0.1106  0.0689
 4715W        W20789   1.857   4.183   1.055  0.0279 -0.0879  0.2104
 4716W        W20790  14.164  14.735   1.129  0.0454  0.3368  0.0809
 4717W        W20791   2.211   0.879   5.016 -0.3565  0.2690 -0.1257
 4718W        W20792   0.082  10.726   4.849  0.0068  0.5430  0.0896
 4719W        W20793   1.001   8.018   1.817 -0.1531 -0.0384 -0.1670
 4720W        W20794  16.767   2.869   0.102  0.2270  0.3297  0.1654
 4721W        W20795  15.617  15.265  13.142  0.2113 -0.0776 -0.3587
 4722W        W20796  12.529   6.386  13.576 -0.1147 -0.1600 -0.1364
 4723W        W20797  10.304   7.212   0.995 -0.1628  0.2843  0.0526
 4724W        W20798  16.126   3.232   4.815  0.0749  0.0098  0.0521
 4725W        W20799   5.745   4.825   3.185 -0.2285 -0.1178 -0.1278
 4726W        W20800   7.952  12.963   2.275  0.0982 -0.0570 -0.0180
 4727W        W20801   1.351   6.853  12.587  0.1286 -0.1913 -0.1615
 4728W        W20802   1.124   4.442   5.038 -0.2849 -0.1685  0.1954
 4729W        W20803   9.650   5.794   3.334 -0.6057 -0.0389  0.3428
 4730W        W20804   5.164  16.071   3.445 -0.3205 -0.1561  0.2096
 4731W        W20805   7.869   3.749  10.704 -0.2683  0.2188  0.2044
 4732W        W20806   8.373   7.492  13.346  0.1839 -0.0401 -0.2883
 4733W        W20807   2.232   1.156  10.686 -0.2215 -0.0600  0.1266
 4734W        W20808   2.267   8.671  13.045 -0.2083  0.1956 -0.1073
 4735W        W20809  12.164  11.842  14.210 -0.2053 -0.1539  0.1841
 4736W        W20810  17.812  11.957  14.983  0.0108  0.0674  0.0507
 4737W        W20811  10.413   9.463  14.959  0.2025 -0.1584 -0.0094
 4738W        W20812  12.175  15.566   4.424 -0.0165 -0.0188  0.2132
 4739W        W20813  13.843   9.073  13.344  0.3568 -0.4023 -0.3706
 4740W        W20814   5.561   2.862  14.574  0.1417  0.0203  0.0558
 4741W        W20815   7.967   0.804   4.824  0.0580  0.0868 -0.0905
 4742W        W20816   3.683  12.804   0.479  0.4494  0.1170  0.2067
 4743W        W20817   9.253  12.380   3.693  0.0736 -0.1354  0.1808
 4744W        W20818  15.278   1.271   4.535  0.2099 -0.0795 -0.0783
 4745W        W20819  11.841   8.887   9.540 -0.5039 -0.1663 -0.1234
 4746W        W20820   1.276  10.861   0.169 -0.0614 -0.0542  0.1238
 4747W        W20821  17.429  11.853   3.355  0.0035 -0.1982  0.0300
 4748W        W20822  17.573  10.982   2.397  0.2378  0.4475 -0.2078
 4749W        W20823   0.462  13.200  14.881  0.0386 -0.2411 -0.1203
 4750W        W20824  14.832  13.493  14.195 -0.3217 -0.3109 -0.0673
 4751W        W20825   8.671  15.974   2.115 -0.0845  0.0108 -0.0516
 4752W        W20826  10.029  18.732  14.065  0.1609 -0.1409 -0.1498
 4753W        W20827   1.643  17.963   3.715 -0.1028 -0.0414  0.1244
 4754W        W20828  12.842  10.156   1.835  0.2964  0.0237 -0.0519
 4755W        W20829  11.313   5.500   5.441  0.1290 -0.2705 -0.2002
 4756W        W20830   3.847  12.005   0.787  0.1522  0.0899  0.1908
 4757W        W20831  10.357   8.748  14.505  0.0381  0.0217  0.1971
 4758W        W20832  16.567  17.830  11.094  0.1118  0.2010  0.2216
 4759W        W20833   9.697  15.894  11.333 -0.2272  0.0951  0.1000
 4760W        W20834  16.646   4.137   1.133 -0.0377 -0.3299  0.0017
 4761W        W20835   6.627  19.139   9.238 -0.0212  0.2332 -0.0646
 4762W        W20836  17.553   9.316   2.879  0.1324 -0.2052  0.0534
 4763W        W20837   4.555  13.211  10.817 -0.2230  0.0931 -0.7602
 4764W        W20838  11.138  13.062   0.449 -0.3739  0.2747  0.1124
 4765W        W20839  13.060   1.737  11.435  0.1619  0.0138  0.1691
 4766W        W20840  17.346  10.553   0.386 -0.0306  0.0330  0.0596
 4767W        W20841   4.532  18.988  14.799 -0.1043 -0.3024  0.0234
 4768W        W20842  13.677   3.249   9.623 -0.1253  0.0668 -0.0580
 4769W        W20843  13.398  16.374   9.282 -0.2840  0.0756 -0.0951
 4770W        W20844   0.381   0.795  14.459 -0.2657  0.1971  0.0214
 4771W        W20845  12.571   5.868  13.580  0.0646 -0.0728 -0.0817
 4772W        W20846   8.369   7.629   0.997  0.1669  0.0459  0.0964
 4773W        W20847   7.436   6.972  13.727 -0.0562 -0.0842  0.0247
 4774W        W20848  14.607   1.236   0.277 -0.0391  0.3595  0.0190
 4775W        W20849  10.062  10.545   1.695 -0.0980 -0.0016  0.1063
 4776W        W20850   9.075   2.675  14.372  0.0750  0.1965 -0.0806
 4777W        W20851   2.453   3.994   1.220  0.0166  0.1710  0.0265
 4778W        W20852   7.781   8.439  12.585 -0.1579  0.1282  0.1556
 4779W        W20853   1.770   5.729  11.971 -0.0734 -0.3549  0.0326
 4780W        W20854  17.483  19.273   0.258  0.0513 -0.0708 -0.2003
 4781W        W20855   9.779   4.615  12.851  0.0102 -0.2479  0.2473
 4782W        W20856  10.115  11.693  11.756 -0.0507 -0.0909 -0.2545
 4783W        W20857   6.980  15.744   0.878  0.0349 -0.0850  0.2211
 4784W        W20858  11.833   6.618  14.107  0.1024  0.2177 -0.1106
 4785W        W20859  14.356   5.492   5.117  0.1784 -0.0389 -0.0180
 4786W        W20860  18.638   4.008   1.055 -0.0888 -0.0148  0.0244
 4787W        W20861   3.185  12.081   0.830 -0.1025  0.2525  0.1123
 4788W        W20862   1.436  18.611  10.358 -0.0932 -0.0573 -0.0866
 4789W        W20863  13.439  19.222  11.446  0.2084  0.0471  0.3924
 4790W        W20864  15.786  10.869   5.406  0.1266  0.1284  0.0240
 4791W        W20865  13.911   9.868   1.363  0.5568 -0.2569 -0.1124
 4792W        W20866   0.508  12.473  12.919  0.1954  0.0235 -0.1194
 4793W        W20867   9.413   1.821   4.367 -0.2888  0.3278 -0.0318
 4794W        W20868  17.221   6.350  10.473 -0.0358 -0.4317  0.2373
 4795W        W20869   4.034  13.968  13.348  0.1001  0.0257 -0.1378
 4796W        W20870   3.463  16.391   0.012 -0.2116 -0.3822 -0.0424
 4797W        W20871  15.874  14.023  12.789 -0.1898  0.1019 -0.0450
 4798W        W20872   6.238   6.787   4.076  0.0920 -0.3343  0.0745
 4799W        W20873   1.198   4.516   1.774 -0.0303 -0.0917 -0.0992
 4800W        W20874   4.856  14.590  13.698  0.1788  0.0454 -0.0809
 4801W        W20875   3.482   5.797   0.277  0.3633 -0.0732  0.2912
 4802W        W20876   8.777  13.387  11.557  0.3454 -0.5866 -0.1459
 4803W        W20877   9.478   3.112   1.843  0.2241 -0.0636  0.0111
 4804W        W20878  13.916  11.739  12.163 -0.1513  0.0564 -0.0522
 4805W        W20879  10.678  16.510   1.315 -0.1435 -0.1755 -0.1055
 4806W        W20880   7.449  13.057   3.444 -0.5155 -0.1635 -0.1051
 4807W        W20881  13.136   7.645   0.415  0.4566 -0.0397  0.0392
 4808W        W20882  16.002   5.901   5.075 -0.2114  0.2716  0.1472
 4809W        W20883   0.845  13.222  10.945 -0.1166 -0.1152  0.2212
 4810W        W20884  16.056  18.369  10.811  0.1495  0.1139 -0.0760
 4811W        W20885  12.219  13.813   4.553  0.0386 -0.1581  0.2575
 4812W        W20886   1.161  14.546  13.227 -0.1443  0.1517  0.2660
 4813W        W20887   5.764   2.525   1.800  0.1937 -0.0391  0.0252
 4814W        W20888  17.506   1.021   2.037 -0.0285 -0.3325  0.0235
 4815W        W20889  12.942   5.596   2.539 -0.1414  0.2510 -0.0954
 4816W        W20890   1.711  18.767   3.093  0.1083  0.3754  0.3964
 4817W        W20891  15.734  13.671   1.521 -0.1359 -0.0336  0.3569
 4818W        W20892   8.024  14.664  13.587 -0.1104 -0.0525  0.0998
 4819W        W20893  11.690  18.609   1.792  0.0617 -0.0186  0.1374
 4820W        W20894  14.673   8.765  12.282 -0.0928 -0.2758  0.0424
 4821W        W20895   2.095  18.960  14.731 -0.0506  0.3057 -0.3365
 4822W        W20896  11.984   1.621   4.948  0.0097  0.0793 -0.0251
 4823W        W20897  13.720   4.078   1.054  0.1530 -0.3307 -0.1853
 4824W        W20898  12.150   1.359  11.308 -0.0635 -0.1200  0.3743
 4825W        W20899  14.407  11.461  11.260  0.1555  0.0564  0.1649
 4826W        W20900  10.409   1.666   4.436 -0.0055 -0.2637  0.1784
 4827W        W20901  12.892   0.264  11.528  0.2210 -0.0511 -0.0107
 4828W        W20902  15.238   7.349   3.369  0.2141  0.1411 -0.1365
 4829W        W20903   7.348  10.869   1.715 -0.0913  0.0919  0.1747
 4830W        W20904   7.518   9.678  13.947 -0.0177 -0.2617  0.2707
 4831W        W20905   2.548   8.284   4.593 -0.0389 -0.2360 -0.3220
 4832W        W20906  12.157  13.800  12.488 -0.1354  0.2594 -0.1028
 4833W        W20907   4.444  18.683   2.671 -0.0377 -0.0778 -0.0106
 4834W        W20908   4.296   6.228   0.789  0.2071 -0.1683 -0.3496
 4835W        W20909  17.423  10.332   2.235 -0.1807  0.1943 -0.1416
 4836W        W20910  16.395   6.201  11.574  0.1975 -0.3731  0.0845
 4837W        W20911  12.666   6.806   1.894 -0.0517 -0.1171 -0.0166
 4838W        W20912   3.379  13.476   4.633 -0.0122  0.3626 -0.1746
 4839W        W20913   6.917  16.903   0.245 -0.1093 -0.4238  0.0081
 4840W        W20914   0.318  16.133   0.254 -0.0979  0.2482  0.1135
 4841W        W20915  12.410   2.923  13.355 -0.1294  0.1512 -0.2551
 4842W        W20916  18.274   9.744   0.428 -0.2317 -0.2536 -0.0168
 4843W        W20917  13.009  18.012  12.462 -0.0570 -0.1707 -0.2257
 4844W        W20918   5.377   1.947  12.439 -0.1548 -0.1838 -0.0220
 4845W        W20919  12.486  18.466  14.845  0.0510 -0.3892  0.1981
 4846W        W20920  14.923   2.586  10.975  0.1672  0.4472  0.2805
 4847W        W20921  13.861  13.819  11.042 -0.0824  0.1155  0.1553
 4848W        W20922  13.651  10.556  12.076 -0.1341 -0.3674  0.3168
 4849W        W20923  16.666   3.881   3.748 -0.1726 -0.0335  0.0463
 4850W        W20924   5.779  11.827  11.658 -0.1285  0.0965 -0.0856
 4851W        W20925   8.520  19.335   4.627  0.1001 -0.2676  0.3203
 4852W        W20926  14.249  18.806   2.122 -0.2157 -0.1725  0.0596
 4853W        W20927   1.690   5.058   0.433 -0.3413  0.1862  0.0520
 4854W        W20928   7.777  17.022   8.948 -0.0019 -0.0435  0.2701
 4855W        W20929   5.637   4.412  13.996 -0.1835  0.2802  0.0636
 4856W        W20930   8.323  10.495  13.504  0.4517 -0.0189  0.4833
 4857W        W20931   8.874  14.080   1.218  0.0033 -0.1052 -0.0082
 4858W        W20932   3.682   3.277  12.850 -0.0678  0.1499  0.3219
 4859W        W20933   5.398  16.052  12.363  0.0319 -0.0960 -0.1151
 4860W        W20934   8.427  11.719   4.250  0.2255  0.1085 -0.0516
 4861W        W20935  10.214   0.516  12.354 -0.2482 -0.0390 -0.1242
 4862W        W20936  12.231   2.629   3.473 -0.0354 -0.0752 -0.1174
 4863W        W20937   1.613   3.928  12.836  0.2384 -0.1723  0.0117
 4864W        W20938   7.207  16.756  13.103  0.1656 -0.3299 -0.0482
 4865W        W20939  13.351  12.293  11.431 -0.0163  0.0286 -0.1720
 4866W        W20940   3.262   2.616  11.141 -0.0414 -0.0877 -0.5317
 4867W        W20941  15.966  15.695  10.957 -0.2160 -0.1790  0.0891
 4868W        W20942  16.193   9.317   0.229 -0.1408 -0.1416 -0.1536
 4869W        W20943  11.883   3.276   3.604 -0.0845  0.1913  0.0168
 4870W        W20944   4.047  16.123   2.219 -0.4062 -0.2686  0.1137
 4871W        W20945   2.221   8.711   2.995 -0.0579  0.0773  0.1550
 4872W        W20946  11.945   9.902   2.806 -0.1773  0.0248 -0.1226
 4873W        W20947   1.375   1.157   1.228  0.0677  0.3905  0.3234
 4874W        W20948   6.972  10.031  13.781  0.1250  0.0807 -0.0492
 4875W        W20949  16.886   2.859  14.639  0.4137 -0.0806  0.2654
 4876W        W20950  16.204   1.553  14.445 -0.1118  0.1748  0.0576
 4877W        W20951   1.249  11.391   5.936 -0.2862  0.2125 -0.1643
 4878W        W20952  11.319   3.491  10.383  0.1052  0.5014  0.4561
 4879W        W20953   9.401   2.619  11.807 -0.1298  0.0637  0.1413
 4880W        W20954   2.908   1.623   1.252  0.0938  0.1232  0.0655
 4881W        W20955   3.280   6.285   0.446 -0.0296 -0.0065 -0.1714
 4882W        W20956   7.218  15.447   3.665 -0.1152 -0.0561 -0.2170
 4883W        W20957  11.446   5.815   4.589 -0.0570 -0.1734 -0.2096
 4884W        W20958   1.867  13.252   4.656 -0.0131  0.1719 -0.1117
 4885W        W20959  15.562  15.832   2.858 -0.2066 -0.3543  0.1805
 4886W        W20960   9.646   9.536  14.389 -0.0272  0.1758 -0.0912
 4887W        W20961  18.714  17.939  12.718 -0.0635  0.0253 -0.0519
 4888W        W20962   6.745  14.093   0.246  0.2999 -0.0628 -0.2446
 4889W        W20963  12.923  18.163  11.601 -0.1504 -0.0553  0.2275
 4890W        W20964   6.295   3.915  11.645  0.0436 -0.1465 -0.0158
 4891W        W20965   5.572  10.846  10.817  0.1109  0.0355 -0.0616
 4892W        W20966  14.244   4.938   4.800 -0.6209 -0.4357  0.2129
 4893W        W20967  19.134   4.514  11.686 -0.1573 -0.3266  0.0229
 4894W        W20968  11.888   7.820   4.054 -0.2498  0.0475 -0.0669
 4895W        W20969  16.260  11.929  14.596 -0.0876 -0.0828 -0.3003
 4896W        W20970   8.991   3.450  12.790 -0.1593 -0.1064  0.0111
 4897W        W20971   7.545  18.535  13.465 -0.0609 -0.1852 -0.3915
 4898W        W20972  17.471  11.953   2.263  0.1829 -0.2063 -0.0769
 4899W        W20973   5.933  14.565   4.057  0.1834  0.1493  0.0890
 4900W        W20974   6.342   0.724  11.804  0.3453  0.0636  0.0309
 4901W        W20975   6.439  11.229  10.968 -0.1398 -0.0918 -0.1229
 4902W        W20976  12.214  16.362   3.082 -0.0292  0.2235  0.0451
 4903W        W20977  13.304   0.335  10.158  0.2873 -0.1885 -0.1240
 4904W        W20978  10.585  18.770   1.230  0.0330  0.0075  0.0550
 4905W        W20979   7.015   4.837   1.925 -0.0317  0.1867  0.2095
 4906W        W20980   1.933   6.478   4.056 -0.4664  0.3477  0.0675
 4907W        W20981   8.210  13.066  12.872 -0.0443  0.2352 -0.1561
 4908W        W20982   7.344   3.711   9.910 -0.3033  0.3125 -0.1907
 4909W        W20983   6.008  14.224   4.451  0.0431  0.0631 -0.1595
 4910W        W20984  11.472  17.704  14.019 -0.1265  0.2798  0.0013
 4911W        W20985   2.542   1.920   4.515 -0.1253 -0.2736 -0.1384
 4912W        W20986  16.161   4.015  11.477 -0.2593 -0.1505 -0.1932
 4913W        W20987   3.580  11.999   4.383 -0.1948 -0.3407 -0.2800
 4914W        W20988  16.617   4.403   0.258  0.1111  0.0238  0.2240
 4915W        W20989   7.154  12.032   3.555  0.2410 -0.1928 -0.0603
 4916W        W20990  18.584  12.714   0.201  0.2996 -0.0035 -0.0772
 4917W        W20991   3.052  13.135  12.037 -0.1124  0.4119 -0.2621
 4918W        W20992   9.741   2.146   0.390 -0.1944 -0.0403 -0.0582
 4919W        W20993  14.234  18.071  11.670  0.0056  0.0566 -0.0060
 4920W        W20994  14.811  16.708  11.740  0.0907 -0.0160 -0.0799
 4921W        W20995   9.246  18.558  14.268 -0.0935 -0.2824  0.1635
 4922W        W20996  17.252   9.429   1.938  0.2715  0.1486  0.5729
 4923W        W20997   4.819   3.942  11.321 -0.2296  0.1971 -0.0947
 4924W        W20998   9.215   5.973  12.468  0.0985 -0.1975 -0.1983
 4925W        W20999   2.399  12.377   0.988 -0.3436 -0.1085  0.1329
 4926W        W21000  12.189  17.168  12.954 -0.1429 -0.1745  0.0650
 4927W        W21001  19.265   5.002  11.777 -0.3335 -0.0655  0.0746
 4928W        W21002  14.360   3.303   3.202 -0.3705 -0.0093 -0.1513
 4929W        W21003   6.636   3.511  13.972  0.0034 -0.1193  0.0932
 4930W        W21004   5.314   7.039   2.073 -0.0523 -0.2277 -0.1818
 4931W        W21005  17.208   7.754   0.041 -0.0702 -0.0182  0.1343
 4932W        W21006  17.274  12.438   5.611  0.2470  0.1896 -0.3008
 4933W        W21007   6.842   1.847   0.419  0.1093 -0.2861  0.2699
 4934W        W21008   0.514  18.335   1.375 -0.0451  0.0400 -0.1206
 4935W        W21009   6.744   4.383   1.739  0.1293 -0.0607 -0.1119
 4936W        W21010  10.838  17.925   0.696 -0.3921  0.2576 -0.3386
 4937W        W21011   2.687   3.024  11.891  0.0593  0.0761 -0.0182
 4938W        W21012  14.429   2.149  12.986 -0.0586  0.2465  0.3390
 4939W        W21013   3.739  13.774   4.592 -0.1051  0.2198  0.2393
 4940W        W21014  15.039  14.485  10.789  0.0499 -0.1894  0.0499
 4941W        W21015   3.535  13.617   5.167  0.0718  0.1069 -0.1109
 4942W        W21016   3.938  10.613   3.102 -0.0436 -0.1453 -0.0691
 4943W        W21017  17.549   6.373  13.173  0.0690 -0.1770  0.2017
 4944W        W21018  15.777   3.721  13.696  0.1412 -0.0137 -0.5299
 4945W        W21019   1.685   0.459  11.243 -0.1072  0.0165 -0.0551
 4946W        W21020  18.096   6.960   3.626  0.1029 -0.0200 -0.2168
 4947W        W21021  13.164   4.491   4.175 -0.1104  0.2842  0.1743
 4948W        W21022   9.001  11.606  13.631  0.2801  0.0234  0.3487
 4949W        W21023   1.889   6.287   2.231 -0.0296 -0.2019 -0.0858
 4950W        W21024   9.093   9.392   0.046 -0.2833  0.1213  0.1443
 4951W        W21025  16.090  17.804  12.034  0.1980 -0.2642  0.1228
 4952W        W21026   2.043   1.834   4.263  0.1782 -0.1758 -0.0136
 4953W        W21027   0.225  12.137  13.901  0.2893  0.3140 -0.1710
 4954W        W21028   4.846   9.557  10.163  0.2064 -0.3935 -0.1960
 4955W        W21029   1.872   9.534   5.592  0.0137 -0.0749 -0.0097
 4956W        W21030  10.671   4.330   3.538 -0.0002  0.1906  0.1041
 4957W        W21031   2.301  10.157   5.163 -0.5190 -0.1311 -0.4112
 4958W        W21032  13.231   9.636   3.462  0.1852 -0.0175 -0.2804
 4959W        W21033   4.062  10.696   2.566 -0.2002 -0.0121 -0.2291
 4960W        W21034   4.757  17.411   1.410 -0.0605 -0.0499  0.0777
 4961W        W21035  12.876  14.287   5.708  0.0815  0.1345  0.2243
 4962W        W21036   7.955   9.922   1.379 -0.1060  0.2534 -0.2332
 4963W        W21037  15.133  13.040   4.890  0.1949  0.0048 -0.2942
 4964W        W21038  16.977  11.562  11.205 -0.1519 -0.3028 -0.0214
 4965W        W21039   8.127   6.734   0.511 -0.1162  0.0314 -0.1622
 4966W        W21040  11.110  18.147   5.508 -0.0277  0.1179  0.4704
 4967W        W21041  16.966  15.900   1.209 -0.1222  0.0228 -0.1508
 4968W        W21042  12.059   0.254   9.833  0.3223  0.0148  0.0674
 4969W        W21043  11.422  13.809   2.752 -0.0436 -0.2200 -0.0062
 4970W        W21044  19.125   1.144   0.924 -0.0615  0.1505  0.0532
 4971W        W21045   5.069   8.926  12.615 -0.0388 -0.2704 -0.2670
 4972W        W21046  18.876  16.073  14.022 -0.1197  0.1957  0.1681
 4973W        W21047   9.905  10.894  12.530 -0.0648  0.1704  0.0261
 4974W        W21048  13.182  12.839   4.901 -0.2909  0.2332  0.0412
 4975W        W21049  14.370  16.011  14.957  0.0421  0.2028  0.3306
 4976W        W21050   0.393  13.516   1.321  0.0505 -0.0524  0.2058
 4977W        W21051   5.257  14.082   1.608  0.0921 -0.0938 -0.1364
 4978W        W21052  10.818   1.140   1.483  0.0581  0.3773 -0.1809
 4979W        W21053   4.774   3.408   3.363  0.0257  0.0459  0.1284
 4980W        W21054  16.877   1.696   1.723 -0.0539 -0.0336  0.0121
 4981W        W21055   6.695   6.137  12.677 -0.0394  0.3237  0.1946
 4982W        W21056  18.169  11.527  14.658 -0.0475 -0.3527 -0.0650
 4983W        W21057  17.758   8.684   1.751 -0.0412  0.0718 -0.2099
 4984W        W21058   9.472  17.497   0.570 -0.1106  0.0387 -0.1385
 4985W        W21059   4.388   3.047  12.095 -0.0133  0.3351 -0.1534
 4986W        W21060   9.524  10.397   2.654  0.2745  0.1683 -0.2229
 4987W        W21061   9.689  10.493   0.723  0.2861 -0.1814 -0.1004
 4988W        W21062  16.013   3.998  10.982 -0.1292 -0.2937 -0.0196
 4989W        W21063  12.014   9.136  13.884 -0.0293 -0.1814 -0.1776
 4990W        W21064   8.451  12.675  14.204 -0.0481 -0.0883 -0.1801
 4991W        W21065   7.259  18.835  12.766 -0.0786 -0.2255 -0.2608
 4992W        W21066  17.567   7.526  11.825 -0.1021  0.0822 -0.1544
 4993W        W21067   2.936   5.211  11.393 -0.2665  0.1968  0.1013
 4994W        W21068  10.508  14.514  12.263  0.2651 -0.1500  0.0773
 4995W        W21069  15.430  16.962  12.969  0.0874  0.0551 -0.3634
 4996W        W21070  18.476   9.875   2.735 -0.0025 -0.3286 -0.2147
 4997W        W21071   9.367   1.740  14.542  0.3742  0.3846  0.1311
 4998W        W21072  16.617   6.002  13.328 -0.2008 -0.0557  0.1099
 4999W        W21073  15.973   4.855  11.370 -0.0154 -0.3250  0.1288
 5000W        W21074   4.288  18.059   0.781  0.0703  0.1247  0.0909
 5001W        W21075   4.852   6.027  14.271  0.2799 -0.1918 -0.3009
 5002W        W21076  19.335  12.749  11.168 -0.1204 -0.1393  0.0973
 5003W        W21077   7.023   8.974   5.800 -0.2276  0.0653  0.3196
 5004W        W21078   6.329  18.305  14.417  0.2821 -0.0163  0.1748
 5005W        W21079  17.046   6.197  13.577 -0.1834 -0.0022 -0.0745
 5006W        W21080   8.702   7.282  13.002  0.0995  0.1008 -0.2108
 5007W        W21081  15.306  14.697   0.858 -0.0380 -0.1599 -0.0171
 5008W        W21082   8.617   6.145   0.843  0.1629  0.2576  0.0999
 5009W        W21083  10.946   7.570   1.170  0.2708 -0.0183 -0.0499
 5010W        W21084   1.271  16.593  11.385 -0.0816 -0.1787  0.1597
 5011W        W21085   2.033  12.153  11.282  0.3379 -0.1580 -0.0146
 5012W        W21086  11.576  15.689   1.759  0.1021 -0.1479 -0.1713
 5013W        W21087   1.751  12.326   5.392 -0.1053  0.0760  0.0795
 5014W        W21088   1.219   3.015   3.679  0.0969  0.1671 -0.3431
 5015W        W21089  15.681  12.507   3.849  0.0048  0.2303 -0.0393
 5016W        W21090  14.861  14.128   1.686  0.4029 -0.3473  0.0196
 5017W        W21091   7.615   8.305  11.587 -0.1271  0.1695 -0.1792
 5018W        W21092  15.749   5.021   1.877 -0.2918  0.1016 -0.1805
 5019W        W21093   0.051  16.994   2.767  0.5799  0.2425  0.0075
 5020W        W21094   7.695  14.243  14.628  0.1194  0.1436  0.0593
 5021W        W21095  11.125  10.962   0.233  0.0205  0.1428  0.1689
 5022W        W21096   0.555  15.718   0.286 -0.0137 -0.2387 -0.1431
 5023W        W21097   0.699  12.636   4.068  0.0024 -0.0897 -0.3314
 5024W        W21098   9.042  13.372  10.433  0.0121  0.0915  0.2218
 5025W        W21099  12.746   1.907  10.649 -0.0699 -0.2575 -0.1559
 5026W        W21100  19.063   8.418   1.850  0.1561 -0.3088 -0.0293
 5027W        W21101   6.475  11.137   1.685  0.2348 -0.2213 -0.0817
 5028W        W21102  12.550   1.593   0.934  0.2459 -0.2040  0.0916
 5029W        W21103   7.256   1.616   3.420  0.2627 -0.0299 -0.0521
 5030W        W21104  12.767  13.830   2.666  0.0246 -0.2129 -0.3667
 5031W        W21105  13.538   1.833  14.392  0.0420 -0.3282 -0.0880
 5032W        W21106   7.303   4.048  13.170 -0.0962 -0.1391  0.6936
 5033W        W21107   8.996  15.665   1.987 -0.1326 -0.2433 -0.1545
 5034W        W21108   6.444  17.432  11.986  0.3444  0.1005 -0.1537
 5035W        W21109  18.870   2.689  10.539  0.1429  0.0051  0.1314
 5036W        W21110   7.622   1.054   0.379 -0.1204 -0.0651 -0.0645
 5037W        W21111   3.371  11.868   5.204  0.2695 -0.1072  0.0988
 5038W        W21112   7.680  13.223   1.956 -0.1918  0.1530 -0.1297
 5039W        W21113   5.450  14.221  12.843 -0.1134 -0.1456  0.0972
 5040W        W21114  15.769   6.914  11.706 -0.3645  0.2169 -0.0131
 5041W        W21115  17.454  14.485  12.670  0.1267 -0.2506 -0.0499
 5042W        W21116   7.177   7.995  11.405 -0.2561  0.1857 -0.1531
 5043W        W21117   1.714   8.334   2.202  0.1868 -0.3795  0.1297
 5044W        W21118  11.820  10.943  13.823 -0.0704  0.0138 -0.1192
 5045W        W21119   1.820   6.667  12.474 -0.1642 -0.0159 -0.3222
 5046W        W21120  11.351   6.566   2.488 -0.1293 -0.0145  0.1737
 5047W        W21121   1.469   7.823  11.809 -0.0598 -0.3355  0.1036
 5048W        W21122  12.698  11.924   1.887  0.2259 -0.2847  0.1615
 5049W        W21123  16.445   3.438  13.690  0.1355  0.3868  0.3055
 5050W        W21124  18.110   3.283   4.793  0.0406 -0.2378 -0.1190
 5051W        W21125   1.112   3.424  12.975 -0.0955  0.0890  0.1040
 5052W        W21126  16.414  12.320  14.873 -0.0356  0.0769 -0.0695
 5053W        W21127   0.100   6.946   2.527  0.2483 -0.0375 -0.1278
 5054W        W21128  12.922   4.333  11.080  0.0312 -0.1314 -0.5283
 5055W        W21129   1.678   8.011   2.588  0.1058  0.4749 -0.1880
 5056W        W21130   2.538   5.916   2.622 -0.1005  0.0270 -0.2611
 5057W        W21131  10.607  16.393  12.333  0.0133  0.1515 -0.0555
 5058W        W21132   4.265  14.411   1.419  0.1238 -0.0083  0.0978
 5059W        W21133  15.650  13.725   3.212 -0.3653 -0.0632  0.1530
 5060W        W21134  12.842  13.525  11.375 -0.0232  0.0571  0.2936
 5061W        W21135   2.270   6.049   1.329 -0.0873  0.0827  0.2657
 5062W        W21136   0.067  12.436  11.513 -0.1214 -0.1370 -0.3657
 5063W        W21137  14.597   2.541  11.449 -0.0553 -0.1021 -0.0409
 5064W        W21138   5.043   8.243  11.771 -0.0753  0.0137  0.3911
 5065W        W21139   8.763  15.133   1.058  0.1127 -0.1418 -0.4031
 5066W        W21140  12.915   7.164  13.725  0.2066  0.0680 -0.0318
 5067W        W21141   4.716  18.336   0.991  0.0218 -0.2213  0.2770
 5068W        W21142  16.779   8.782  13.406 -0.1661 -0.0584 -0.0542
 5069W        W21143   1.865  11.997   4.295  0.1906  0.3328  0.0499
 5070W        W21144   6.229  13.171   3.397 -0.2229  0.0274 -0.0408
 5071W        W21145   7.439   9.479   4.633 -0.2137 -0.0618 -0.0279
 5072W        W21146   7.092   8.339  10.433 -0.1198 -0.2995  0.2959
 5073W        W21147  12.236  12.994  13.498  0.0372 -0.0978  0.0114
 5074W        W21148   2.872  16.889   2.759 -0.0866  0.3570  0.2487
 5075W        W21149   6.835  14.911   5.362 -0.0488  0.0393 -0.1047
 5076W        W21150   9.852   1.964  11.878  0.1493  0.2796 -0.0601
 5077W        W21151   1.344  14.414   1.034  0.0107 -0.1863  0.0326
 5078W        W21152   9.984  15.000  11.510  0.3326 -0.0899  0.1708
 5079W        W21153   5.361  17.151  10.265 -0.2839  0.1319 -0.1720
 5080W        W21154  15.017   9.206  13.426 -0.1092 -0.0222 -0.0786
 5081W        W21155  15.807   0.614   4.556 -0.2540  0.0611 -0.0251
 5082W        W21156  13.269   0.310  13.607  0.2394  0.0387 -0.1006
 5083W        W21157  11.974   7.869   2.620  0.1090 -0.2681  0.0523
 5084W        W21158   0.237   7.035   4.205  0.0829 -0.3157 -0.1873
 5085W        W21159  10.117  12.937  12.656 -0.2754  0.3455 -0.0610
 5086W        W21160   0.222   2.838  11.535  0.1141  0.2760 -0.2843
 5087W        W21161  16.076  18.106   4.649 -0.1019  0.2732 -0.2144
 5088W        W21162   6.034   4.191  12.593  0.1240 -0.0244  0.3489
 5089W        W21163   0.539   6.128   0.152  0.0681  0.0348  0.2963
 5090W        W21164  15.649   3.216  11.277  0.1249 -0.3810  0.0119
 5091W        W21165   4.135   3.344   4.011  0.0225 -0.3005  0.0887
 5092W        W21166  14.612   7.088  14.538  0.1479  0.1760  0.2141
 5093W        W21167   0.499   4.199   1.634  0.2861  0.3989 -0.1056
 5094W        W21168   6.329   5.786  11.297  0.1004 -0.0520 -0.0999
 5095W        W21169   2.527  15.571   2.939 -0.0219  0.2048 -0.3282
 5096W        W21170   3.713  11.005  12.695 -0.4242 -0.1298 -0.0446
 5097W        W21171   3.894  17.401   4.846  0.0151  0.3797 -0.2995
 5098W        W21172  12.719  14.179  14.640  0.1348  0.1044 -0.0125
 5099W        W21173  12.813  14.426   9.835 -0.1000  0.0144 -0.0822
 5100W        W21174  11.770   1.864   3.438  0.0374  0.3725  0.1116
 5101W        W21175  15.745  17.975  13.016 -0.1465 -0.1618  0.0839
 5102W        W21176  19.264   9.684   1.125 -0.1585 -0.0278  0.2169
 5103W        W21177   3.941  12.353   2.452  0.0351 -0.2821 -0.0840
 5104W        W21178  15.277  13.167  12.040  0.0242 -0.0115 -0.0206
 5105W        W21179  10.968   7.635  11.873 -0.0674 -0.1156 -0.0866
 5106W        W21180  18.327  16.146  11.001  0.1908 -0.2757  0.0171
 5107W        W21181  16.863  16.506  14.839 -0.2297 -0.1599  0.0981
 5108W        W21182   7.572   0.818   1.116 -0.1650  0.1438 -0.0586
 5109W        W21183  18.205  16.777  13.571 -0.0287  0.2709 -0.0661
 5110W        W21184   2.714   6.026  11.650 -0.2125 -0.1138 -0.0552
 5111W        W21185  10.331  17.590  10.226  0.2004 -0.2935  0.0194
 5112W        W21186   1.784   9.072  12.316 -0.1218 -0.0754  0.0784
 5113W        W21187  11.535  12.962   4.445  0.2175  0.1207  0.1913
 5114W        W21188   9.352  13.314   3.093 -0.1830 -0.0221  0.2011
 5115W        W21189  18.178  16.972   1.257  0.0151  0.1228  0.1244
 5116W        W21190   4.352  17.157  12.101  0.0797 -0.1327 -0.0853
 5117W        W21191  14.582   8.409  12.658 -0.0428 -0.3417  0.1609
 5118W        W21192   1.075  10.795  12.262  0.0188 -0.2315  0.1637
 5119W        W21193   2.695  13.074   4.964  0.2772  0.1929  0.0197
 5120W        W21194   2.150   5.012   0.147  0.3923  0.1527 -0.1471
 5121W        W21195  13.949   0.712   4.676 -0.2481 -0.0156 -0.0920
 5122W        W21196  17.794  18.276   1.707 -0.2087 -0.3322 -0.2154
 5123W        W21197   7.027   9.804   0.907 -0.0944  0.4444 -0.1127
 5124W        W21198   9.363  17.065   2.452  0.0981  0.1709  0.1714
 5125W        W21199  12.596   1.504  10.453 -0.1287  0.1157 -0.0482
 5126W        W21200   8.621  11.633  10.890  0.2987  0.1764  0.2774
 5127W        W21201   8.450  13.992   2.270 -0.0964  0.2467 -0.1695
 5128W        W21202   4.268   0.130   3.115  0.0537  0.1300  0.1479
 5129W        W21203  11.446  12.902  12.341 -0.4829 -0.1691 -0.2819
 5130W        W21204   5.572   2.378   3.338 -0.0090 -0.0003  0.2378
 5131W        W21205   9.428   3.670   4.720  0.0914  0.3435  0.2364
 5132W        W21206   9.810   2.152   2.287  0.1945 -0.1047 -0.2160
 5133W        W21207   0.642  12.218  14.298  0.2802 -0.2601  0.1112
 5134W        W21208   5.907   1.717  10.730  0.0338 -0.0341 -0.3131
 5135W        W21209   5.030  11.604   2.795 -0.0673 -0.0724  0.0243
 5136W        W21210  12.840   5.858   5.309 -0.2699  0.0920  0.1378
 5137W        W21211  17.253  18.072  11.695  0.1816 -0.0117  0.0911
 5138W        W21212   7.252   9.316   0.794  0.0252  0.3415  0.2803
 5139W        W21213   7.574   9.524   1.722  0.1064  0.0660 -0.0027
 5140W        W21214  10.705  18.407  11.282  0.1873  0.0694 -0.0028
 5141W        W21215   2.087   3.275   5.465 -0.1172  0.5394  0.1131
 5142W        W21216  18.512   7.483   0.521  0.2491  0.2539  0.2712
 5143W        W21217  12.964   1.389  14.451  0.0205 -0.0949 -0.1287
 5144W        W21218   7.674   5.453   1.200 -0.0996 -0.1581 -0.0922
 5145W        W21219  17.684  17.319  10.704 -0.0957 -0.0914 -0.1010
 5146W        W21220   0.681   4.000   2.419  0.0911 -0.0184  0.4050
 5147W        W21221   9.550  16.210  11.724  0.0335 -0.0444 -0.2955
 5148W        W21222   8.101  14.462   3.096  0.0006  0.0720  0.1766
 5149W        W21223  17.062   1.330  14.728  0.1470 -0.2929 -0.0915
 5150W        W21224   3.855   8.915   0.714 -0.0684  0.1260 -0.0069
 5151W        W21225   3.973  10.431   4.443  0.2748  0.2817  0.2641
 5152W        W21226  12.396  18.660   2.744 -0.4102 -0.0934 -0.2334
 5153W        W21227   4.146  13.040  13.450  0.1568  0.3063 -0.0112
 5154W        W21228   7.496  13.108   2.967 -0.1339 -0.2972 -0.0303
 5155W        W21229   8.273  16.277  12.048 -0.0641  0.2651 -0.0922
 5156W        W21230   5.483  14.562  12.100 -0.1308  0.0921 -0.0438
 5157W        W21231  12.027  12.793   4.342 -0.1042  0.0354  0.1962
 5158W        W21232   0.181  15.737   1.016  0.3133 -0.0380  0.1804
 5159W        W21233  19.297   4.254   3.152 -0.0881 -0.0764  0.2118
 5160W        W21234   8.386   6.364  11.223 -0.3740  0.0225  0.3730
 5161W        W21235  12.375  14.454   5.870  0.0027 -0.2672  0.0730
 5162W        W21236   7.605   6.509  14.541 -0.0755 -0.0509  0.0636
 5163W        W21237   6.789  17.450  14.131  0.4595  0.0210 -0.1416
 5164W        W21238  13.583  18.808  14.585  0.1343  0.3600 -0.1494
 5165W        W21239  12.988  10.183   2.333 -0.0443  0.3246  0.0511
 5166W        W21240   2.889  15.644  11.546 -0.0538  0.1559  0.1363
 5167W        W21241  14.045  11.197  11.003  0.2506 -0.0625 -0.2032
 5168W        W21242   5.410  16.084   2.585  0.0823  0.0595 -0.1238
 5169W        W21243   6.431  17.741   2.874 -0.0014  0.1178  0.0225
 5170W        W21244   0.114   2.231   0.100 -0.0999 -0.1514  0.0062
 5171W        W21245  14.376  12.421  11.520  0.0876  0.3927  0.1090
 5172W        W21246   1.099   2.316   1.993  0.2040 -0.1534  0.0304
 5173W        W21247  18.437  17.040   4.271 -0.3826  0.2154 -0.4787
 5174W        W21248  16.656   0.908  12.069 -0.1549 -0.1750 -0.1267
 5175W        W21249  13.555   0.319   4.514 -0.2303  0.3028 -0.0705
 5176W        W21250   0.058   7.413   0.826  0.0100  0.3234  0.1289
 5177W        W21251   2.894   7.095   0.853 -0.0013  0.1246 -0.0987
 5178W        W21252   2.281   5.722   3.384  0.2300 -0.2534  0.2654
 5179W        W21253  19.172  13.156  12.337 -0.1014  0.1173  0.3791
 5180W        W21254  18.743  17.764  11.196 -0.0864 -0.1981 -0.2656
 5181W        W21255   8.121   5.662   4.374  0.0876  0.5343  0.0884
 5182W        W21256  10.587   8.075   9.316 -0.1845 -0.0062 -0.0783
 5183W        W21257   4.865  17.085   3.345  0.0616  0.0809  0.3777
 5184W        W21258   0.375   4.360  14.680  0.1692 -0.1290  0.3251
 5185W        W21259  19.126  14.411  13.196  0.0916 -0.0356 -0.5785
 5186W        W21260   5.065  13.839  14.869 -0.2035  0.0972 -0.0331
 5187W        W21261  12.445  12.130  13.045 -0.0035 -0.2572  0.0307
 5188W        W21262   5.865  15.895   2.891 -0.4183  0.0200 -0.2272
 5189W        W21263   3.562  19.303   9.643  0.0707 -0.0219 -0.0845
 5190W        W21264  12.101   5.837   0.826  0.1327 -0.0970 -0.1696
 5191W        W21265   0.759  11.797   1.958  0.0968  0.0198  0.1453
 5192W        W21266  13.971  19.185   0.357 -0.3186  0.0053 -0.1422
 5193W        W21267  11.260   4.498   3.425 -0.2659  0.2498 -0.1146
 5194W        W21268   4.692   6.141  13.550 -0.1411 -0.0437 -0.1013
 5195W        W21269  16.435  13.545  14.589 -0.1573 -0.2215 -0.3008
 5196W        W21270   4.711   6.372   4.592 -0.0908  0.3147 -0.0850
 5197W        W21271   1.249   2.552  11.630 -0.1409 -0.0030 -0.0130
 5198W        W21272   7.706   9.291   0.593 -0.2261  0.0399 -0.1460
 5199W        W21273   1.892  11.984   3.838 -0.3750  0.0224 -0.2135
 5200W        W21274   6.854  13.438   1.739  0.0422  0.0918 -0.3489
 5201W        W21275  18.370   8.260   5.561 -0.1619  0.0198  0.0274
 5202W        W21276   2.585  15.704   1.449 -0.0812 -0.0480  0.1878
 5203W        W21277   6.862  14.018  11.715 -0.1019 -0.0665 -0.0347
 5204W        W21278   2.967  18.025  12.533 -0.1270  0.1719 -0.4437
 5205W        W21279   9.815  11.607  10.075  0.1947  0.2451  0.1974
 5206W        W21280   1.662   7.906  14.054 -0.1028 -0.1623 -0.4649
 5207W        W21281  18.311   2.293   1.751  0.0540 -0.0739 -0.1593
 5208W        W21282  10.648   8.750  14.979 -0.1170 -0.0875  0.2790
 5209W        W21283  18.615  10.036   3.805  0.1512 -0.0485  0.3048
 5210W        W21284  13.732   3.773  11.773  0.1909  0.0327  0.2502
 5211W        W21285  15.973  11.583  13.516  0.1505  0.1244 -0.0790
 5212W        W21286   6.379   9.590   2.098  0.0470 -0.1005 -0.0420
 5213W        W21287   6.484   3.458  12.959 -0.0546  0.1185 -0.3040
 5214W        W21288  13.542  10.489  10.752  0.2491 -0.0074  0.1190
 5215W        W21289   0.010   1.206  12.684 -0.4592 -0.1831 -0.2785
 5216W        W21290  15.338   4.202   0.027  0.3140  0.0027 -0.1411
 5217W        W21291   2.114   2.704   4.589 -0.1254  0.1935 -0.6089
 5218W        W21292   9.138   4.212   1.399 -0.1929 -0.2068 -0.1321
 5219W        W21293   1.943  15.696   1.502  0.1323  0.2350 -0.1792
 5220W        W21294  10.357  10.437   4.000 -0.1980 -0.0956 -0.1603
 5221W        W21295   0.254   3.628  12.830 -0.0288 -0.2169 -0.0042
 5222W        W21296  10.544  15.162  13.049 -0.2653  0.0228 -0.1611
 5223W        W21297   9.820   7.803  11.057 -0.0137 -0.0879 -0.1267
 5224W        W21298  17.930  18.916   3.288 -0.0967  0.0224  0.1504
 5225W        W21299  16.039  16.358   2.894 -0.0375 -0.3145 -0.1237
 5226W        W21300   3.783   1.645   9.907  0.0617 -0.1425  0.0754
 5227W        W21301  12.728  16.840   1.409  0.1299 -0.0907 -0.1096
 5228W        W21302   3.781   7.453  11.737 -0.4197 -0.1282 -0.1762
 5229W        W21303  18.886   8.680  13.625 -0.0925  0.0231 -0.0171
 5230W        W21304   0.638  17.749  12.552  0.0668  0.1725  0.0129
 5231W        W21305   0.641  15.423  10.795  0.1152  0.0859 -0.0339
 5232W        W21306  15.692   8.422  12.681  0.0305  0.0274  0.4282
 5233W        W21307  11.387   1.384   0.216  0.0669  0.0336 -0.0732
 5234W        W21308   9.492   0.142   0.618 -0.2066 -0.0210 -0.0248
 5235W        W21309   2.354   1.128  10.192 -0.0347 -0.3469 -0.0594
 5236W        W21310  10.485   1.946  10.745 -0.1104  0.2424  0.2568
 5237W        W21311   5.682   4.050   4.574 -0.1570  0.2236 -0.2133
 5238W        W21312   9.543   4.539   5.327 -0.2319  0.2790 -0.3034
 5239W        W21313  11.274  17.232  13.920  0.3550  0.0593  0.1598
 5240W        W21314  15.857  13.264   0.718  0.2195  0.0068  0.2068
 5241W        W21315  13.566   6.757  12.414  0.0909  0.3590  0.1426
 5242W        W21316  14.494  17.197   2.092  0.2068  0.0547 -0.1843
 5243W        W21317   7.340   3.779  10.836 -0.5426  0.0497  0.0217
 5244W        W21318  15.169  14.921  13.703 -0.3460  0.1629  0.3551
 5245W        W21319   5.154   6.596  11.025  0.0732 -0.0490 -0.1191
 5246W        W21320  13.518  10.885  10.376  0.1026  0.1614  0.0111
 5247W        W21321  17.151  16.223  14.474  0.3090 -0.0568  0.0344
 5248W        W21322   5.136   5.048   2.232 -0.2825  0.1052 -0.1584
 5249W        W21323  18.314   5.034   2.066 -0.0455  0.2604  0.0854
 5250W        W21324   9.823  15.226   2.218  0.3926  0.0542 -0.3489
 5251W        W21325   1.424   9.916  10.973  0.1663 -0.2782 -0.1113
 5252W        W21326  18.916   7.988   4.060  0.0758 -0.2216 -0.0095
 5253W        W21327  13.348   6.610   3.740  0.4993 -0.2343 -0.0874
 5254W        W21328  15.759  16.779   3.842 -0.0132  0.4201  0.2849
 5255W        W21329  17.429   8.875   3.239  0.1861  0.3862  0.4536
 5256W        W21330  11.156  13.349   2.897 -0.0871 -0.1225 -0.0500
 5257W        W21331   2.645   7.284  10.584 -0.4043  0.0299  0.0175
 5258W        W21332   2.304   5.407  10.749 -0.0012  0.1930 -0.0500
 5259W        W21333   5.406   4.439   5.265  0.2217 -0.3578 -0.0930
 5260W        W21334   4.528  10.967   0.364  0.1324 -0.1301 -0.0054
 5261W        W21335  18.776   1.316  10.449 -0.0003  0.0460 -0.1748
 5262W        W21336  11.292  11.226  11.828 -0.2879 -0.1053  0.0075
 5263W        W21337   9.479   6.320   3.176  0.2935  0.3283 -0.1501
 5264W        W21338   6.523   7.884   0.516  0.0802  0.0016 -0.0969
 5265W        W21339  18.389  17.106   1.739 -0.1150  0.2411 -0.0458
 5266W        W21340   7.937   8.199   1.844  0.0121  0.1084  0.1275
 5267W        W21341  13.236  12.433   2.527 -0.0158 -0.0616  0.0002
 5268W        W21342   5.673  13.302  12.842  0.0177 -0.3065  0.2163
 5269W        W21343   7.319   7.458  13.839  0.1730 -0.1409  0.4692
 5270W        W21344   1.755   6.073   2.730  0.0355 -0.1335  0.1412
 5271W        W21345   0.438  18.917  10.445  0.1422 -0.0407 -0.0764
 5272W        W21346  14.622   1.008   0.948 -0.2215 -0.1152  0.3424
 5273W        W21347   4.499  16.992  14.439 -0.0044  0.1509 -0.0106
 5274W        W21348   2.728   7.148   4.475  0.1604 -0.1527 -0.0021
 5275W        W21349   1.782   9.064  13.617 -0.0612 -0.2117 -0.3682
 5276W        W21350  11.039  12.552  12.677 -0.2248  0.0718 -0.1055
 5277W        W21351   5.162   8.855  14.844  0.2970 -0.0589  0.0452
 5278W        W21352  17.193   2.645  14.114  0.2779  0.2713  0.3024
 5279W        W21353  10.825  17.239  12.043  0.2900  0.0427  0.0629
 5280W        W21354   6.385   4.941   0.352  0.1959  0.0000 -0.2730
 5281W        W21355  12.731   7.153   1.352 -0.0163  0.0596 -0.1584
 5282W        W21356   4.242   0.430   3.529  0.0618 -0.0192 -0.0799
 5283W        W21357   0.335  10.576   5.814  0.1806 -0.1378 -0.0104
 5284W        W21358   8.838   3.507   2.869  0.4068  0.0586 -0.1358
 5285W        W21359   6.088  12.200   2.465  0.1497 -0.3441  0.0876
 5286W        W21360   6.052   4.272  14.914  0.1105 -0.0559 -0.2227
 5287W        W21361   0.495  11.993   1.164 -0.0333 -0.1118  0.3285
 5288W        W21362  14.147  15.197   3.534  0.3795  0.1611 -0.0287
 5289W        W21363  10.419   1.333  14.752 -0.0039 -0.0060  0.4477
 5290W        W21364  12.321   1.853   3.434 -0.0297  0.0094 -0.3479
 5291W        W21365   6.097  12.545  14.972 -0.2388  0.0787  0.2415
 5292W        W21366  19.198  16.500  14.411  0.0444 -0.0850  0.0893
 5293W        W21367  19.156  17.382   4.408  0.0410 -0.0572 -0.0464
 5294W        W21368   7.807   5.325   4.087  0.1629 -0.0807 -0.2703
 5295W        W21369  14.772  10.152  10.816  0.2760  0.5231 -0.1174
 5296W        W21370  16.901  11.944   3.652  0.2448 -0.1247  0.3663
 5297W        W21371   5.753  16.147  14.675  0.2852  0.3187 -0.3082
 5298W        W21372   8.794   7.655   1.438 -0.0565  0.1575  0.2997
 5299W        W21373  14.895   8.136   0.697  0.2013 -0.0501 -0.0793
 5300W        W21374   9.721   4.686   2.428 -0.1017 -0.0372 -0.0532
 5301W        W21375  16.088   6.776   4.552 -0.3196  0.0625 -0.1123
 5302W        W21376  13.427   7.033   4.602  0.2871 -0.0999 -0.0915
 5303W        W21377  11.852   1.770  11.154  0.2376  0.1669 -0.4805
 5304W        W21378   7.472   4.399  14.918  0.0999  0.2510  0.3899
 5305W        W21379  15.432  12.713  12.071  0.1192  0.0604  0.0869
 5306W        W21380  13.507  14.902  13.554 -0.1884  0.0336  0.0238
 5307W        W21381   8.205   8.113   0.999  0.1426  0.1508 -0.2790
 5308W        W21382  19.166  14.323  11.838 -0.1096 -0.2298  0.2106
 5309W        W21383   2.305  11.233   3.439 -0.2433 -0.1819 -0.1903
 5310W        W21384   3.589   7.875   1.264 -0.1262 -0.4515  0.1056
 5311W        W21385  16.531  10.089   6.016  0.1658 -0.0474 -0.2895
 5312W        W21386  10.137  12.530  13.646  0.1115 -0.0047  0.2182
 5313W        W21387  14.372   3.823  10.776 -0.0507  0.0344 -0.0690
 5314W        W21388  17.423   6.947   2.274 -0.0077  0.0580  0.0716
 5315W        W21389  11.259   2.110  11.719 -0.3664 -0.0213  0.1110
 5316W        W21390  16.933   2.903  10.823  0.2451 -0.1446  0.2761
 5317W        W21391  15.802   9.726   3.001  0.1283 -0.3155 -0.0852
 5318W        W21392   5.434  15.697   1.821  0.0682 -0.0545  0.2414
 5319W        W21393   2.103   8.765  14.684 -0.0681  0.2027 -0.4811
 5320W        W21394  15.814   4.116  13.304  0.1145 -0.0761 -0.0749
 5321W        W21395   7.780   6.617  12.289  0.1436 -0.1940 -0.0935
 5322W        W21396   5.075  16.285   2.994  0.1672 -0.0371  0.0127
 5323W        W21397  12.065   3.795   0.826  0.0821 -0.3485  0.1140
 5324W        W21398   7.442  14.464  10.683 -0.0426  0.0971 -0.3585
 5325W        W21399   8.225  19.037  10.387 -0.2188 -0.1945  0.1984
 5326W        W21400   5.656   6.231  13.173 -0.2352  0.2105  0.2696
 5327W        W21401   1.396  13.422   1.144  0.3281  0.1814 -0.0508
 5328W        W21402  10.831   4.917  12.808  0.3767 -0.0684 -0.0445
 5329W        W21403   4.936  10.590   3.022  0.0466 -0.1684  0.0395
 5330W        W21404  17.778   8.701  12.788  0.1532  0.3513 -0.0501
 5331W        W21405   7.010   1.887   4.221 -0.2657  0.1578  0.1387
 5332W        W21406   6.724   0.855   5.034 -0.3140 -0.0277  0.1020
 5333W        W21407  15.196  15.665   3.140 -0.4037 -0.1452  0.2173
 5334W        W21408  16.122   0.194  13.841 -0.0085  0.1102 -0.1557
 5335W        W21409   4.040   2.111  13.053 -0.2588  0.0958 -0.2826
 5336W        W21410  13.862   7.513  13.837  0.1632 -0.2520 -0.1848
 5337W        W21411   3.414  11.334  11.752  0.2376  0.0023  0.0130
 5338W        W21412   9.384  18.783   2.373 -0.1604  0.3065 -0.0816
 5339W        W21413   7.533  13.566  14.995 -0.0355  0.3936 -0.1037
 5340W        W21414   0.876  10.649  11.463  0.1985  0.2105  0.0780
 5341W        W21415   4.334   1.733   9.761  0.1045  0.0287 -0.0995
 5342W        W21416  11.852   0.901   1.951  0.0846 -0.0714  0.0631
 5343W        W21417  16.704   9.623   2.292  0.2728  0.0499 -0.2812
 5344W        W21418   0.539  13.948   5.700  0.0492 -0.0485 -0.2653
 5345W        W21419   8.557  14.668  12.579  0.4038  0.0038 -0.2732
 5346W        W21420  19.032   2.227   0.411  0.2473  0.0389 -0.2880
 5347W        W21421   8.249  10.446   3.530  0.0236 -0.1452  0.4670
 5348W        W21422  13.033  13.445   0.357  0.1487  0.0559 -0.1265
 5349W        W21423   9.576   1.672   2.203 -0.1369 -0.0763 -0.0306
 5350W        W21424  17.208  17.742  13.451 -0.0178  0.3946  0.0724
 5351W        W21425  17.045   0.859  14.544  0.0419 -0.0318  0.2672
 5352W        W21426   7.884   3.066   2.707 -0.1699  0.1486 -0.5027
 5353W        W21427  13.231  15.802   9.386 -0.0287  0.1240  0.2118
 5354W        W21428  10.044  13.841  12.553  0.1359  0.2611  0.0713
 5355W        W21429  13.704  18.203   5.437 -0.0297  0.0298  0.3063
 5356W        W21430  17.780  11.287  14.484 -0.4192  0.3712 -0.1111
 5357W        W21431  10.260  16.118  13.367 -0.0979 -0.0432 -0.0892
 5358W        W21432   4.455  12.577   1.341 -0.2135  0.4176 -0.1063
 5359W        W21433   9.974  19.105  12.915  0.0801 -0.0215 -0.0229
 5360W        W21434   9.980   6.748  12.743 -0.0723  0.1800  0.1956
 5361W        W21435   1.857  17.033  14.629  0.1587 -0.0169  0.1490
 5362W        W21436   5.170  13.154   4.715 -0.2554  0.2651  0.1084
 5363W        W21437   3.026  13.698  11.908 -0.2537  0.0889  0.2011
 5364W        W21438  18.371  14.698   1.905  0.2864 -0.2774 -0.3222
 5365W        W21439  18.064  10.766  14.583  0.0990  0.0053  0.1161
 5366W        W21440  16.495  11.091   4.030 -0.0831  0.0449  0.3608
 5367W        W21441  18.210   2.853  13.016 -0.3526 -0.0547  0.1641
 5368W        W21442   1.610   4.066   3.416 -0.0399  0.0557 -0.3022
 5369W        W21443   4.221  14.864   2.603 -0.1126 -0.3615  0.0740
 5370W        W21444   6.826  14.842  13.910 -0.2528 -0.1766 -0.0693
 5371W        W21445   1.886   9.070   4.503  0.0665 -0.2114  0.1026
 5372W        W21446   3.442  12.286   3.144 -0.2221  0.0134  0.3450
 5373W        W21447  17.078  10.132  12.833 -0.0999  0.4541  0.2129
 5374W        W21448   3.521  15.925  11.098 -0.0311  0.0322  0.1094
 5375W        W21449   3.397   9.796  11.724  0.1075 -0.3465  0.1715
 5376W        W21450  14.871  10.345  12.761  0.2727  0.2237  0.3383
 5377W        W21451   9.774   2.501  13.107  0.1385 -0.0140 -0.0368
 5378W        W21452   4.891  17.833   3.939 -0.0597 -0.4684  0.2308
 5379W        W21453   2.678  15.662   5.018  0.1384  0.3295  0.0080
 5380W        W21454  13.270  10.469   3.147  0.1487  0.1549  0.1338
 5381W        W21455  10.243  17.281   2.163 -0.2132  0.0461 -0.3089
 5382W        W21456   0.375  14.721   4.120  0.0303 -0.1811 -0.1104
 5383W        W21457  19.297   9.745   0.558  0.0563 -0.1651  0.3660
 5384W        W21458  16.021   0.687  13.814 -0.0401  0.0637 -0.1577
 5385W        W21459  19.220   9.183  14.413  0.0692 -0.1096  0.0383
 5386W        W21460  11.585  14.288  14.328 -0.0556  0.3082 -0.3314
 5387W        W21461  12.679   2.232   9.363  0.0061 -0.1402 -0.2744
 5388W        W21462   7.106   3.882   2.899 -0.1323  0.4007 -0.0211
 5389W        W21463  15.418   7.370  12.495  0.0078  0.0220  0.1544
 5390W        W21464  13.543   2.752  13.170 -0.1261  0.1220 -0.0652
 5391W        W21465   1.462  17.937   1.750 -0.0323  0.0673 -0.1211
 5392W        W21466  16.397   5.667  13.007  0.1531  0.2014  0.1938
 5393W        W21467   3.507  12.473   0.883  0.2134  0.0805  0.2697
 5394W        W21468   3.906   4.489   5.227  0.0167  0.3077 -0.0086
 5395W        W21469  14.132   1.901  11.894  0.1403  0.0076 -0.1809
 5396W        W21470  15.494   3.707   5.165  0.0340  0.0663 -0.1614
 5397W        W21471   6.387   6.096   0.102 -0.1964 -0.0730  0.1719
 5398W        W21472  11.546  11.745  11.699  0.0715 -0.4523  0.2690
 5399W        W21473  16.288   5.121  11.022 -0.0733  0.0368  0.1402
 5400W        W21474  15.912  14.332  13.994 -0.0508  0.0416  0.3964
 5401W        W21475   9.695   2.734   3.114 -0.2253  0.1889 -0.0914
 5402W        W21476  15.476  11.724  13.252 -0.2227  0.5199  0.0583
 5403W        W21477   3.056   4.965   0.930  0.3290  0.0683  0.2656
 5404W        W21478  19.006   5.654  14.842 -0.3316  0.2392 -0.1311
 5405W        W21479   1.787  13.206   1.349 -0.1112  0.1659 -0.0695
 5406W        W21480   0.196  16.631   0.549 -0.5181  0.1698 -0.0129
 5407W        W21481   5.978  12.321  11.741 -0.2555  0.3323 -0.2218
 5408W        W21482   6.393  15.097   1.190 -0.2994 -0.0409  0.0965
 5409W        W21483  11.273   9.363   4.109  0.0597  0.1838  0.1406
 5410W        W21484  13.957   5.390  13.737  0.1388 -0.1610 -0.1746
 5411W        W21485  12.642   2.346   4.425 -0.0483  0.1764  0.1133
 5412W        W21486   1.230   8.283   0.472  0.1593  0.1513 -0.1950
 5413W        W21487  14.467   2.482   0.600 -0.0030  0.1535  0.1423
 5414W        W21488  13.273   8.232  14.109 -0.2557 -0.1300 -0.2470
 5415W        W21489  11.483  16.519  12.850  0.0099  0.1667 -0.0469
 5416W        W21490  11.784  15.363  12.852  0.1588 -0.0664 -0.0554
 5417W        W21491   1.576   1.534   3.485  0.0459 -0.3269  0.3638
 5418W        W21492   0.426   7.786  14.892 -0.0613 -0.1269 -0.0710
 5419W        W21493  13.565  17.587   0.199 -0.2926 -0.0355 -0.1108
 5420W        W21494  16.234  13.278   2.192 -0.1726  0.3987  0.3871
 5421W        W21495  16.381  18.875   4.746 -0.3110 -0.3768 -0.2320
 5422W        W21496   1.500   6.868  12.052  0.1400 -0.0984 -0.0071
 5423W        W21497  18.690   6.441   4.021 -0.0148  0.2078  0.2721
 5424W        W21498  18.159   2.916   9.804  0.1423  0.1927  0.3205
 5425W        W21499   0.125   4.625   4.131  0.1084 -0.2914  0.1885
 5426W        W21500  10.814   4.178   3.982  0.2032  0.0480 -0.1024
 5427W        W21501  16.868  11.845   0.423  0.0777  0.0009  0.2123
 5428W        W21502   1.631  13.740  13.450  0.2705  0.0679 -0.4536
 5429W        W21503  19.102   4.803  12.213 -0.1433 -0.2044 -0.4816
 5430W        W21504  14.524   3.630   2.900 -0.0666 -0.0463 -0.2970
 5431W        W21505  11.105   5.433  13.049  0.1696  0.0133 -0.0128
 5432W        W21506  15.047   9.402  14.930 -0.1881  0.1941  0.2781
 5433W        W21507  19.155  14.252  14.367  0.4600  0.2514  0.0920
 5434W        W21508  18.467   6.858   1.260 -0.1253 -0.1908 -0.3610
 5435W        W21509  13.724   6.956  13.797 -0.0311  0.0699 -0.1162
 5436W        W21510  16.624   2.750   3.442 -0.0318 -0.0409 -0.2090
 5437W        W21511  18.483   3.308  13.324  0.3724 -0.1333 -0.3106
 5438W        W21512   8.518  15.580  10.142  0.1041  0.0895 -0.3193
 5439W        W21513   7.237   1.307  10.336  0.0524  0.1952 -0.1116
 5440W        W21514  11.027   0.468  11.913 -0.1616 -0.1800 -0.2513
 5441W        W21515  18.246   5.782  11.035 -0.1729 -0.3288 -0.4806
 5442W        W21516  15.741   4.142   4.952 -0.0299 -0.0411  0.0803
 5443W        W21517  10.622  18.834   0.700  0.1977  0.2378  0.0717
 5444W        W21518   7.032   2.711  11.922  0.0860 -0.0271 -0.2090
 5445W        W21519  10.188  10.782  12.052  0.2101  0.1496  0.2405
 5446W        W21520  17.208   7.048  12.951 -0.1646  0.2131 -0.0405
 5447W        W21521  15.682  10.823   0.120  0.1899  0.1452 -0.4235
 5448W        W21522  16.041  11.169   1.621 -0.1432 -0.2044 -0.1655
 5449W        W21523  15.404   0.828   0.745  0.0545  0.1303  0.0872
 5450W        W21524  14.978   1.903  11.813 -0.0359 -0.0418  0.1206
 5451W        W21525   3.614  16.603   4.847 -0.0548  0.3594  0.0979
 5452W        W21526  12.628  13.087   4.256 -0.3057 -0.0525 -0.0413
 5453W        W21527  12.992  18.240  10.744  0.0769 -0.2122  0.4073
 5454W        W21528   3.333   0.857   4.242  0.0368  0.1542 -0.2625
 5455W        W21529  16.599   2.288   3.697  0.1085 -0.3485 -0.0554
 5456W        W21530  11.369   3.050  14.611 -0.2231  0.2935  0.3110
 5457W        W21531  12.598  13.785  12.917  0.0600 -0.6022 -0.0539
 5458W        W21532  12.057   2.506  12.537  0.1245 -0.1134  0.3835
 5459W        W21533   3.688   1.330  10.633  0.0104  0.1318  0.0057
 5460W        W21534  15.435  13.804   1.125  0.0404 -0.0343 -0.4477
 5461W        W21535   8.557   0.524   4.525  0.0172 -0.4103  0.0200
 5462W        W21536   0.723  13.754   3.358  0.1844  0.0646  0.1874
 5463W        W21537   7.155   7.444  10.133  0.0279 -0.0976  0.2032
 5464W        W21538   2.751  10.389   5.155  0.0378 -0.2369  0.1838
 5465W        W21539  11.432   2.959  10.549 -0.0780  0.1019  0.0644
 5466W        W21540   0.567  18.814  14.230 -0.0970  0.2172 -0.4122
 5467W        W21541   3.423   3.541   0.887  0.1422 -0.2715 -0.1967
 5468W        W21542  18.694   4.446  12.907 -0.2823  0.1327  0.0582
 5469W        W21543  16.490   3.526   4.634  0.1956  0.2425 -0.0733
 5470W        W21544  13.280   1.993  12.934 -0.1648 -0.2910  0.1357
 5471W        W21545   9.843   5.926  10.986 -0.3147  0.3934  0.0565
 5472W        W21546  13.012  18.667   4.455 -0.2892 -0.0382 -0.1705
 5473W        W21547   6.722  18.086  12.930  0.1171  0.2595  0.0535
 5474W        W21548  18.201  14.641   1.023  0.3307  0.1165 -0.0409
 5475W        W21549   5.270   2.845   9.099 -0.0055  0.2166 -0.0249
 5476W        W21550   3.697  16.293  14.082 -0.1032  0.2862  0.0250
 5477W        W21551  18.670   1.429   1.780  0.1425 -0.3073 -0.2132
 5478W        W21552  16.165  15.451  10.530 -0.4687  0.0799 -0.0294
 5479W        W21553  19.261  17.773   5.552  0.3995  0.0870  0.0476
 5480W        W21554  11.933  17.542  14.831 -0.1269  0.0795  0.0560
 5481W        W21555   5.463  14.179  10.540  0.0019 -0.1701 -0.1987
 5482W        W21556  10.321   5.620   1.154  0.2181  0.3203 -0.0891
 5483W        W21557   4.251  13.514  14.500  0.4136  0.5064  0.1591
 5484W        W21558  12.828   3.343   4.343 -0.2489  0.2231 -0.0846
 5485W        W21559  19.093  13.267  10.363 -0.0898 -0.0745 -0.0295
 5486W        W21560  16.447   6.238  14.930 -0.1705  0.2724 -0.1480
 5487W        W21561   5.122  19.332   4.371  0.3948  0.0559 -0.0401
 5488W        W21562   9.924   5.405  14.139 -0.4598 -0.1026  0.1615
 5489W        W21563   0.810   8.515  13.272 -0.0001 -0.1607 -0.0528
 5490W        W21564   1.764   2.803  10.671  0.1480 -0.0731  0.0184
 5491W        W21565  12.224  10.960   4.387 -0.0685 -0.3142  0.1495
 5492W        W21566   3.677   5.579   4.731  0.2612 -0.2318 -0.0318
 5493W        W21567  18.253   3.804   5.235  0.1894  0.1139 -0.1566
 5494W        W21568  18.195  12.591   1.197 -0.1256  0.2428  0.5302
 5495W        W21569  11.490   9.641   1.469  0.1815 -0.5286  0.4201
 5496W        W21570   7.512  11.762   1.183  0.2261  0.2051 -0.2805
 5497W        W21571   4.433   6.340  12.286  0.0084  0.0723 -0.1998
 5498W        W21572   0.003  14.070   2.893 -0.0299 -0.3100 -0.0612
 5499W        W21573  14.381  13.886   1.555  0.1872 -0.2436 -0.0992
 5500W        W21574   4.388   4.264   1.965  0.1732 -0.4135  0.1958
 5501W        W21575   0.457   8.713  14.708 -0.9330  0.0151  0.2033
 5502W        W21576  11.583   5.359   3.292  0.2064  0.1645  0.2651
 5503W        W21577  10.676  15.919  14.959  0.2347 -0.0274  0.2814
 5504W        W21578   5.614  13.324   4.383  0.3550  0.3632 -0.0410
 5505W        W21579   5.630  13.080   0.826 -0.1017 -0.0312 -0.2416
 5506W        W21580  12.698  10.659   1.780  0.1768 -0.0588  0.3000
 5507W        W21581  13.445  11.395  14.300 -0.0613  0.0748 -0.1156
 5508W        W21582  15.283  14.413   1.823  0.0931  0.0675  0.0200
 5509W        W21583   4.402   8.959  14.895 -0.0660 -0.0913  0.2798
 5510W        W21584   9.896  13.034   0.591  0.0867 -0.1633  0.0462
 5511W        W21585  15.882   5.598   4.693 -0.3162  0.3904  0.2238
 5512W        W21586  15.871  14.784  11.942  0.2585  0.0128 -0.1501
 5513W        W21587  10.865   2.084  10.482  0.0113 -0.1912 -0.0277
 5514W        W21588  15.505  10.341   4.440 -0.1132  0.0249  0.0132
 5515W        W21589  18.124   6.668  11.518 -0.3887  0.1417 -0.0346
 5516W        W21590  17.987  17.440   1.416 -0.0368  0.0318  0.1183
 5517W        W21591   6.702   0.419  10.501  0.3047  0.0760 -0.2175
 5518W        W21592   8.133  15.005  11.382  0.2080 -0.2227 -0.1455
 5519W        W21593   0.699   8.021  13.831  0.2462 -0.2530 -0.0597
 5520W        W21594   7.329   9.476  14.343  0.0773  0.0976  0.0003
 5521W        W21595  17.132  16.239  11.698  0.1925 -0.0572  0.1283
 5522W        W21596   6.632   2.182   3.754  0.1858 -0.3106  0.1065
 5523W        W21597   0.658   2.341  13.856 -0.0428  0.0538  0.0641
 5524W        W21598   1.336   5.591   0.381 -0.2450 -0.0167  0.0695
 5525W        W21599  13.748   7.136  10.448  0.1429  0.0970 -0.1717
 5526W        W21600  13.211   5.892  11.556  0.1048 -0.0950 -0.3525
 5527W        W21601  15.938  15.090   3.390  0.0471  0.0775  0.4253
 5528W        W21602   7.925  10.117  14.592  0.0166  0.3221  0.1548
 5529W        W21603   8.417   6.179  11.683 -0.1154  0.2706 -0.1853
 5530W        W21604   1.381  13.907   0.929  0.0267  0.1058 -0.0114
 5531W        W21605  16.801   3.411  10.956 -0.2566 -0.2494 -0.2190
 5532W        W21606  13.905   5.274   1.404  0.2142 -0.0145 -0.0334
 5533W        W21607   7.093  13.135   3.810  0.0791 -0.2451 -0.2767
 5534W        W21608   5.957  13.295  14.427 -0.0369  0.0043 -0.2386
 5535W        W21609   0.264  15.277  14.111  0.0950 -0.2739 -0.2820
 5536W        W21610  14.042  14.427  11.910 -0.2700  0.0532  0.0217
 5537W        W21611  13.588  13.606  14.682 -0.0890 -0.0806 -0.1286
 5538W        W21612   6.302   5.552  13.009 -0.2474 -0.1019  0.2265
 5539W        W21613   9.471  18.299  10.774  0.1711  0.1269 -0.0429
 5540W        W21614  13.815   6.822   2.388 -0.1304  0.1161 -0.2772
 5541W        W21615   2.865   2.298  14.305  0.5569  0.3359  0.1565
 5542W        W21616  16.185   6.112  12.799  0.1001 -0.0094  0.2287
 5543W        W21617   8.097   0.776  11.428 -0.1218 -0.5713 -0.1158
 5544W        W21618   2.161   2.605   2.683 -0.0344  0.2043  0.3627
 5545W        W21619   7.697   8.301   3.234  0.1364  0.0819  0.0310
 5546W        W21620  19.289  16.385  15.001  0.0446 -0.2342  0.0431
 5547W        W21621   0.958  15.368   0.437  0.0140 -0.0929  0.0363
 5548W        W21622  18.017  15.700  10.804  0.1448 -0.0172 -0.0612
 5549W        W21623  13.613   5.571   0.009  0.2924  0.0689  0.1097
 5550W        W21624   5.233   5.996  11.920  0.2267  0.1232  0.0352
 5551W        W21625   7.612   6.427   3.401  0.0699 -0.0073 -0.0719
 5552W        W21626  13.184  10.077  14.065  0.2457 -0.4042 -0.3444
 5553W        W21627   6.037   1.380   3.582  0.1334  0.1218 -0.2609
 5554W        W21628   3.710   0.170   3.950  0.0694  0.1103  0.1884
 5555W        W21629   5.139   4.085   4.487 -0.2096 -0.2462  0.1961
 5556W        W21630  19.285   4.530   0.965 -0.1796  0.1864  0.3254
 5557W        W21631   4.910   6.718   4.933  0.1620 -0.0914  0.2626
 5558W        W21632  16.314  16.628   0.631  0.0216 -0.5014 -0.2287
 5559W        W21633  16.842   0.466  11.225 -0.1693 -0.1141  0.3171
 5560W        W21634   5.548  12.266  11.452  0.1217  0.1688  0.0323
 5561W        W21635  17.643  13.912   1.955 -0.2315 -0.1423  0.0145
 5562W        W21636  14.041   2.728   0.860  0.2553 -0.1486 -0.0262
 5563W        W21637   8.875   9.364  12.151  0.0108  0.1154 -0.1642
 5564W        W21638   2.025   9.552  14.811  0.0885 -0.1979 -0.0215
 5565W        W21639   5.455  17.375  11.776  0.1772 -0.4765 -0.0870
 5566W        W21640   1.214  15.507  13.935 -0.0442  0.2737 -0.0178
 5567W        W21641  11.278  11.165  13.833  0.1396  0.0571 -0.1688
 5568W        W21642   1.538  17.633  12.484 -0.0269  0.0620 -0.0270
 5569W        W21643  10.752   2.485  13.958 -0.2412 -0.3455 -0.0513
 5570W        W21644  16.034   0.892  11.401 -0.1205 -0.0247 -0.0230
 5571W        W21645  16.467  18.063   1.224 -0.5262 -0.1390  0.1915
 5572W        W21646  11.454   8.434   1.052 -0.0129  0.2127  0.4348
 5573W        W21647  14.732  14.106  12.858  0.0672  0.1893  0.1621
 5574W        W21648   8.032  18.897   2.765  0.2224 -0.0408 -0.0745
 5575W        W21649  17.234  15.221   0.320 -0.5069 -0.1098  0.4200
 5576W        W21650   6.198  10.962  14.652 -0.3024 -0.3219  0.1470
 5577W        W21651  11.090   6.766   3.810 -0.1822 -0.3297 -0.1030
 5578W        W21652  10.961  15.725   1.436  0.4167 -0.2899 -0.3837
 5579W        W21653  10.576  16.168   2.349 -0.2491 -0.0968 -0.0563
 5580W        W21654   8.075  15.786   0.707  0.1736  0.2791 -0.1415
 5581W        W21655  11.491   9.001   4.836  0.0385 -0.0323  0.0524
 5582W        W21656  13.959   5.047  14.164 -0.0232 -0.2435  0.1670
 5583W        W21657   0.798  18.167   1.781  0.0989  0.3248  0.1709
 5584W        W21658   2.737   2.843  14.271 -0.0950  0.2408  0.1914
 5585W        W21659   6.004   4.477  11.432 -0.2216  0.1275  0.0331
 5586W        W21660  11.814   4.232  14.592  0.2768  0.0817 -0.2166
 5587W        W21661   0.456   1.189   2.584  0.2661 -0.1597 -0.2035
 5588W        W21662   6.859   3.679  12.526 -0.0648  0.3947 -0.1039
 5589W        W21663  10.321   5.986  10.576 -0.2433 -0.0359 -0.0387
 5590W        W21664   1.767   9.962   3.671 -0.5025 -0.2144  0.1731
 5591W        W21665  19.323   3.939  14.689 -0.0975  0.1430  0.1127
 5592W        W21666  11.469   9.500  12.696  0.2480  0.4562  0.0013
 5593W        W21667   5.981  13.443   1.056 -0.0849 -0.0479 -0.0862
 5594W        W21668   7.458  14.291  12.412  0.4965 -0.2444 -0.0332
 5595W        W21669   0.665   8.490   5.086 -0.2741  0.0969  0.2160
 5596W        W21670  15.867  11.990  14.110  0.1499  0.0285  0.0100
 5597W        W21671   5.882  11.247   4.717  0.2994 -0.0025  0.1173
 5598W        W21672  14.376  14.078  14.157 -0.0862 -0.1226 -0.1279
 5599W        W21673  14.454  12.796   4.242 -0.0847  0.3642 -0.0986
 5600W        W21674   1.215   9.359   0.665 -0.0920  0.1456  0.1632
 5601W        W21675  17.404   3.863   0.725  0.1615  0.0714  0.1832
 5602W        W21676  12.921  13.060   3.137 -0.4058  0.1208 -0.0002
 5603W        W21677   2.225   5.759   9.721  0.0673 -0.0798 -0.2088
 5604W        W21678  10.264   9.545   3.317  0.2154  0.2179 -0.2119
 5605W        W21679   0.905  12.838   4.522 -0.4995  0.0050  0.3892
 5606W        W21680  12.920   7.900   0.908 -0.1456 -0.1825  0.3684
 5607W        W21681   6.625  11.171   3.536 -0.0491  0.1317 -0.2240
 5608W        W21682   7.374   7.139   2.363  0.0186 -0.2096 -0.0943
 5609W        W21683   9.385   7.817  12.944 -0.0442  0.2168  0.2262
 5610W        W21684  12.463  11.848   0.820 -0.1558 -0.1605 -0.0233
 5611W        W21685   7.553  14.653  13.587 -0.0083  0.0297 -0.2200
 5612W        W21686   7.005  10.187   3.322 -0.0998  0.0584 -0.2116
 5613W        W21687  12.536   8.321   2.070 -0.0285  0.3325 -0.1507
 5614W        W21688  10.298   5.773  11.537  0.1924 -0.3129  0.5630
 5615W        W21689  18.790  15.181   0.941 -0.1622  0.2011 -0.2346
 5616W        W21690   9.374   8.303   0.024 -0.0910  0.1349 -0.0558
 5617W        W21691   7.869  16.850  13.873 -0.0713 -0.1104 -0.0665
 5618W        W21692   8.622  16.275  11.258  0.2662 -0.0093  0.1851
 5619W        W21693   8.530   5.066  11.484  0.0338 -0.5118  0.3649
 5620W        W21694  10.785  13.333  12.697 -0.0518 -0.2256 -0.0755
 5621W        W21695   1.007   8.818   4.172  0.0430  0.0035  0.1823
 5622W        W21696  13.963  10.685  14.988 -0.0651  0.1954  0.2155
 5623W        W21697  16.214   0.578   3.509  0.0562  0.1341  0.3437
 5624W        W21698  13.660   7.306  13.306 -0.0122 -0.1180  0.0196
 5625W        W21699   2.026   8.729  12.623 -0.1135 -0.5081 -0.0062
 5626W        W21700  11.657  11.314  10.556  0.1452 -0.3286 -0.3383
 5627W        W21701  12.337   9.997  14.474 -0.1079  0.0920 -0.2096
 5628W        W21702  10.282  14.835  14.126  0.1777 -0.1050 -0.0424
 5629W        W21703  17.593  15.357   2.281 -0.3024  0.2967 -0.2903
 5630W        W21704  10.399   0.882  10.482  0.0130  0.2528  0.0327
 5631W        W21705   2.373  16.426  14.386 -0.0478 -0.0524 -0.3057
 5632W        W21706   3.807   4.247  14.174 -0.3542  0.0327  0.0311
 5633W        W21707   2.348  13.864  14.619  0.2538  0.0391  0.2775
 5634W        W21708   8.804  18.667   3.096 -0.0019 -0.0838 -0.0459
 5635W        W21709  16.659   0.825   1.850 -0.2397  0.1524 -0.0895
 5636W        W21710   6.439   8.765  12.927  0.2966  0.3538  0.0721
 5637W        W21711  16.560  14.968   3.047 -0.2551 -0.0654 -0.2238
 5638W        W21712  12.685   6.794  11.336  0.2988 -0.1411 -0.2216
 5639W        W21713   7.108  17.880  12.603  0.0253  0.0446  0.0449
 5640W        W21714   5.125   6.348   5.847 -0.3216 -0.0485  0.1840
 5641W        W21715  18.973   9.018   2.012 -0.2125  0.0757 -0.1562
 5642W        W21716  12.554  15.161  11.866 -0.0750 -0.0554  0.3695
 5643W        W21717   5.213   7.847   0.778 -0.3799  0.0835  0.0133
 5644W        W21718  13.346   3.099  14.937  0.2040  0.4206 -0.1897
 5645W        W21719  14.842   0.279  12.171 -0.0445  0.1276  0.0773
 5646W        W21720   2.193   3.276   4.975  0.0039  0.0054  0.0433
 5647W        W21721  11.520   7.544  11.828  0.2513 -0.1767 -0.2134
 5648W        W21722   8.036  13.075  10.756  0.5311  0.2970 -0.2754
 5649W        W21723   3.064  12.529   3.071 -0.2551  0.1940  0.0788
 5650W        W21724  10.007   7.364  10.780 -0.0360 -0.0733  0.2367
 5651W        W21725   3.389  13.308  10.464 -0.0437 -0.0645 -0.1796
 5652W        W21726  17.726   4.973  10.907  0.1544  0.0182 -0.0043
 5653W        W21727   6.045   7.898  14.726 -0.2305  0.2982  0.2194
 5654W        W21728  17.343  19.038   3.159  0.0196 -0.4176 -0.0724
 5655W        W21729  16.130   8.457   4.206 -0.2174 -0.1222  0.0857
 5656W        W21730   3.672  10.174   2.781 -0.4210 -0.0618  0.1970
 5657W        W21731  14.000  15.591   4.451  0.1372  0.1520  0.0046
 5658W        W21732   7.506   0.371   4.685  0.1842  0.0307 -0.1364
 5659W        W21733   2.228   1.501  14.068 -0.3326 -0.0672  0.0214
 5660W        W21734  11.305  19.188   4.959 -0.3799  0.1594 -0.5601
 5661W        W21735  15.907   9.474  11.131  0.2052  0.0306 -0.1358
 5662W        W21736   2.767   5.506   1.575 -0.0895  0.0915 -0.0405
 5663W        W21737   2.220  15.662  10.223  0.0611  0.3066  0.0766
 5664W        W21738  10.176   7.683   4.458 -0.1980  0.0906 -0.0464
 5665W        W21739  11.888   5.720  12.055  0.2096  0.1325  0.2461
 5666W        W21740  13.764   3.021  10.907 -0.1733  0.4407  0.2497
 5667W        W21741   0.482   2.951   0.919 -0.2163  0.0592  0.1660
 5668W        W21742   6.936   1.141  10.741  0.0664  0.1125  0.0684
 5669W        W21743  11.786   7.426  14.261  0.0017  0.4227  0.0581
 5670W        W21744   9.409  15.652   1.582 -0.0311 -0.1802 -0.3700
 5671W        W21745   4.106  16.608  11.336 -0.0398  0.1351 -0.1817
 5672W        W21746  17.279   6.129  11.100 -0.2995 -0.1645 -0.1472
 5673W        W21747   6.844   7.349  13.667 -0.2262 -0.0258 -0.0288
 5674W        W21748  12.230  11.942   4.175 -0.4608 -0.0558  0.3535
 5675W        W21749   4.947  11.538  12.275 -0.2086 -0.0571 -0.0781
 5676W        W21750  17.363  13.881   0.639 -0.3449 -0.4318  0.2714
 5677W        W21751   5.698   3.217  11.935 -0.1140  0.1857  0.0214
 5678W        W21752   2.738  11.822  14.648  0.1598 -0.2675  0.0384
 5679W        W21753  18.972  16.826  13.618  0.2290 -0.0517 -0.1146
 5680W        W21754   1.568  12.153   3.554 -0.0558 -0.1879  0.1364
 5681W        W21755  18.985  14.278   1.101  0.0511  0.1189  0.3227
 5682W        W21756  18.226   6.498   2.082  0.1952  0.0782  0.7207
 5683W        W21757  14.631  18.210   0.195 -0.2632 -0.1782  0.4066
 5684W        W21758   0.383   5.078   5.997 -0.1155  0.1745  0.1116
 5685W        W21759  13.325  11.760  10.698  0.0941  0.3658  0.0669
 5686W        W21760   3.304  10.471   2.473 -0.2487 -0.0590 -0.0214
 5687W        W21761  18.673  13.660   4.184  0.3841  0.2897 -0.2853
 5688W        W21762  14.105  16.842   0.381  0.2146  0.0390  0.3997
 5689W        W21763   1.876   3.348   1.699 -0.0653 -0.2687  0.2786
 5690W        W21764  18.667   0.615   2.972 -0.0179 -0.0451  0.0633
 5691W        W21765  11.498  11.715   5.345 -0.0303 -0.3500  0.2683
 5692W        W21766   8.202   6.785   4.471  0.2570  0.1654 -0.0207
 5693W        W21767   6.988  17.252   9.655  0.1365 -0.0574 -0.2549
 5694W        W21768   6.019  10.326  13.013  0.2898  0.0190 -0.1531
 5695W        W21769  11.723   5.835  10.791 -0.0947 -0.0575  0.0750
 5696W        W21770  10.062   5.827   1.967  0.0645 -0.0267  0.0270
 5697W        W21771   5.047   4.539   0.844  0.1173 -0.1745  0.2504
 5698W        W21772  10.166   4.964   2.467 -0.2492  0.0757 -0.0277
 5699W        W21773  10.463   7.325  11.901 -0.3697  0.3520  0.1473
 5700W        W21774  11.326   4.880  11.941  0.0446 -0.0379 -0.0279
 5701W        W21775  10.073   3.647  12.256  0.0643  0.1083  0.0672
 5702W        W21776   3.137  16.844  14.752 -0.0635  0.3963  0.0957
 5703W        W21777  19.097   3.046   4.974 -0.1604 -0.1029  0.0713
 5704W        W21778   6.534   0.343   0.215 -0.1652 -0.0362 -0.0714
 5705W        W21779  12.963  18.592   0.622  0.0518  0.1666 -0.3429
 5706W        W21780   8.797   1.243   9.422 -0.1928 -0.0305 -0.0331
 5707W        W21781  10.308  19.233   0.594 -0.3683  0.1004 -0.0913
 5708W        W21782  15.942   2.062   2.689  0.1632 -0.3258  0.0559
 5709W        W21783   2.035   8.188  14.459  0.0989 -0.2229 -0.3740
 5710W        W21784   5.231  15.546  13.362 -0.0695 -0.0432 -0.4651
 5711W        W21785   8.921  14.903  11.789  0.1550 -0.1897  0.2857
 5712W        W21786  10.471   5.515  13.774 -0.1769 -0.0153 -0.0343
 5713W        W21787   1.367  12.398  13.183  0.2107 -0.0848  0.1671
 5714W        W21788   9.788  16.980  11.145  0.1185  0.0804 -0.1773
 5715W        W21789  10.221   4.304   0.682  0.0336  0.0272 -0.2499
 5716W        W21790  17.993   7.169   5.306 -0.1658 -0.0317 -0.1375
 5717W        W21791  17.964  17.890   2.344 -0.0670  0.3309 -0.1172
 5718W        W21792   8.431  16.423  14.505 -0.0170  0.1353  0.0367
 5719W        W21793  18.856   9.145   3.590 -0.1547  0.1278 -0.1860
 5720W        W21794  12.433   2.906  14.577 -0.3074  0.1598 -0.1620
 5721W        W21795  14.578  10.227  12.021  0.0442  0.0686  0.0899
 5722W        W21796  11.414  16.408   4.499  0.1296  0.0260 -0.2166
 5723W        W21797  10.340   7.700  14.318  0.2179  0.1373 -0.4190
 5724W        W21798   9.564  11.405   1.083 -0.2225  0.2964 -0.0076
 5725W        W21799  13.612   4.487  14.173  0.0377 -0.3092  0.2131
 5726W        W21800  11.286  10.197  14.647 -0.3031 -0.3026 -0.2001
 5727W        W21801   0.768   2.197   3.416 -0.1270 -0.2502  0.0163
 5728W        W21802  13.239  12.618  12.472  0.2039 -0.5243  0.1312
 5729W        W21803  18.695   7.596  13.760  0.4239 -0.4509  0.0965
 5730W        W21804   7.664   4.864   4.281  0.0045  0.1217 -0.4777
 5731W        W21805   2.705   2.241  14.841  0.1704  0.3692  0.0539
 5732W        W21806   5.928   7.561   2.392 -0.0624 -0.1813 -0.2499
 5733W        W21807  18.950  14.271   0.592 -0.1754  0.1383 -0.1576
 5734W        W21808  12.102  16.843  14.108 -0.1897  0.0341 -0.1685
 5735W        W21809   0.803  17.587   3.246  0.0255  0.2180  0.0047
 5736W        W21810   6.670  16.023  14.733 -0.2516  0.1470 -0.0390
 5737W        W21811   8.226  12.785   0.873 -0.0352 -0.2381 -0.1103
 5738W        W21812   2.843   3.390  14.015 -0.2165 -0.2020  0.3802
 5739W        W21813   3.018   9.743   0.939  0.0437  0.0400  0.1649
 5740W        W21814  17.586  13.455   2.559 -0.0102 -0.1711  0.0461
 5741W        W21815  14.508  13.074  13.304 -0.0133 -0.1634 -0.2056
 5742W        W21816   6.398  14.745  10.128  0.0562 -0.3016 -0.4368
 5743W        W21817  13.202  16.697  13.169 -0.2275  0.3447 -0.3017
 5744W        W21818  13.822   0.639   1.809 -0.2964  0.0982  0.1726
 5745W        W21819  13.570  11.105  13.213  0.1860  0.1654 -0.0755
 5746W        W21820   5.992  11.755   0.717  0.1148 -0.1499  0.1947
 5747W        W21821  15.651   0.568  11.754  0.0108 -0.2297  0.0080
 5748W        W21822  11.910   0.432  12.890  0.0099 -0.2426 -0.2006
 5749W        W21823   3.718  17.176   3.327 -0.0129  0.0347 -0.1077
 5750W        W21824   1.908  12.729   2.239 -0.1497 -0.2915 -0.0852
 5751W        W21825   0.043   2.196  10.329 -0.2592 -0.2358  0.3749
 5752W        W21826  17.075  15.483   2.237 -0.0289 -0.5607  0.1087
 5753W        W21827   9.017   8.628   2.575 -0.2670  0.0837  0.0935
 5754W        W21828  11.222  12.873   2.545 -0.2241 -0.0725  0.1657
 5755W        W21829  17.723  14.788  14.385  0.3060  0.0045  0.0463
 5756W        W21830   9.834   1.157  13.475  0.0870 -0.0825  0.0495
 5757W        W21831  15.184   3.007  10.992 -0.0930  0.2211 -0.1070
 5758W        W21832   4.448   8.184  12.379 -0.0979 -0.2463 -0.2578
 5759W        W21833  14.457   4.103   5.971 -0.5569 -0.2356  0.1032
 5760W        W21834   8.217  12.150  12.085  0.2554  0.1142  0.2362
 5761W        W21835   5.168   3.707   9.640 -0.1398 -0.2275  0.0791
 5762W        W21836  11.095   2.062   4.616 -0.1503  0.0208  0.1934
 5763W        W21837  19.212   6.639   0.417  0.1651 -0.2099  0.0907
 5764W        W21838  18.834   2.718  11.484  0.7693  0.1107  0.1199
 5765W        W21839  14.887  12.947   0.029 -0.3227  0.1259  0.1574
 5766W        W21840   6.138  15.682   2.344  0.2536 -0.2793 -0.0809
 5767W        W21841   7.551   4.944   2.509  0.5712 -0.1069  0.2625
 5768W        W21842   1.735   0.926   3.746 -0.0951  0.1269  0.1734
 5769W        W21843  15.456  15.845   0.832 -0.1215 -0.1903 -0.0251
 5770W        W21844  13.645   1.887  12.065 -0.1248  0.2168  0.0589
 5771W        W21845  13.203   8.052  10.873 -0.0080 -0.0430 -0.1354
 5772W        W21846  14.134   5.928   3.859  0.1099 -0.0556  0.2361
 5773W        W21847   5.183   8.820  14.209 -0.0171 -0.0626 -0.0045
 5774W        W21848   3.766  18.620  10.781  0.1936 -0.0803  0.0729
 5775W        W21849   7.927   6.042   4.133  0.1360  0.1083  0.4544
 5776W        W21850  13.912  14.758   3.454  0.0783 -0.3200  0.2282
 5777W        W21851  15.061  18.577   3.659 -0.0753  0.0527 -0.2422
 5778W        W21852  17.550   8.424   4.974 -0.1213  0.0422 -0.2516
 5779W        W21853  11.905   9.525   3.709 -0.0450 -0.4527  0.1393
 5780W        W21854   4.088  13.370   2.425  0.1971 -0.2538 -0.2330
 5781W        W21855   8.785  10.094   1.044  0.1128 -0.2504  0.1970
 5782W        W21856   9.821   7.691  13.822 -0.2943 -0.1290 -0.0394
 5783W        W21857   9.324   0.565  14.685  0.2263  0.1430  0.4642
 5784W        W21858   4.706   5.357   0.768 -0.0320  0.2693 -0.3158
 5785W        W21859  14.307   9.795   3.388  0.0014  0.0518 -0.0954
 5786W        W21860   9.683   6.403   2.699 -0.1612 -0.0757 -0.1405
 5787W        W21861  17.109   1.796  12.822 -0.0206  0.0334 -0.3449
 5788W        W21862   9.633   4.296  14.768  0.2083  0.0944  0.1932
 5789W        W21863   5.973   5.960   3.942 -0.0774  0.4516 -0.0358
 5790W        W21864   5.061  11.856  14.520 -0.0120 -0.0272 -0.1857
 5791W        W21865   2.922  11.091   0.796  0.0012 -0.1092  0.1550
 5792W        W21866  15.984  14.120   3.196  0.3645  0.0603  0.0014
 5793W        W21867  14.142   3.257  13.555 -0.0577  0.0272  0.0454
 5794W        W21868   1.926   9.817  10.859 -0.3745 -0.3653 -0.2440
 5795W        W21869   1.835  10.265   1.597  0.0499 -0.0278  0.0913
 5796W        W21870   5.036   1.643   9.976  0.1007 -0.2504 -0.0353
 5797W        W21871  14.957   4.351   3.924 -0.2612 -0.1541 -0.1830
 5798W        W21872  17.172   4.712   2.816 -0.1890  0.4557  0.1872
 5799W        W21873   8.314   0.189  10.250  0.0637  0.1911 -0.2014
 5800W        W21874   9.236  16.814  12.817  0.0167  0.2273  0.4218
 5801W        W21875   4.896  16.729  12.255  0.0483 -0.1594 -0.0619
 5802W        W21876   7.297  15.000   1.450  0.2752  0.1044  0.0550
 5803W        W21877  15.208   4.554   3.066 -0.2051 -0.0989 -0.0033
 5804W        W21878  18.824   8.620   2.850 -0.2225  0.0776  0.3053
 5805W        W21879  15.232  12.597  11.256  0.0008  0.1404 -0.0022
 5806W        W21880  13.132  17.784  13.932 -0.3143 -0.0593  0.1387
 5807W        W21881   7.023  17.184   1.902 -0.0877 -0.1900  0.0702
 5808W        W21882  17.392  11.086   0.183 -0.1434  0.1035  0.2825
 5809W        W21883  12.819   5.777  11.842 -0.1711  0.0770 -0.5452
 5810W        W21884   3.369   1.843   0.440 -0.1456  0.1389  0.3211
 5811W        W21885   7.852   8.155   0.401 -0.1953  0.0246 -0.1706
 5812W        W21886  14.330   2.187  12.476  0.0258  0.3001  0.2787
 5813W        W21887  18.581   2.621   4.180  0.2676 -0.2703 -0.1626
 5814W        W21888  16.388   8.690  13.748  0.1010 -0.3439  0.1442
 5815W        W21889  15.251   2.166   1.200  0.1743  0.1239  0.0058
 5816W        W21890   4.729  17.562   0.356  0.2979  0.0575 -0.1217
 5817W        W21891  14.232  17.079  13.139  0.3331  0.0908  0.1188
 5818W        W21892   2.333  11.515  10.699  0.2474 -0.2489 -0.1812
 5819W        W21893  14.439  10.679  12.907 -0.2241  0.0038 -0.1101
 5820W        W21894  15.930  18.090   2.538  0.2913  0.2298  0.0536
 5821W        W21895  13.791  12.182   4.419 -0.2500 -0.2213 -0.2242
 5822W        W21896   3.966  19.305   3.488 -0.0718 -0.3167  0.2340
 5823W        W21897  15.743  10.825   2.340  0.0301  0.3347  0.0365
 5824W        W21898  11.232   2.722  14.937  0.1288  0.1774 -0.0222
 5825W        W21899  16.841   7.743   0.526 -0.1038 -0.2307  0.2103
 5826W        W21900  12.563   8.556  13.609  0.1478 -0.1600  0.0422
 5827W        W21901  18.575   6.635  11.758 -0.0604  0.3423  0.1263
 5828W        W21902   3.938  11.012   2.077  0.2635  0.2311 -0.4737
 5829W        W21903  17.205  13.679   5.509 -0.1392 -0.0822 -0.2592
 5830W        W21904   9.528   4.650  12.393  0.1722 -0.1826 -0.2176
 5831W        W21905  11.649  12.422   4.570  0.2355 -0.1207  0.0622
 5832W        W21906  11.905   8.800   5.007  0.3816  0.1120  0.2781
 5833W        W21907  17.398   6.365   2.449 -0.1623 -0.4235 -0.2300
 5834W        W21908  10.003  10.784   0.348  0.1545  0.0797 -0.1931
 5835W        W21909   6.549  12.346   0.249  0.1485  0.0211 -0.4340
 5836W        W21910  15.045  18.114  13.592 -0.0825 -0.0714 -0.2043
 5837W        W21911   8.848  14.283  13.803  0.0476  0.0621  0.1907
 5838W        W21912  13.301  10.750  14.845  0.0935  0.3843 -0.1694
 5839W        W21913  11.433   1.091   1.838 -0.1338 -0.0716  0.1028
 5840W        W21914  15.098  15.699  14.183 -0.0388  0.6636  0.2222
 5841W        W21915   4.229   6.012   5.183 -0.4405 -0.1303  0.1883
 5842W        W21916  10.672  13.367   1.092 -0.0543  0.1436 -0.1271
 5843W        W21917  12.821   1.780  12.805 -0.0140  0.0019  0.3171
 5844W        W21918  12.296   6.955  10.278 -0.0701 -0.1027  0.1474
 5845W        W21919  13.718   5.511   2.803  0.0414  0.1432  0.0561
 5846W        W21920   1.276   5.081   3.045  0.0792  0.0369 -0.1275
 5847W        W21921  17.693  10.453   2.966  0.0689 -0.0639  0.1208
 5848W        W21922   4.761   8.698   0.116  0.5266  0.1671 -0.2299
 5849W        W21923  11.484  11.621  13.685  0.0949  0.0248 -0.1282
 5850W        W21924   2.847  12.653  13.510  0.2076  0.1525 -0.0392
 5851W        W21925  15.218   6.331   4.725  0.2066  0.0845 -0.0135
 5852W        W21926   9.863   5.727  13.071  0.0905  0.3463 -0.0291
 5853W        W21927   4.200   4.343   0.055 -0.2905 -0.1222 -0.2541
 5854W        W21928   6.923   6.926  10.010 -0.1445 -0.0459 -0.2266
 5855W        W21929   1.792   9.078  14.510  0.2865  0.1323  0.1564
 5856W        W21930  11.037   4.067  11.342  0.2200  0.2329 -0.1733
 5857W        W21931  17.541   1.795  11.096 -0.1194 -0.0662  0.0527
 5858W        W21932  15.179  12.128   0.694 -0.1322  0.2863  0.2555
 5859W        W21933   4.446   8.974  13.597 -0.0161 -0.0726  0.0970
 5860W        W21934  12.692  14.421   9.344  0.2490  0.1858  0.0659
 5861W        W21935   7.848  15.281  10.557 -0.2173 -0.3175 -0.0215
 5862W        W21936  10.779  11.458   3.882 -0.0805  0.0225 -0.1809
 5863W        W21937   1.072  15.024  13.274  0.1879 -0.2587  0.4010
 5864W        W21938  10.806   3.917   1.002  0.2314 -0.1235  0.1671
 5865W        W21939  18.020  15.439   3.763  0.0341 -0.4109 -0.3172
 5866W        W21940  11.265  12.534  11.650 -0.0273 -0.2108 -0.2041
 5867W        W21941   3.483  17.529   2.251 -0.1850  0.2089  0.3299
 5868W        W21942   0.724   4.346  11.123  0.2924 -0.2875  0.1293
 5869W        W21943  18.681  17.490   1.956 -0.0183 -0.2112 -0.3184
 5870W        W21944  13.885  11.271   2.595  0.0781  0.1220 -0.1138
 5871W        W21945   8.109   4.352   3.193  0.1424  0.0929 -0.0584
 5872W        W21946  13.964   5.810  10.676 -0.2366  0.3134 -0.1678
 5873W        W21947   3.625  15.708  13.203  0.0407 -0.1665  0.2512
 5874W        W21948   7.355   6.986  14.710  0.2194 -0.0521  0.0838
 5875W        W21949  12.660   4.998   3.624  0.1247 -0.3193 -0.2349
 5876W        W21950   1.603  18.766   1.876 -0.1479  0.0528 -0.0899
 5877W        W21951  11.751  18.975   0.015  0.1638 -0.2583  0.2100
 5878W        W21952  16.302   2.136   5.286  0.2300  0.2962  0.0572
 5879W        W21953   6.733  13.102   0.876  0.0954  0.1536 -0.0835
 5880W        W21954  18.104   8.743  14.605 -0.3457 -0.0692 -0.1489
 5881W        W21955   6.298  11.818  11.789 -0.2082 -0.1312 -0.1514
 5882W        W21956   5.306  14.058   2.747 -0.5070 -0.0211  0.1067
 5883W        W21957   3.837   2.992   3.043  0.4355 -0.1544  0.1234
 5884W        W21958  10.451  16.664  11.989 -0.2005 -0.3159 -0.4664
 5885W        W21959   5.523   1.451  10.083  0.1068  0.0697  0.1861
 5886W        W21960  17.213  18.856  10.555 -0.2359 -0.1189  0.0779
 5887W        W21961   8.982   1.473  14.749  0.0354  0.2092  0.3225
 5888W        W21962   4.686  14.880  12.750 -0.3653 -0.2500  0.2002
 5889W        W21963   2.916  16.991   2.216  0.1680  0.3617  0.0008
 5890W        W21964   2.787  15.939   0.298  0.1599 -0.1554 -0.0084
 5891W        W21965  16.064   1.130   2.011  0.1002 -0.0203  0.3076
 5892W        W21966   5.225   1.070  14.176  0.0358  0.2466  0.2113
 5893W        W21967   6.057  10.922  11.226 -0.0274  0.0871 -0.0581
 5894W        W21968   8.025  12.826   3.090  0.1545 -0.1176  0.0276
 5895W        W21969  12.994   5.281   2.908 -0.1158  0.0003 -0.0421
 5896W        W21970  10.377   7.451   0.352  0.0640  0.1364  0.0277
 5897W        W21971   1.075   1.478   4.649  0.0390  0.0622 -0.1115
 5898W        W21972  14.005  10.193   3.474 -0.2404  0.2206 -0.0895
 5899W        W21973  18.440   6.211  13.245 -0.0190 -0.0515 -0.1108
 5900W        W21974  12.023  15.153   1.895  0.0371 -0.1476  0.2085
 5901W        W21975  10.707  18.806   2.251  0.2266  0.3202 -0.1957
 5902W        W21976   3.888  11.168  13.228  0.0313 -0.1469  0.0826
 5903W        W21977  14.795   5.992   5.756 -0.1864 -0.2453 -0.0624
 5904W        W21978  18.503   0.083   1.119 -0.3024 -0.2290  0.1410
 5905W        W21979  14.305   2.093   4.967  0.4236  0.0140  0.1619
 5906W        W21980  17.178   5.358  14.591 -0.1672 -0.2648  0.0036
 5907W        W21981  12.663   1.674  13.287 -0.0275  0.3425  0.0223
 5908W        W21982   2.371  15.772  11.325  0.0392 -0.0971 -0.0456
 5909W        W21983   1.083  14.785  12.749 -0.1788  0.1320 -0.1069
 5910W        W21984   4.917   9.802  12.899  0.0459  0.0245 -0.0696
 5911W        W21985  14.483  13.255  10.627  0.0293  0.4282 -0.2578
 5912W        W21986   7.019  14.868   4.894 -0.0083  0.1414  0.5504
 5913W        W21987   4.667  10.488   0.133 -0.2500 -0.1485 -0.3097
 5914W        W21988   7.303   2.221  10.002 -0.1120  0.0874 -0.4328
 5915W        W21989   3.779   4.566   3.889  0.0839 -0.2853 -0.7599
 5916W        W21990  13.352  13.276   1.797  0.3572 -0.1957 -0.2390
 5917W        W21991  17.401  12.405  12.205 -0.1739 -0.0575  0.0803
 5918W        W21992  11.780   1.365  14.560 -0.1680  0.3746 -0.0061
 5919W        W21993   7.172   4.569   1.493  0.0534 -0.1698  0.2457
 5920W        W21994  15.815  10.660  11.945  0.0480 -0.3109 -0.0717
 5921W        W21995   4.604   1.716  11.641 -0.1897  0.0401 -0.1617
 5922W        W21996  13.489  14.029  11.882 -0.0053  0.1558 -0.1105
 5923W        W21997  18.870   5.031  12.964  0.0928 -0.1140  0.2288
 5924W        W21998  18.874   0.047  12.106 -0.1134  0.0750  0.0447
 5925W        W21999  12.267  19.109   3.727 -0.0099 -0.0021 -0.0945
 5926W        W22000   6.243   0.233   0.957  0.0726  0.0546  0.1646
 5927W        W22001  15.849  10.369  11.442  0.0711 -0.0292  0.0018
 5928W        W22002   6.612   2.954  12.119 -0.0213  0.1771  0.1551
 5929W        W22003   1.038  15.367   1.180 -0.0030 -0.1700 -0.0023
 5930W        W22004   4.497   2.905  10.182 -0.3413 -0.0637  0.0404
 5931W        W22005   4.532   9.484  13.732 -0.1224 -0.4161 -0.0298
 5932W        W22006   4.488   2.122  11.888 -0.0423  0.1672  0.3880
 5933W        W22007   7.075   9.935  14.234  0.4064  0.0390 -0.0915
 5934W        W22008   1.359   5.419  13.267 -0.1094 -0.2417  0.3069
 5935W        W22009   7.575  14.693  14.483 -0.2165 -0.1819 -0.0574
 5936W        W22010  13.409   8.312  14.605  0.1211 -0.1308  0.0873
 5937W        W22011  10.150  11.530   0.105 -0.1207 -0.1255  0.2576
 5938W        W22012  14.943  13.341  10.989  0.1757 -0.0167  0.1925
 5939W        W22013   2.758   3.431   1.768  0.1959 -0.1020  0.1326
 5940W        W22014  14.940  19.120   4.521 -0.0395  0.0067 -0.0601
 5941W        W22015  17.908   2.723  11.761  0.1126 -0.0454 -0.2197
 5942W        W22016   0.158  17.040  13.651 -0.1869 -0.5143 -0.0186
 5943W        W22017  16.448  13.605   3.849  0.0333  0.0359 -0.2158
 5944W        W22018  11.603  14.822  11.406  0.1300 -0.1551  0.3546
 5945W        W22019   8.201   0.968   1.838 -0.2820 -0.0674 -0.1555
 5946W        W22020   6.945  18.541  14.447  0.1105  0.2731  0.3196
 5947W        W22021  14.662  10.823  11.893  0.0920  0.0279 -0.3091
 5948W        W22022  16.591   9.346   1.104 -0.0043 -0.0379  0.0072
 5949W        W22023  13.031  11.040   1.802  0.3007 -0.3476  0.2315
 5950W        W22024   0.245   4.323  14.231  0.1046  0.5095 -0.0385
 5951W        W22025   9.549  18.792   1.429  0.3060 -0.2586  0.0945
 5952W        W22026   0.856   6.119  10.942  0.2469  0.1991 -0.0039
 5953W        W22027  15.494   1.061   4.122 -0.3960  0.2795  0.2795
 5954W        W22028  17.982   7.781  11.463  0.1564  0.2246 -0.1883
 5955W        W22029  15.131   4.635   4.790 -0.0594  0.1488  0.3955
 5956W        W22030   6.097  13.412  11.066 -0.1547 -0.2649 -0.0875
 5957W        W22031  14.260  14.202   3.780  0.1917  0.2947 -0.1397
 5958W        W22032   5.698  11.436  13.836 -0.1916 -0.0372  0.1251
 5959W        W22033  13.195   9.594   2.395  0.0210  0.1554  0.0351
 5960W        W22034   7.259   9.965  13.032  0.1095 -0.2800 -0.0394
 5961W        W22035  14.848  10.720  11.299 -0.2241 -0.3469  0.0665
 5962W        W22036  12.015   5.456  10.749  0.0118  0.0402 -0.0266
 5963W        W22037   4.160   6.516  14.501 -0.2209  0.0407 -0.0326
 5964W        W22038   3.088   1.975   3.838 -0.1797  0.0688  0.2105
 5965W        W22039  15.420   6.173  12.620  0.1798 -0.0646 -0.3067
 5966W        W22040   0.412   0.270  12.674  0.0734  0.1562 -0.1691
 5967W        W22041  16.346  14.941  13.080  0.0504  0.0560  0.2065
 5968W        W22042   9.149  14.353   1.618  0.2916  0.0112 -0.2074
 5969W        W22043  12.442   7.454  12.692 -0.1244 -0.0396  0.1006
 5970W        W22044  13.161   3.928  12.450  0.1880 -0.1897 -0.1335
 5971W        W22045  10.877  18.473  14.992  0.0398 -0.2357  0.0251
 5972W        W22046  15.769  10.275   0.924  0.0066 -0.1311 -0.0866
 5973W        W22047   6.079  13.689   2.752 -0.1199  0.2254  0.1891
 5974W        W22048   4.795   5.771   3.712 -0.0290  0.1553  0.0614
 5975W        W22049   0.121   7.539  11.187  0.0696  0.0041 -0.1023
 5976W        W22050   1.711  10.307   1.099  0.0577  0.1756 -0.0350
 5977W        W22051  11.845  13.749   3.016  0.1278  0.1004 -0.0263
 5978W        W22052   5.672  10.906  11.785 -0.0685  0.2203  0.0171
 5979W        W22053   6.453   2.376  13.533 -0.1085 -0.0114  0.1569
 5980W        W22054  17.275   7.642  13.664  0.0571 -0.4352 -0.0846
 5981W        W22055  15.375  11.502   1.517  0.0514 -0.0355 -0.0801
 5982W        W22056   2.311   6.123   3.674 -0.1734 -0.0965 -0.3367
 5983W        W22057  12.272   4.888  12.415 -0.2309  0.0471 -0.3555
 5984W        W22058   4.744   3.984  10.437  0.0258 -0.0313  0.2650
 5985W        W22059  14.841   5.501   1.385 -0.0004 -0.0064  0.2394
 5986W        W22060   9.632   4.059   4.487  0.0132 -0.0591  0.2577
 5987W        W22061   5.815   7.987  10.273  0.1909  0.0233 -0.1431
 5988W        W22062   7.533   8.254   3.771  0.1537 -0.0090  0.0993
 5989W        W22063  17.799  12.873   1.204 -0.5305 -0.0993  0.1360
 5990W        W22064   8.922   3.556   4.595  0.1325  0.0072 -0.4252
 5991W        W22065  10.786  17.233  14.680  0.0809  0.2608  0.0008
 5992W        W22066  18.061  10.750   2.862  0.0932  0.0719 -0.1029
 5993W        W22067   2.284   2.673  12.081 -0.2149  0.1312  0.0338
 5994W        W22068  10.933   7.996   3.849 -0.0073  0.3821 -0.0518
 5995W        W22069   4.922   3.853   2.648 -0.0769  0.1061 -0.0615
 5996W        W22070  16.467   3.526  13.113  0.0338  0.2157 -0.0014
 5997W        W22071   5.186   2.845  11.338 -0.0773  0.0378 -0.0606
 5998W        W22072   2.337   4.108  12.122 -0.2210  0.0586 -0.0313
 5999W        W22073  11.851  14.327  12.636  0.2899 -0.2174 -0.1389
 6000W        W22074   8.498   5.807   4.698  0.2617 -0.2503  0.0773
 6001W        W22075  12.219  15.077   4.406 -0.2080  0.0968  0.1280
 6002W        W22076  18.515   5.532   4.266 -0.3854 -0.1702  0.1162
 6003W        W22077   2.544   0.722  11.778 -0.2793 -0.0409 -0.0032
 6004W        W22078  18.963  12.950   0.381 -0.2102 -0.1265 -0.4106
 6005W        W22079  15.283  17.896   0.896  0.0429  0.1332 -0.0384
 6006W        W22080   4.156  10.499   3.568  0.2172  0.0062 -0.1893
 6007W        W22081  18.483  18.945  11.174 -0.0483  0.2974 -0.0214
 6008W        W22082   6.571  14.378  10.416  0.1643 -0.2850  0.2958
 6009W        W22083  10.517  13.601  12.114  0.0959  0.1318  0.2027
 6010W        W22084  13.132   4.318   0.371  0.1915  0.0673 -0.0028
 6011W        W22085   9.654  18.023   1.794 -0.0743 -0.1580  0.1382
 6012W        W22086   7.659   9.572  14.727 -0.0642 -0.3261 -0.0779
 6013W        W22087  16.635  11.061   2.704  0.2647 -0.4118 -0.2535
 6014W        W22088   1.075  17.506  14.575 -0.1581  0.0145  0.1317
 6015W        W22089   8.559  11.762   3.750 -0.1854  0.0080  0.2383
 6016W        W22090   6.363  14.801   1.668 -0.3746 -0.0098 -0.1079
 6017W        W22091  13.813  12.183  11.032 -0.1800 -0.0152 -0.0045
 6018W        W22092  15.296   7.763  11.771 -0.0328  0.0965  0.0734
 6019W        W22093   7.894  16.855   1.388 -0.0801  0.1425 -0.3675
 6020W        W22094   5.809  10.746   4.664 -0.0691 -0.2002 -0.0656
 6021W        W22095   0.790  10.795   1.691  0.0181 -0.4559  0.1490
 6022W        W22096   5.648   4.528   2.767  0.2448  0.2047 -0.1001
 6023W        W22097  17.938  17.038  11.113 -0.0264  0.0162 -0.0881
 6024W        W22098  15.682   0.353  13.518  0.0281  0.2392 -0.2263
 6025W        W22099   3.266  12.823  11.010  0.1676  0.0723  0.3431
 6026W        W22100  16.955   8.709   1.500  0.1154 -0.3376  0.0292
 6027W        W22101  14.757   0.888   2.421 -0.1353 -0.0986  0.2052
 6028W        W22102   8.033   4.983   2.507 -0.1569  0.2324  0.2809
 6029W        W22103  12.180   7.927   2.126 -0.0690 -0.0717 -0.2747
 6030W        W22104  17.444   5.324   3.437  0.0650 -0.1791  0.1542
 6031W        W22105  11.207  10.922  12.280  0.0581  0.2605  0.4005
 6032W        W22106  19.216   3.819  13.698  0.1365 -0.0735 -0.0453
 6033W        W22107   3.622   8.822  13.099 -0.0010  0.0838 -0.2431
 6034W        W22108  18.163   5.182   0.057  0.2147 -0.1309 -0.0095
 6035W        W22109   5.550  13.753  13.141  0.0646 -0.1501  0.2102
 6036W        W22110  13.197  17.094   3.522 -0.0453  0.2551  0.0019
 6037W        W22111   0.928   0.787   5.095 -0.1708  0.1143  0.0372
 6038W        W22112   4.743  12.061   0.078 -0.2221 -0.1592  0.4006
 6039W        W22113   6.447   4.861  12.351 -0.2843  0.1086  0.2722
 6040W        W22114  17.749  18.839  13.668  0.1834  0.1226  0.0746
 6041W        W22115   1.297  16.283   0.255  0.2104  0.5058 -0.0193
 6042W        W22116   1.608  12.794  12.880  0.0899 -0.1105 -0.1233
 6043W        W22117   3.539   5.067   2.143  0.2440 -0.3397  0.1233
 6044W        W22118   2.134  18.810  13.404 -0.0336 -0.0879 -0.1075
 6045W        W22119   6.138   3.585  14.181 -0.0399  0.2397  0.0378
 6046W        W22120   7.033   3.959   3.395 -0.0048 -0.0965 -0.0267
 6047W        W22121   4.548  14.868   4.499 -0.0040  0.0317  0.0385
 6048W        W22122   6.915  18.597   1.626 -0.3525  0.0342 -0.1478
 6049W        W22123   4.104   5.756   0.790  0.1323  0.2009 -0.1068
 6050W        W22124  11.712   3.176  12.786 -0.3539  0.3258  0.0887
 6051W        W22125  17.642   8.396   1.301  0.1313 -0.0508  0.0291
 6052W        W22126  17.911   0.588  13.909  0.1558  0.3936  0.3120
 6053W        W22127  15.578  11.735   4.312  0.3915  0.0801  0.2789
 6054W        W22128   1.651   9.803   4.179 -0.0940  0.2103 -0.0068
 6055W        W22129   6.583   9.350  13.674  0.3129  0.1647  0.1174
 6056W        W22130  12.508   1.563   5.651 -0.1711  0.0023 -0.0733
 6057W        W22131  15.566  16.512   4.549  0.1789  0.0479 -0.0037
 6058W        W22132  13.039  12.868   2.196  0.0144  0.3142  0.2130
 6059W        W22133   9.866   9.674   3.820  0.1792 -0.2383  0.0866
 6060W        W22134  12.842  10.609  14.928  0.1115  0.2606 -0.0649
 6061W        W22135  11.145   3.034  11.494  0.3986  0.1193  0.0360
 6062W        W22136  15.473   8.478   0.915 -0.3004 -0.2521  0.2868
 6063W        W22137  18.846  13.081   1.725 -0.1118  0.0750 -0.3042
 6064W        W22138   3.156   8.900  12.743  0.0189 -0.0896  0.5071
 6065W        W22139   1.046   3.329   1.299  0.0684 -0.1484  0.1265
 6066W        W22140  15.892   6.074  12.322 -0.1562  0.2416  0.1252
 6067W        W22141   5.078   0.734   1.217  0.1251  0.0535 -0.0786
 6068W        W22142  10.074   2.587  11.297  0.3460  0.2760 -0.1753
 6069W        W22143   9.021   2.429   4.285  0.1023 -0.0368 -0.0910
 6070W        W22144   5.169   8.498  12.428 -0.0354  0.1227 -0.0836
 6071W        W22145  19.016   9.232   1.143 -0.2110  0.1145 -0.1756
 6072W        W22146   4.523   4.979   1.195  0.0403 -0.5340 -0.1007
 6073W        W22147   4.533  18.338  12.490 -0.1848  0.3752  0.0289
 6074W        W22148   0.210  18.201   2.293  0.2598  0.1227 -0.0769
 6075W        W22149  15.247   2.836   4.899 -0.1257  0.2199  0.1851
 6076W        W22150  15.419  18.869   3.680 -0.0128 -0.0596  0.2155
 6077W        W22151  12.319   4.001  14.661 -0.1002  0.0326  0.4838
 6078W        W22152   4.665   2.257   4.354  0.0032  0.1673 -0.0425
 6079W        W22153   1.822   7.913  12.253  0.2406 -0.1368  0.2134
 6080W        W22154  17.147   0.327   2.360  0.2044 -0.1636 -0.0166
 6081W        W22155  17.280   9.733  13.865 -0.0938  0.0039 -0.0431
 6082W        W22156   6.048  12.209   0.444 -0.0905 -0.3495 -0.1386
 6083W        W22157   7.222   1.606   1.171  0.0582 -0.0583 -0.0202
 6084W        W22158  12.195   7.603   1.690  0.1732  0.0643  0.1604
 6085W        W22159  17.302  11.551  12.318  0.1965 -0.1407  0.0999
 6086W        W22160   5.980  12.558   0.801  0.3372  0.1945 -0.1400
 6087W        W22161   4.626   4.161   3.773  0.0300 -0.1286 -0.0095
 6088W        W22162  13.103   2.974   1.812  0.2296 -0.4035  0.0554
 6089W        W22163   8.857   6.420  11.611 -0.1443 -0.2391  0.0283
 6090W        W22164  13.796   5.539  11.109 -0.0370  0.0658  0.1115
 6091W        W22165   6.272  14.149  14.379  0.1196  0.0467  0.0899
 6092W        W22166  13.907  14.134  13.893  0.0874  0.1773  0.0800
 6093W        W22167  10.521   3.984  14.928 -0.2780  0.1843 -0.0003
 6094W        W22168  13.461   2.529   2.005 -0.1904  0.0379  0.4648
 6095W        W22169  13.739   5.642  12.622 -0.1171 -0.0384  0.2347
 6096W        W22170   8.618  14.144  14.248 -0.1887 -0.2510  0.0532
 6097W        W22171   9.242  14.344   2.122 -0.3079  0.2999 -0.1121
 6098W        W22172  13.637  16.756  10.952  0.0732  0.0747 -0.2910
 6099W        W22173   9.971   3.656  10.533 -0.1420  0.0162 -0.1841
 6100W        W22174  12.776  18.669  11.153 -0.3996  0.4243 -0.0316
 6101W        W22175   8.865   6.082   1.532  0.0454  0.2400  0.1029
 6102W        W22176   1.994   8.501   0.074  0.5601  0.0672  0.0765
 6103W        W22177  12.714   9.723  12.018  0.2839 -0.0248  0.0533
 6104W        W22178   3.721   0.831  14.440  0.2455  0.0142  0.2528
 6105W        W22179  13.040   9.898   4.930 -0.0053 -0.1690 -0.2113
 6106W        W22180   6.330   0.530   2.762 -0.2889  0.2032 -0.2590
 6107W        W22181   3.593  10.952   3.509  0.2014 -0.3959  0.0444
 6108W        W22182  13.285   7.036  14.055  0.1417 -0.1960 -0.0488
 6109W        W22183   6.344  14.079  14.951 -0.3015 -0.2943  0.1751
 6110W        W22184  14.684   5.152  13.350 -0.3252  0.3023  0.0401
 6111W        W22185   4.527  14.017  10.565  0.1582  0.2413  0.0577
 6112W        W22186   0.157  10.829   2.595 -0.1752  0.1216 -0.0083
 6113W        W22187  11.674   2.672   4.727  0.1498  0.2472  0.1037
 6114W        W22188   5.955  17.774  12.933 -0.0703 -0.0123 -0.1408
 6115W        W22189  11.623  12.621   3.899  0.1777 -0.1783  0.1746
 6116W        W22190  11.447  15.908   4.649 -0.0244 -0.2889  0.0118
 6117W        W22191   5.386   6.529   3.641 -0.1377 -0.0089  0.0340
 6118W        W22192   9.454  17.796   3.164 -0.1303  0.0588  0.0641
 6119W        W22193   3.027  11.879   1.267  0.1014 -0.0813  0.0717
 6120W        W22194  11.842   5.856   2.484 -0.1737  0.2867  0.2571
 6121W        W22195  17.811   4.806  13.486 -0.0527  0.0892 -0.0119
 6122W        W22196   0.391  11.900  12.769  0.0660 -0.1135  0.2358
 6123W        W22197   9.969   1.220  12.977  0.1182 -0.2605  0.1686
 6124W        W22198   6.196   0.131  13.549  0.1293 -0.1441 -0.0200
 6125W        W22199  18.140   9.700   4.806  0.2563 -0.1427  0.1670
 6126W        W22200  13.501  13.809  13.671 -0.1584  0.0719 -0.3491
 6127W        W22201  15.002   6.837  13.251 -0.1111  0.1657  0.0649
 6128W        W22202  16.469   9.656   0.683  0.0971  0.1895 -0.1670
 6129W        W22203  14.344  16.464  11.620  0.1903 -0.4200 -0.0540
 6130W        W22204  11.773   0.923   1.048 -0.0129  0.1419  0.2371
 6131W        W22205  14.178  17.712  14.340 -0.0151 -0.1260  0.1775
 6132W        W22206   8.033  11.626   0.161 -0.0139  0.1752 -0.2658
 6133W        W22207   1.088  17.543  10.829 -0.3635 -0.0181  0.0383
 6134W        W22208   6.187   4.960   4.449  0.2915 -0.1672  0.1564
 6135W        W22209   4.319  11.147   2.405  0.1182 -0.0890 -0.0252
 6136W        W22210   9.827  10.352  10.751 -0.2318  0.2253 -0.3406
 6137W        W22211  14.882  10.514  13.345  0.3016 -0.2573  0.1427
 6138W        W22212   8.869   6.119   4.695  0.2793 -0.1303 -0.0647
 6139W        W22213  18.798   8.337  11.701  0.4577 -0.1385 -0.2417
 6140W        W22214  11.649   6.868   0.290  0.0084  0.3670  0.0252
 6141W        W22215   3.515   6.541   0.966 -0.1163  0.0803  0.0365
 6142W        W22216   5.837   4.923   9.593  0.0512 -0.2750 -0.3307
 6143W        W22217   2.237   8.985   4.059  0.0507 -0.0716  0.0408
 6144W        W22218   3.489   3.892   4.468 -0.1998 -0.0580 -0.1262
 6145W        W22219   1.682  12.121  10.956 -0.2411 -0.1082 -0.1871
 6146W        W22220   7.101   3.036   1.292  0.0159  0.4721  0.0583
 6147W        W22221  13.647   3.328  11.912  0.0905 -0.1044 -0.0918
 6148W        W22222   8.757  10.678  14.728 -0.1956  0.1607 -0.0154
 6149W        W22223   1.734  12.770   2.716 -0.1464 -0.0603  0.2903
 6150W        W22224  10.757  15.735  14.446  0.1058  0.1630  0.0624
 6151W        W22225  10.659   6.973  13.716  0.0492  0.1262 -0.0427
 6152W        W22226   9.635  10.823   3.236  0.1904  0.2359 -0.0879
 6153W        W22227   9.674  19.014   4.059  0.1359 -0.2121  0.4230
 6154W        W22228  16.881   5.884   3.673 -0.0993  0.2116 -0.0452
 6155W        W22229   7.688  12.079  12.092 -0.2055  0.0790 -0.2076
 6156W        W22230   4.363   0.149  14.910  0.0351 -0.2054 -0.0360
 6157W        W22231  15.821  13.226   2.582  0.1569  0.1402 -0.0133
 6158W        W22232  16.333  17.500   9.494  0.0922 -0.1466  0.3612
 6159W        W22233   8.949  14.171   0.084 -0.3199  0.1150 -0.1449
 6160W        W22234   9.326  16.765  11.217  0.0933 -0.0835  0.3486
 6161W        W22235  14.604  19.076   3.217  0.2853  0.0911 -0.2117
 6162W        W22236   4.666   3.513  12.638 -0.0002  0.4831 -0.1497
 6163W        W22237   8.287   7.231   0.671 -0.0780 -0.1725 -0.0673
 6164W        W22238   0.817  18.552   5.149 -0.0452 -0.2297 -0.1312
 6165W        W22239   0.241   8.163   2.003  0.2631 -0.2994 -0.0882
 6166W        W22240  17.922   1.470  12.851 -0.0791  0.1885 -0.2368
 6167W        W22241  11.043  17.991   1.293 -0.2251 -0.0379 -0.1486
 6168W        W22242   6.127  10.016   3.600 -0.1259  0.1219  0.2500
 6169W        W22243   8.107  18.252  13.863  0.0556 -0.1802  0.1551
 6170W        W22244   9.422  11.168   3.731 -0.1625  0.2224  0.1215
 6171W        W22245   9.766   0.167  10.210  0.3414 -0.0221  0.1120
 6172W        W22246  13.521   0.395  12.350 -0.0534  0.1106  0.0952
 6173W        W22247  19.261   3.084  13.136  0.1285  0.1810  0.0752
 6174W        W22248  10.438   0.385  14.804  0.1287 -0.0692  0.1626
 6175W        W22249  17.441  15.557   0.902 -0.0338  0.1172 -0.0752
 6176W        W22250   3.044  14.689   0.050  0.0862 -0.0836  0.3258
 6177W        W22251   8.200  13.137   4.009  0.4950 -0.0236 -0.0288
 6178W        W22252  18.916  16.251   5.703  0.0193  0.0549  0.1939
 6179W        W22253   9.252   2.360   0.230  0.0076 -0.2376  0.0694
 6180W        W22254  17.231  15.868  14.910 -0.0895 -0.1244 -0.2396
 6181W        W22255  13.206  11.445   4.791 -0.3540 -0.1901  0.1082
 6182W        W22256   9.360   6.114   0.189  0.0714 -0.1208  0.0905
 6183W        W22257   4.855   1.011  12.018 -0.4199  0.0164  0.1008
 6184W        W22258  13.242   3.327  11.657 -0.0704  0.0313  0.0624
 6185W        W22259   6.927  17.587   2.737  0.1171 -0.3748 -0.1205
 6186W        W22260   3.680   2.123   1.970  0.1203  0.0416 -0.1568
 6187W        W22261  14.002   7.660  10.724 -0.0945 -0.1716 -0.3316
 6188W        W22262   7.076   2.749  14.943  0.0213 -0.2539 -0.0045
 6189W        W22263   2.169   9.626   0.946 -0.0572 -0.1885  0.0734
 6190W        W22264   5.845  15.240  12.178  0.4110 -0.1897  0.0816
 6191W        W22265   1.084  17.663  13.972 -0.0067  0.0069 -0.5641
 6192W        W22266  12.298  18.990   1.699 -0.0624  0.2769  0.2024
 6193W        W22267  18.014   9.570   2.710 -0.2881  0.1589  0.0550
 6194W        W22268   1.242  13.890  12.095  0.2090 -0.2321 -0.2372
 6195W        W22269   3.441  11.863   2.078  0.0775 -0.1750  0.0149
 6196W        W22270  13.007  18.288   4.168  0.0521 -0.0945 -0.0639
 6197W        W22271  12.889  10.616  12.041 -0.0348 -0.3792 -0.0296
 6198W        W22272  19.056  14.826  14.667 -0.5720 -0.1020 -0.1422
 6199W        W22273   6.616   2.060  12.763 -0.1018  0.0762 -0.2140
 6200W        W22274   4.026  11.640   0.462 -0.4687  0.1899 -0.2838
 6201W        W22275  14.161  11.955   2.429  0.0125 -0.0392  0.1098
 6202W        W22276   9.212   3.786  10.890  0.2645 -0.1288  0.0108
 6203W        W22277  11.051  18.659   4.725 -0.2093  0.5594  0.0717
 6204W        W22278   0.575   9.695   5.628  0.0059 -0.3091 -0.1786
 6205W        W22279  13.971   8.785   4.348  0.2810 -0.1540  0.4285
 6206W        W22280   6.674  10.942   5.483 -0.0887 -0.1097 -0.3194
 6207W        W22281   1.929  16.969   2.274  0.1790  0.0686 -0.3841
 6208W        W22282  16.793  13.768   1.734  0.1431 -0.1704  0.0184
 6209W        W22283  15.502   0.233   1.575  0.0623  0.1935  0.1978
 6210W        W22284  16.042  18.508  11.352  0.7088  0.0221 -0.1467
 6211W        W22285  14.550  11.829   3.210 -0.0797 -0.0904  0.0787
 6212W        W22286   3.133   4.753  12.257 -0.4128 -0.1820  0.0215
 6213W        W22287  16.858  13.466  14.878  0.0394  0.2308 -0.1408
 6214W        W22288   2.789  13.225  12.715 -0.0825  0.2056  0.2403
 6215W        W22289  12.887  14.749   4.013  0.3200 -0.0776 -0.0812
 6216W        W22290   8.613   0.444   2.013  0.1939  0.1109 -0.0611
 6217W        W22291   0.528   8.986   2.194 -0.1715 -0.0187  0.0371
 6218W        W22292   0.014   6.446   2.324 -0.0063 -0.3831  0.4820
 6219W        W22293   3.222  18.251   1.673 -0.1055 -0.0120  0.0415
 6220W        W22294   4.206   3.875  12.510 -0.2488 -0.0344 -0.0394
 6221W        W22295  12.284  17.666   2.517 -0.0081  0.0807 -0.1993
 6222W        W22296  11.910  16.764  12.967  0.4544  0.1001 -0.1192
 6223W        W22297   8.599   7.374  14.431  0.2975 -0.1312 -0.1922
 6224W        W22298   2.682  18.367  11.098 -0.0866 -0.1522  0.2674
 6225W        W22299  19.140  12.532  12.406 -0.0452 -0.0238  0.1577
 6226W        W22300   1.485   3.239  10.567  0.0672  0.2933 -0.1182
 6227W        W22301   0.075   4.440   1.495  0.0381 -0.1366  0.1385
 6228W        W22302  18.687   5.421  14.443  0.0214  0.2164 -0.0338
 6229W        W22303  12.840   4.979   1.491  0.0859 -0.0403 -0.0475
 6230W        W22304   0.940  16.324  14.035  0.0751 -0.2695  0.2339
 6231W        W22305   1.885   0.915   0.638 -0.3300  0.0126 -0.0699
 6232W        W22306  18.825   5.166  12.464  0.2776  0.2868  0.1295
 6233W        W22307  19.039   5.656  13.990  0.0652  0.4782 -0.2191
 6234W        W22308  18.376   7.146   0.832  0.0700  0.1325  0.1741
 6235W        W22309   9.602  17.808   4.495 -0.1223  0.1157 -0.2936
 6236W        W22310   7.962   1.961  10.399  0.0704  0.1633 -0.0136
 6237W        W22311   7.940   3.311   2.058  0.1534 -0.0416 -0.1357
 6238W        W22312  12.641  17.279   3.649 -0.1134 -0.4302  0.0462
 6239W        W22313   5.938  15.968  12.607 -0.0298 -0.2057  0.0245
 6240W        W22314  10.888  10.844   2.071  0.0399  0.0391 -0.0983
 6241W        W22315   4.496   2.919  13.303  0.1185  0.0230 -0.2870
 6242W        W22316   5.774  16.291  11.596 -0.1146  0.1528  0.1140
 6243W        W22317   6.086   1.564   1.172 -0.1030 -0.1409 -0.0501
 6244W        W22318   5.208   3.185   3.279 -0.4092 -0.0757 -0.0112
 6245W        W22319  17.100  17.174  11.461  0.1619 -0.1109 -0.1196
 6246W        W22320  17.790   9.805  11.615 -0.2317  0.0549  0.1107
 6247W        W22321   0.751  18.789   3.115 -0.1055 -0.2557 -0.2562
 6248W        W22322   4.148  17.067  14.080  0.2449 -0.1108  0.1258
 6249W        W22323  12.499  10.180  12.296  0.1081  0.0051  0.1895
 6250W        W22324   1.486  14.704  11.795  0.1778 -0.4291  0.2096
 6251W        W22325  18.216   0.734   3.184  0.3856 -0.2204 -0.3989
 6252W        W22326  10.184   3.057  12.934  0.0754  0.5322 -0.0669
 6253W        W22327   8.674  15.044  11.334  0.0165 -0.3034 -0.1434
 6254W        W22328   0.685   7.814   5.600 -0.2540 -0.1655  0.0076
 6255W        W22329   9.854  11.351   9.679  0.2844  0.0165 -0.0052
 6256W        W22330  13.127   3.135   3.998 -0.2235  0.1552  0.1160
 6257W        W22331   6.781  11.153   1.183 -0.2507 -0.0229  0.0333
 6258W        W22332   5.423   7.196  13.119  0.0103  0.1936  0.0007
 6259W        W22333  15.563   1.075  12.847 -0.0747 -0.0838 -0.0080
 6260W        W22334   8.723  10.369  13.774  0.0764  0.4114 -0.1590
 6261W        W22335  16.424   2.613  11.357  0.1290 -0.1004 -0.4543
 6262W        W22336  13.515  16.290  14.461 -0.0949 -0.0649 -0.1635
 6263W        W22337  14.279  13.510   2.672  0.2032 -0.2628  0.0831
 6264W        W22338  11.414   4.119   3.088  0.3035 -0.0857 -0.3097
 6265W        W22339  17.222  13.075  14.647  0.1616  0.0211 -0.3194
 6266W        W22340   9.086   4.968  12.337  0.0742 -0.3509 -0.1649
 6267W        W22341  15.695   9.763  13.964 -0.0912 -0.1239 -0.2671
 6268W        W22342   2.676   1.326   1.794  0.3065 -0.3389 -0.2519
 6269W        W22343  10.702  15.188  12.470  0.0730 -0.2711 -0.0158
 6270W        W22344   6.344   6.090   1.052 -0.0660  0.2814  0.1741
 6271W        W22345   6.042  15.362  14.288  0.4658  0.0707  0.1748
 6272W        W22346   2.078   0.909  13.402  0.2253 -0.1215 -0.5566
 6273W        W22347  16.509  15.270   0.973  0.1836 -0.1114  0.2406
 6274W        W22348   7.777   4.849  14.813  0.1439  0.1918  0.0439
 6275W        W22349   6.016  17.793   0.322  0.2341  0.0292 -0.1519
 6276W        W22350  16.508   6.883  14.325  0.0682  0.0162  0.0028
 6277W        W22351   7.784  10.025  13.431 -0.0335  0.1833  0.0433
 6278W        W22352   1.053   5.982  12.670  0.0337 -0.2546 -0.1525
 6279W        W22353   4.329  12.779   0.811  0.0016  0.1047 -0.2517
 6280W        W22354   3.147  12.960  13.633 -0.1602 -0.1613 -0.1099
 6281W        W22355  15.705  10.846  11.203  0.0067  0.2318  0.3102
 6282W        W22356   4.597   6.181  12.741  0.0413 -0.1051 -0.1443
 6283W        W22357  16.924   8.370   4.329 -0.2456  0.3191  0.0299
 6284W        W22358  16.764   9.731   1.733  0.1015 -0.2267 -0.0910
 6285W        W22359  11.034  16.169   1.328 -0.0027  0.2215 -0.1249
 6286W        W22360   0.514  17.424   1.940 -0.0374 -0.2919  0.1928
 6287W        W22361  12.358  10.563   2.563  0.1910  0.0120 -0.0345
 6288W        W22362   5.469   1.893   1.845  0.1439 -0.2070 -0.2837
 6289W        W22363  17.337  17.222  12.014 -0.0736  0.1905 -0.1382
 6290W        W22364   6.877  12.774  12.979  0.2150 -0.2686 -0.1972
 6291W        W22365   7.101  13.520  14.094 -0.0800 -0.2168  0.0095
 6292W        W22366  14.198   3.961   3.779 -0.0601  0.0800  0.1685
 6293W        W22367   3.303   2.633  12.743  0.0965  0.1366 -0.0672
 6294W        W22368  18.529   0.670   4.836 -0.0220  0.3737  0.0457
 6295W        W22369  10.793  18.318   2.596 -0.0943  0.2983 -0.2261
 6296W        W22370  14.739   8.569   0.569  0.0886  0.1074  0.2203
 6297W        W22371  17.216   5.057   4.266 -0.0494 -0.0662  0.0946
 6298W        W22372  18.968  15.629   0.803  0.0174 -0.3367  0.3424
 6299W        W22373   6.447   8.654   0.862  0.1683 -0.1743  0.0020
 6300W        W22374   6.169   6.208   4.394 -0.0959  0.1214  0.2673
 6301W        W22375  13.835  15.564  10.972  0.2343  0.3747  0.0262
 6302W        W22376   9.653  13.356   1.422  0.1986 -0.0117  0.1887
 6303W        W22377   7.036   0.497  10.116 -0.1625  0.1864 -0.0744
 6304W        W22378  18.837   8.829  11.435 -0.3470 -0.1459  0.2330
 6305W        W22379  13.882  12.510   0.962  0.0291 -0.1224 -0.0494
 6306W        W22380  13.501   6.391  10.113 -0.0785 -0.2729 -0.0305
 6307W        W22381   8.079   0.594  14.809 -0.4070  0.2160  0.4787
 6308W        W22382   0.957   5.821  14.389 -0.0005 -0.2077  0.0955
 6309W        W22383  15.699   8.929   4.975 -0.0612 -0.0224  0.0094
 6310W        W22384   0.585   7.257   5.304  0.3186 -0.1712  0.2195
 6311W        W22385   7.778  10.302  12.416  0.0724  0.3428 -0.2529
 6312W        W22386  18.564  19.035   2.430 -0.3212  0.2335  0.2250
 6313W        W22387  15.072  17.565  14.008 -0.0515  0.0320 -0.0660
 6314W        W22388   3.964   3.225  12.425 -0.0127 -0.0112  0.2950
 6315W        W22389  16.932  12.082   3.113 -0.0858  0.3544 -0.0934
 6316W        W22390   4.205  14.872   4.959 -0.0804  0.3931 -0.1276
 6317W        W22391  10.196  14.463  11.827 -0.2537 -0.0627  0.0748
 6318W        W22392   9.892   1.417  12.322 -0.0957  0.3268 -0.2210
 6319W        W22393   2.732  11.243  12.914  0.0150 -0.2508 -0.1210
 6320W        W22394   0.905   8.000   0.197 -0.1473  0.0790  0.2954
 6321W        W22395   6.705  17.094   1.075  0.2632  0.1605 -0.3521
 6322W        W22396   2.908   9.931   0.349 -0.1302  0.0264 -0.1769
 6323W        W22397   3.521  13.558   1.115  0.1809  0.1095  0.2988
 6324W        W22398  18.599   1.693  14.768 -0.0237 -0.0650 -0.2216
 6325W        W22399  15.630  14.367  13.018  0.0571 -0.2224  0.1747
 6326W        W22400  17.051   6.916   3.923 -0.0368  0.1074  0.1439
 6327W        W22401  12.482   5.681  10.721 -0.0933  0.0644  0.3558
 6328W        W22402   4.916   5.541  11.546  0.0777  0.2712 -0.0792
 6329W        W22403   1.563  16.535   1.928 -0.3319 -0.1786 -0.1169
 6330W        W22404  18.768  11.753  10.726 -0.0481  0.1178 -0.1483
 6331W        W22405  11.549  13.102   3.062 -0.1765  0.0210  0.0204
 6332W        W22406  15.963  11.041   2.696 -0.0394  0.0847 -0.0684
 6333W        W22407   4.006   0.736   1.561 -0.2770  0.0689  0.0184
 6334W        W22408  19.166  14.803  11.566  0.0083 -0.0301 -0.0952
 6335W        W22409  19.039   3.311   4.096 -0.0603 -0.1259 -0.1131
 6336W        W22410   6.823  10.328  12.824  0.0154 -0.1021 -0.0902
 6337W        W22411  13.026  11.859   9.781  0.2504 -0.1411  0.0545
 6338W        W22412   4.310   9.592  11.392  0.1563 -0.0393  0.2029
 6339W        W22413  10.700   8.972  12.299  0.0951  0.1788  0.0399
 6340W        W22414   4.423  14.556  14.508  0.3648 -0.1791 -0.1897
 6341W        W22415  11.416   1.073  14.816 -0.0966  0.2450 -0.1991
 6342W        W22416   6.267  16.305  14.741  0.2486  0.2033  0.1959
 6343W        W22417   7.768   8.718  14.144 -0.1591 -0.1005 -0.0834
 6344W        W22418   5.519   4.519   3.603 -0.2565  0.0455 -0.0908
 6345W        W22419  15.939   1.537   9.829  0.2885  0.0976  0.1602
 6346W        W22420  18.364   1.567  11.666  0.1188 -0.0429 -0.1803
 6347W        W22421   2.915  13.800   2.973  0.1180  0.2910 -0.1764
 6348W        W22422   7.734  14.259   4.697 -0.1810 -0.1295 -0.1295
 6349W        W22423   2.231  11.141   4.785  0.2971  0.2246 -0.1678
 6350W        W22424   1.708   8.246   0.421  0.1548 -0.2093 -0.0594
 6351W        W22425   9.711   9.309   2.063 -0.1035 -0.0710  0.2611
 6352W        W22426  15.601  19.027   1.428 -0.2131 -0.0850  0.0431
 6353W        W22427  16.595  16.707   4.264 -0.0640  0.2868  0.2379
 6354W        W22428  16.418  17.176   2.461  0.1595 -0.1539  0.0715
 6355W        W22429   0.882  16.669   2.942  0.3652  0.0525 -0.1143
 6356W        W22430  11.367  18.106   0.426 -0.2741  0.1871  0.2874
 6357W        W22431   2.989   9.130  13.182  0.2046 -0.2603 -0.4747
 6358W        W22432   4.500   6.687  12.803  0.2049 -0.2872  0.0851
 6359W        W22433  11.420  14.673  11.870  0.1304  0.2412  0.2101
 6360W        W22434  12.556  17.964   5.090  0.3421 -0.2657  0.3543
 6361W        W22435   0.975  13.819   3.802 -0.1206  0.0372  0.1760
 6362W        W22436  14.049   5.618   4.258  0.3650  0.2012  0.2593
 6363W        W22437   4.852   5.006  14.547  0.0013  0.2942  0.1431
 6364W        W22438  15.222  15.028   1.774 -0.0096 -0.2891  0.0958
 6365W        W22439  13.868   8.404   4.971  0.0914  0.2008 -0.1747
 6366W        W22440  15.700  12.028  14.603 -0.2011 -0.3543  0.2004
 6367W        W22441   0.618   9.717   3.284 -0.1237  0.2357  0.0160
 6368W        W22442  14.986  15.063   2.959 -0.0489  0.0777 -0.2429
 6369W        W22443  11.665   6.816  12.114 -0.1132  0.3184 -0.0196
 6370W        W22444   2.050   5.957  11.517  0.1580 -0.1127  0.2123
 6371W        W22445  17.633   2.670   4.085 -0.4648  0.3047 -0.0408
 6372W        W22446   8.922   6.999   1.391  0.4065 -0.1439 -0.2361
 6373W        W22447   0.082   6.382   0.096  0.0429 -0.1851 -0.0158
 6374W        W22448   9.509   6.415  13.428 -0.0444  0.1175  0.0135
 6375W        W22449  13.492  14.914   3.825  0.1847 -0.0837 -0.1057
 6376W        W22450  10.318   6.277   2.163 -0.1722  0.1375  0.0868
 6377W        W22451   3.918  10.053   3.585 -0.2574 -0.0911  0.0217
 6378W        W22452  18.818  17.390  12.658  0.0185 -0.1021 -0.1173
 6379W        W22453  11.309   5.372  13.733 -0.2239 -0.1601 -0.2435
 6380W        W22454   5.061   2.092   0.166 -0.0596 -0.0089  0.1928
 6381W        W22455   5.630  14.237  13.299  0.0329  0.0504 -0.3227
 6382W        W22456   9.058  11.293  11.711  0.1419 -0.0096 -0.3096
 6383W        W22457  10.782   3.861  12.606 -0.0170  0.1358  0.3616
 6384W        W22458  10.157   5.802  14.527 -0.1426 -0.0557  0.1432
 6385W        W22459   7.423  14.907   0.658 -0.0920  0.0655 -0.4748
 6386W        W22460   1.029   8.891   1.836  0.5806  0.4167  0.0084
 6387W        W22461   1.486   4.141  11.768  0.2197 -0.0935  0.1349
 6388W        W22462   4.242   2.949   1.658  0.2894  0.1579 -0.1661
 6389W        W22463  18.936   2.454  10.108 -0.2895 -0.2914  0.2280
 6390W        W22464   5.791  11.919   3.524  0.0452 -0.1684  0.2610
 6391W        W22465  12.144  10.843   3.859 -0.1535  0.0305  0.2034
 6392W        W22466   6.990  13.273   2.249  0.0091 -0.1314 -0.0533
 6393W        W22467   7.310  16.076  12.819 -0.1757 -0.4115  0.2745
 6394W        W22468  11.239  15.946   4.165 -0.2836 -0.0617  0.1136
 6395W        W22469   2.236  16.016   1.187 -0.1690 -0.0668 -0.0405
 6396W        W22470   7.648   7.449   3.746  0.0298  0.1607  0.1907
 6397W        W22471  18.473  10.031   4.559 -0.2387 -0.3247 -0.1211
 6398W        W22472   0.489  16.422   4.572 -0.1261  0.0112  0.2410
 6399W        W22473  11.101  17.378   3.035  0.0603 -0.0779 -0.1915
 6400W        W22474   1.950   2.408   3.989  0.2408  0.3095  0.0273
 6401W        W22475  10.970  16.798  12.222  0.0903  0.0050  0.0302
 6402W        W22476   7.955  11.809   1.678 -0.1762 -0.1457  0.2621
 6403W        W22477   0.362   1.701  13.354  0.1520 -0.4062  0.0876
 6404W        W22478   4.386  17.025   3.117 -0.1961  0.0273 -0.1257
 6405W        W22479  17.012   0.462   1.912 -0.0822  0.2622  0.2684
 6406W        W22480   8.249   9.050  14.218 -0.1431 -0.3800  0.1335
 6407W        W22481   5.795   0.597   3.941 -0.1255  0.0836  0.0872
 6408W        W22482   5.151   5.557   3.409  0.2464  0.2191 -0.0909
 6409W        W22483  11.157  15.998   9.700  0.1418  0.1955 -0.2622
 6410W        W22484  15.720   3.023   0.140 -0.3462 -0.2168 -0.2568
 6411W        W22485   1.077  15.840   2.609  0.6016  0.2916 -0.0420
 6412W        W22486   9.744  14.962  12.545 -0.1849  0.2052  0.0872
 6413W        W22487  14.577  11.984  11.246 -0.2347 -0.0183  0.2569
 6414W        W22488  13.806  15.056   0.964 -0.0105 -0.1949  0.1718
 6415W        W22489   9.917   5.518  11.281  0.1035 -0.2912  0.2520
 6416W        W22490   0.617   1.939  10.776  0.0413  0.0932  0.0998
 6417W        W22491  14.625  13.291   5.136 -0.3459  0.0813  0.0989
 6418W        W22492   3.290   4.533  14.128 -0.0188  0.3733 -0.0653
 6419W        W22493  14.817  10.039   4.110 -0.0283  0.1415  0.3648
 6420W        W22494  10.872   1.569   0.211  0.0389 -0.0997  0.4012
 6421W        W22495  19.068  13.863  12.971 -0.2560  0.0450  0.1079
 6422W        W22496  10.115  12.701   3.252 -0.3252 -0.1530  0.0818
 6423W        W22497   0.122   1.778   5.662 -0.3369 -0.4321  0.1607
 6424W        W22498  13.446  10.309  11.700 -0.2902 -0.0351  0.1431
 6425W        W22499   9.081  14.394   2.946 -0.0553 -0.2093  0.0979
 6426W        W22500  10.526   3.998   5.472 -0.2224  0.4032  0.3559
 6427W        W22501   5.207   7.516   2.871 -0.0998 -0.4061 -0.2672
 6428W        W22502   5.080   8.683   2.275 -0.2546 -0.1412 -0.3265
 6429W        W22503   6.355   3.937   3.957 -0.0188  0.0180  0.1109
 6430W        W22504  13.226   4.165  13.497  0.0253 -0.0366  0.0956
 6431W        W22505  16.564  15.785  10.686 -0.3441 -0.2019  0.0277
 6432W        W22506   8.193   0.149  12.332  0.1202  0.1945  0.2770
 6433W        W22507   5.947  17.387   3.967  0.0566  0.3063  0.1383
 6434W        W22508   8.163  13.728  12.101  0.0906 -0.2423 -0.0489
 6435W        W22509  13.186   5.731   2.982  0.0190 -0.0084 -0.0731
 6436W        W22510   4.678  10.817   3.512  0.2238 -0.1749  0.0335
 6437W        W22511  13.761   5.532   0.512 -0.2883  0.2257  0.1905
 6438W        W22512  13.649  16.588  14.088 -0.3738 -0.0390  0.4251
 6439W        W22513  19.195   3.186  12.233 -0.0858 -0.0381  0.1760
 6440W        W22514  12.482  14.339   3.862  0.1662  0.1294 -0.4257
 6441W        W22515   2.650   7.539  12.304  0.2239  0.3913  0.0928
 6442W        W22516  13.744   9.156  14.165 -0.1973  0.2943 -0.0887
 6443W        W22517  17.777   9.015  13.150  0.3122 -0.0197  0.2437
 6444W        W22518   8.317  18.951  13.891 -0.2357 -0.0076 -0.0135
 6445W        W22519  15.998  11.481   3.824 -0.2460  0.1617  0.2904
 6446W        W22520   7.176   9.541  10.857  0.0194  0.1771  0.0203
 6447W        W22521  13.716  17.167   0.461 -0.2821  0.2770 -0.2501
 6448W        W22522   3.093   0.982   3.850 -0.1549  0.1177  0.0776
 6449W        W22523  14.173   9.442  14.194 -0.1560 -0.3851 -0.0297
 6450W        W22524   1.394  10.421  13.591  0.3065 -0.1981  0.2652
 6451W        W22525  19.036  18.293   0.308  0.0017  0.1877 -0.0147
 6452W        W22526  12.499  19.223  12.284  0.1363 -0.0265  0.2149
 6453W        W22527   1.164   0.192  14.191  0.0322 -0.2049  0.0950
 6454W        W22528   4.067   3.303  14.947 -0.0867  0.3972  0.0394
 6455W        W22529  10.787  18.640   3.351  0.2764  0.0186  0.0970
 6456W        W22530   0.995   2.723  14.146 -0.3301 -0.0686  0.2957
 6457W        W22531  17.922   8.198   2.657 -0.0535  0.1623 -0.0101
 6458W        W22532  17.856  15.295  13.787  0.0108 -0.2296 -0.2451
 6459W        W22533  18.093  15.872   3.357 -0.1812 -0.0420  0.2725
 6460W        W22534  11.109   4.553   1.759  0.0985 -0.0808  0.1425
 6461W        W22535   1.721  15.509  12.199  0.0019  0.1021  0.4360
 6462W        W22536  13.966  10.143  10.756 -0.2327 -0.0645  0.1632
 6463W        W22537   1.711  12.339  13.567 -0.2829  0.2038 -0.5085
 6464W        W22538  17.792  14.719  13.450  0.0082 -0.4726  0.3098
 6465W        W22539   6.351   6.629   2.845  0.0241  0.1537  0.3673
 6466W        W22540   5.328   1.787  12.932  0.2237 -0.0869 -0.0353
 6467W        W22541  12.177   9.420  11.284 -0.0081 -0.1959  0.5772
 6468W        W22542  16.468   7.309   2.697 -0.1293  0.0551  0.0153
 6469W        W22543   0.598  12.992  12.777 -0.2865  0.1637 -0.0482
 6470W        W22544  14.347  15.508   1.698 -0.2262  0.1626 -0.2670
 6471W        W22545  15.882   4.623  14.306 -0.1862 -0.1657 -0.0863
 6472W        W22546   4.522   6.577  13.546 -0.0890  0.3664  0.0051
 6473W        W22547   1.870  11.697  10.947 -0.0263  0.0064  0.2458
 6474W        W22548  15.341   3.626   3.748  0.3192  0.0241  0.0109
 6475W        W22549  18.085   0.081  10.749 -0.1882 -0.2702  0.2704
 6476W        W22550  11.959  12.397  14.018 -0.3303  0.0672  0.0072
 6477W        W22551   2.982  19.144   2.710  0.1849 -0.3012  0.0472
 6478W        W22552  17.269  15.267  13.862  0.1014 -0.0671  0.2664
 6479W        W22553   4.018   1.215  14.103  0.0332  0.2287  0.1782
 6480W        W22554   1.399  19.191  11.820 -0.2056  0.1228 -0.2311
 6481W        W22555   5.918  19.242   3.189  0.2248  0.2172 -0.0949
 6482W        W22556  16.928   1.718   4.842  0.1356  0.0542 -0.3866
 6483W        W22557   1.851   0.367  12.391  0.0709  0.1103  0.1834
 6484W        W22558  11.130  15.619  13.444 -0.1314 -0.1762 -0.0408
 6485W        W22559   0.155  17.170   2.200 -0.0753  0.1523 -0.1643
 6486W        W22560  14.645   9.479  14.266 -0.2075 -0.2005 -0.3429
 6487W        W22561  13.191  17.723   1.190  0.2198 -0.2622 -0.2748
 6488W        W22562   6.813   3.744  11.666  0.1759  0.0198 -0.2861
 6489W        W22563  11.804   2.683  14.620 -0.0414  0.0844 -0.2238
 6490W        W22564   3.499  15.178  11.964  0.0533  0.2266 -0.2235
 6491W        W22565   4.156  18.467   3.061 -0.0490  0.3268 -0.2034
 6492W        W22566  13.431   0.429   2.712 -0.3130  0.3336  0.0337
 6493W        W22567  12.490  16.410  14.322  0.2194  0.1349 -0.2648
 6494W        W22568  15.781   4.378   4.114 -0.0884 -0.1042 -0.0521
 6495W        W22569  14.869  11.507  14.447 -0.2326 -0.0162  0.1472
 6496W        W22570   6.444  14.642  13.659  0.1039  0.0061 -0.0338
 6497W        W22571  18.481   7.306  14.316  0.2367 -0.0818 -0.0248
 6498W        W22572   8.422  17.146   0.514  0.2936 -0.0498  0.3036
 6499W        W22573   6.203  12.278   3.763  0.1684  0.1400  0.1693
 6500W        W22574   1.372  16.316   1.136 -0.0032  0.1354  0.0530
 6501W        W22575   6.056   1.281  12.758 -0.1789  0.1142 -0.0727
 6502W        W22576  17.533   8.258   4.451  0.0275 -0.2410  0.1672
 6503W        W22577   4.586   0.553   3.186  0.2162  0.0427 -0.1912
 6504W        W22578   1.334  17.259  12.136  0.0909  0.2627 -0.1395
 6505W        W22579   4.333  11.729   0.882  0.0643 -0.0367  0.4239
 6506W        W22580   9.273   4.804  11.217  0.1602  0.0214 -0.2810
 6507W        W22581   9.292   3.185  13.277 -0.1186 -0.1676  0.1336
 6508W        W22582  17.929   5.314   2.932 -0.0856 -0.3791 -0.0476
 6509W        W22583  18.241   1.580  11.206  0.1416  0.2924 -0.0198
 6510W        W22584  15.916  12.775   0.780  0.2239  0.2806  0.0100
 6511W        W22585   4.350   7.589   3.119 -0.0121 -0.1729  0.1139
 6512W        W22586   2.750   3.991   1.642  0.4021  0.1068  0.2014
 6513W        W22587   9.599  14.468   4.231  0.0444 -0.4002 -0.0563
 6514W        W22588   2.533   2.315   9.970 -0.2195 -0.1908 -0.2096
 6515W        W22589   4.885   1.373  13.674 -0.1411  0.0733 -0.0566
 6516W        W22590  15.916  19.145   4.425 -0.0392  0.3165  0.0671
 6517W        W22591   5.152  14.993  13.906 -0.0464 -0.3108  0.1374
 6518W        W22592   6.926   0.779  13.328  0.1115 -0.2487 -0.1146
 6519W        W22593  12.508   6.273  11.171 -0.0013 -0.0356 -0.0621
 6520W        W22594  11.768  12.655   2.399  0.2013 -0.1959 -0.4625
 6521W        W22595   4.588   2.754   5.019  0.2681 -0.1051 -0.1159
 6522W        W22596   4.532  12.122  11.842 -0.3195  0.1367 -0.0389
 6523W        W22597   9.412   1.006   2.269  0.2737 -0.1809 -0.4133
 6524W        W22598   2.825   3.017  11.406  0.1605  0.1826 -0.2890
 6525W        W22599   6.887  12.021  11.838  0.1931 -0.2854 -0.0483
 6526W        W22600  12.587   0.456  12.996 -0.4146 -0.0423  0.0652
 6527W        W22601   4.847  12.684   2.780  0.2189 -0.1396  0.0745
 6528W        W22602  15.266   9.921   0.313  0.0626 -0.1302  0.2005
 6529W        W22603   6.178   4.997  10.679  0.0834  0.3220 -0.2105
 6530W        W22604  10.598   1.758  12.366  0.1933  0.0631 -0.1396
 6531W        W22605  13.054  15.014  11.742 -0.1035 -0.4082 -0.2660
 6532W        W22606  19.016  11.795   1.533  0.3151 -0.1210  0.3431
 6533W        W22607   3.933   7.495  12.825  0.1898  0.1530 -0.2946
 6534W        W22608   4.267  10.116   0.745  0.1969  0.1948  0.1193
 6535W        W22609   6.575  18.351   0.166  0.1816  0.1386 -0.2792
 6536W        W22610   1.166  18.044   1.374  0.1008 -0.4230 -0.0248
 6537W        W22611   4.066  15.489   3.821 -0.4264 -0.3730  0.0812
 6538W        W22612   5.966   3.694   1.763 -0.3215 -0.1077 -0.0496
 6539W        W22613   8.496  11.974  12.490  0.1491  0.2127 -0.1837
 6540W        W22614   9.732  16.107   0.018  0.2010 -0.1379 -0.1377
 6541W        W22615  16.804  17.448   5.624 -0.3289 -0.4854  0.0318
 6542W        W22616   5.494   5.552  10.903  0.0723  0.0098  0.1630
 6543W        W22617   0.150  13.246  10.718  0.0463  0.1533 -0.2006
 6544W        W22618   6.479  17.062   0.060 -0.1166 -0.1252 -0.0702
 6545W        W22619   5.735   2.975  13.480  0.4509  0.0831  0.1155
 6546W        W22620  19.141  11.205  14.700 -0.1678  0.3101  0.0156
 6547W        W22621  17.624   5.947  12.043  0.1487 -0.2152  0.0906
 6548W        W22622  17.419   2.201  12.921 -0.0358 -0.1447  0.1579
 6549W        W22623  10.346   8.548   2.859 -0.0033  0.1412 -0.2349
 6550W        W22624   5.253  17.664  10.578 -0.0332  0.2387 -0.0278
 6551W        W22625   6.746  16.921  13.437 -0.0292  0.0692  0.3407
 6552W        W22626   9.226   2.764   4.559 -0.0036  0.0659 -0.0337
 6553W        W22627   0.973  15.978  13.637 -0.3964 -0.2944  0.1213
 6554W        W22628   1.308   6.946  13.146 -0.0085 -0.3657  0.2456
 6555W        W22629  14.469  16.573   4.656  0.1403 -0.0879  0.0386
 6556W        W22630   9.087   9.874   3.859  0.1428 -0.3697  0.0321
 6557W        W22631   1.978  12.830  13.275  0.2519  0.0643  0.2042
 6558W        W22632   5.606   9.836   4.466  0.2123 -0.0448 -0.1491
 6559W        W22633  11.958   8.223   0.300  0.2746  0.2953  0.1458
 6560W        W22634   2.645  16.993  10.774 -0.0058 -0.0650  0.2517
 6561W        W22635  10.181  13.127   0.068 -0.0279  0.0997  0.0469
 6562W        W22636   5.333  14.334  11.127 -0.1408 -0.1454 -0.1241
 6563W        W22637   5.993   5.132   1.703 -0.0947  0.0898 -0.3464
 6564W        W22638  13.767  15.076  10.798 -0.2946 -0.0638  0.0875
 6565W        W22639   7.555   5.972   2.647  0.1294 -0.1705 -0.3025
 6566W        W22640  10.069   7.373   2.861  0.0939  0.0147  0.0067
 6567W        W22641  12.273   0.524   1.776  0.1390  0.0548 -0.0799
 6568W        W22642   8.756  10.567   1.722 -0.2533 -0.0417 -0.2759
 6569W        W22643   9.076   7.275  12.140 -0.2509  0.1888  0.0707
 6570W        W22644   2.643  16.915   4.067 -0.1029 -0.1578 -0.0795
 6571W        W22645  10.797   2.106   0.693  0.0971  0.4036  0.4131
 6572W        W22646  19.195   7.473   2.318 -0.0296  0.2490  0.2735
 6573W        W22647  15.055   9.191   2.508  0.2334  0.2258 -0.1423
 6574W        W22648   6.828   7.826   2.889  0.3003 -0.3705  0.0883
 6575W        W22649  11.902  10.044  12.698  0.0333 -0.0640 -0.0285
 6576W        W22650   9.300   7.006   9.613  0.0384  0.0978  0.1557
 6577W        W22651  10.732   3.896   4.493 -0.0107 -0.0092  0.1365
 6578W        W22652   6.790   0.132  10.993 -0.0832 -0.1060 -0.1981
 6579W        W22653   9.813   0.723   3.266 -0.3352 -0.0083  0.0390
 6580W        W22654  15.849  13.458  12.562  0.3851  0.0859 -0.0550
 6581W        W22655   7.413   2.713   1.530 -0.2582 -0.3188  0.1607
 6582W        W22656   1.654  11.304  11.437 -0.1426 -0.0891 -0.1675
 6583W        W22657   3.904  15.239  12.373  0.1086  0.1097 -0.0060
 6584W        W22658   3.401   4.882   3.688 -0.1968  0.1076  0.3527
 6585W        W22659  14.235   5.625  12.788 -0.0357  0.1871  0.2608
 6586W        W22660  12.670   9.461  13.775 -0.3254  0.0680 -0.0997
 6587W        W22661  18.318  12.072  14.697  0.0461  0.2859 -0.0296
 6588W        W22662   1.755   1.971  14.516  0.0451  0.1193  0.0271
 6589W        W22663  12.557   1.870   1.390 -0.0419  0.0112 -0.0616
 6590W        W22664  11.211  15.205  13.723 -0.3792  0.0116  0.1105
 6591W        W22665  15.722  12.656  11.183 -0.0542  0.1701 -0.2859
 6592W        W22666   5.359  12.084  12.857  0.3533 -0.3167 -0.2740
 6593W        W22667  14.334  16.864  14.953 -0.2329  0.0292  0.3035
 6594W        W22668   3.860   6.976  11.887  0.0549  0.0496  0.0293
 6595W        W22669  18.974  11.457  12.840  0.2711 -0.0774 -0.2212
 6596W        W22670  16.408  17.164  13.532  0.1643  0.0315  0.1352
 6597W        W22671   1.266  19.167   1.979  0.2522  0.1461  0.0758
 6598W        W22672   6.581   8.766   1.735 -0.3567 -0.0533  0.2464
 6599W        W22673   5.157  10.253  13.136  0.3845 -0.0636  0.2343
 6600W        W22674   1.247  12.385   0.875 -0.0083 -0.0191 -0.1005
 6601W        W22675   3.967   3.085  11.703  0.1536  0.0022 -0.4280
 6602W        W22676   0.212   9.410  11.085 -0.0994  0.1082 -0.0451
 6603W        W22677   2.980   0.804  10.905 -0.0154 -0.0863 -0.0987
 6604W        W22678   0.278   4.627  11.919 -0.1649  0.1869  0.1145
 6605W        W22679   8.963   6.085  11.976 -0.0796  0.0401  0.2006
 6606W        W22680  14.684  17.173   3.460 -0.1405  0.2326  0.2021
 6607W        W22681  17.555   3.695  14.011 -0.3560 -0.1241  0.3249
 6608W        W22682  14.322  11.983   1.520  0.0213  0.1001  0.0580
 6609W        W22683   3.908   8.991   1.608  0.1285  0.1424  0.1977
 6610W        W22684   4.612   3.432  13.339 -0.0492 -0.0069  0.1021
 6611W        W22685  12.479  18.823   2.201 -0.1014  0.1033  0.1030
 6612W        W22686   7.307   1.952   4.796 -0.1654  0.2337 -0.0963
 6613W        W22687   9.318   5.522   1.434  0.0794  0.1684  0.0047
 6614W        W22688   2.295   6.580  12.310 -0.2518 -0.2512 -0.2628
 6615W        W22689   8.696  14.249  10.219  0.0436  0.3427 -0.1650
 6616W        W22690   6.880   5.956   2.322  0.0741  0.0887  0.0808
 6617W        W22691   6.389  12.498   4.973  0.0978  0.0951  0.0518
 6618W        W22692  14.603   5.578  12.464  0.0754 -0.0153 -0.2725
 6619W        W22693   3.489  18.042  13.207 -0.3573  0.0209  0.0181
 6620W        W22694  16.078   4.129  11.975  0.0775 -0.2879  0.2006
 6621W        W22695   8.103  10.052  12.663 -0.1768  0.1533 -0.0716
 6622W        W22696   8.008   0.213   0.817  0.1802  0.0977  0.2504
 6623W        W22697  10.819  10.933  10.466 -0.0820 -0.1019  0.0225
 6624W        W22698  12.525  17.856  12.484 -0.2413 -0.1754  0.1494
 6625W        W22699   8.314  16.004  11.630  0.1322 -0.1719  0.2264
 6626W        W22700  10.207  10.631  11.172 -0.1264 -0.2482  0.1884
 6627W        W22701   7.746   9.402   4.223  0.1843 -0.0673  0.3723
 6628W        W22702  14.947   7.165  14.134 -0.0878  0.1188  0.0930
 6629W        W22703  11.564  16.976   2.806 -0.2129  0.0977  0.1074
 6630W        W22704  15.478   7.356   2.803  0.1418  0.0657  0.0196
 6631W        W22705   5.259   0.775  10.142 -0.1193 -0.2728 -0.0045
 6632W        W22706  16.828   2.996   4.540  0.1224  0.2472 -0.2072
 6633W        W22707  13.819  18.512   1.715  0.2740 -0.1448  0.0165
 6634W        W22708   7.891   2.783   3.999  0.1030 -0.0680  0.1878
 6635W        W22709  12.379   9.412   3.476 -0.1651  0.2613  0.1131
 6636W        W22710  18.237  15.533  13.593  0.2532  0.1988 -0.2948
 6637W        W22711   5.771  10.811  14.167  0.4595 -0.1396 -0.1215
 6638W        W22712  11.803  15.696   3.545 -0.0471 -0.1932 -0.0745
 6639W        W22713  13.754   3.439   2.270  0.0121  0.0119  0.1302
 6640W        W22714   7.257   2.221  11.996 -0.3869  0.1909 -0.0490
 6641W        W22715   5.712   6.741  11.602  0.2067 -0.0199  0.0930
 6642W        W22716  14.124  17.539  12.855  0.0860 -0.1362  0.0263
 6643W        W22717   9.100   8.847   4.912 -0.2788 -0.2077  0.0387
 6644W        W22718  17.273  10.225  13.677 -0.0612 -0.0336  0.3929
 6645W        W22719  11.811   4.923  12.211  0.0746 -0.1457  0.0225
 6646W        W22720  18.963   1.726   4.373 -0.0501 -0.2530 -0.0694
 6647W        W22721   8.499  10.066  12.139 -0.6418  0.1547  0.0272
 6648W        W22722  17.166   8.497   5.695  0.0185  0.1308 -0.0411
 6649W        W22723   8.939  14.678   1.264 -0.3541  0.2926  0.4477
 6650W        W22724  11.215  17.853   3.893 -0.4173  0.0577 -0.0362
 6651W        W22725  13.657   4.416   4.083  0.0705  0.4455  0.2076
 6652W        W22726  11.333   8.844  11.056 -0.0489  0.2072  0.1551
 6653W        W22727   8.906  16.421  10.804 -0.0874  0.1736 -0.0038
 6654W        W22728  12.692  11.375  13.726  0.0678 -0.0426  0.2086
 6655W        W22729  16.005  14.866  10.950  0.0132 -0.0633 -0.1830
 6656W        W22730  18.588   5.378  13.732  0.3103 -0.0918 -0.0821
 6657W        W22731   2.491  11.851   5.395 -0.0824 -0.2982  0.2439
 6658W        W22732  18.272  17.727  14.827 -0.0404  0.2473  0.0134
 6659W        W22733  18.185   4.434  11.651 -0.3986 -0.1387 -0.2355
 6660W        W22734   6.524   2.775  11.600 -0.1647  0.1048  0.2922
 6661W        W22735  13.913  16.038  10.781  0.1247  0.0896 -0.1940
 6662W        W22736  18.786  11.599  12.142 -0.0310  0.2079  0.1506
 6663W        W22737   0.026   0.144  10.918  0.3632  0.2530  0.0336
 6664W        W22738   0.084  12.878  12.934 -0.0463  0.2718  0.0130
 6665W        W22739  17.526   7.712   0.494  0.0467  0.5367  0.2263
 6666W        W22740   7.384   1.773  10.196 -0.0322 -0.2477 -0.0167
 6667W        W22741   2.443  16.013   3.100 -0.2658  0.1777  0.0819
 6668W        W22742   0.775  14.361  13.532  0.1990 -0.3829 -0.1292
 6669W        W22743  12.929  16.019   3.826  0.1307  0.0576 -0.1720
 6670W        W22744  13.323  15.390  10.845  0.0022  0.1746 -0.2210
 6671W        W22745  15.208   9.283   3.578  0.2303  0.1257 -0.0772
 6672W        W22746   3.411   4.099  13.854  0.2392 -0.0579 -0.0766
 6673W        W22747  11.180  13.160  10.666 -0.2022  0.1609  0.1236
 6674W        W22748  18.630  18.353  12.375 -0.2109  0.2357 -0.3116
 6675W        W22749  10.266  11.053   2.783  0.2058 -0.0980 -0.1324
 6676W        W22750   9.680  17.931  11.599  0.0834  0.1479  0.2143
 6677W        W22751   3.563  10.161   3.872  0.2982 -0.1010 -0.2667
 6678W        W22752  11.721  11.955   2.389  0.1200  0.0214  0.0089
 6679W        W22753   1.669  13.133  10.754  0.0705  0.2176 -0.1562
 6680W        W22754  10.504  11.262   2.300  0.0725 -0.0002 -0.2848
 6681W        W22755   5.382  13.096  12.256  0.4147  0.0960 -0.2528
 6682W        W22756  16.547   1.321   1.885 -0.4723 -0.0061  0.2037
 6683W        W22757  13.920   1.857   3.751 -0.1207 -0.1957 -0.2354
 6684W        W22758  17.733   2.788  12.310  0.3124 -0.1406 -0.0448
 6685W        W22759   4.435  12.974   0.377  0.1793 -0.0325  0.0566
 6686W        W22760   6.571  18.199   1.802 -0.3472  0.0020  0.0115
 6687W        W22761   6.158  12.885   0.377  0.3592 -0.2072  0.2467
 6688W        W22762  14.453   0.754  12.633  0.2134  0.1114  0.0099
 6689W        W22763   8.667   1.654  12.138  0.2008 -0.0144  0.2027
 6690W        W22764   1.338   5.365   2.064  0.1480 -0.4894  0.1233
 6691W        W22765  17.073  17.830   0.495  0.0450  0.2584 -0.1760
 6692W        W22766  14.445  16.424   5.420 -0.3385  0.2878  0.1544
 6693W        W22767  10.925   9.956   9.159  0.1226  0.1831 -0.0596
 6694W        W22768  18.427  17.753   0.363  0.0038  0.1641 -0.0677
 6695W        W22769  14.145   6.977   2.714  0.2998  0.2937  0.3036
 6696W        W22770  16.887   1.629  11.364  0.0027  0.2155  0.0982
 6697W        W22771  13.133  17.059   1.782  0.0268 -0.1443 -0.0970
 6698W        W22772   5.105  12.130  11.535  0.2880  0.3032  0.2435
 6699W        W22773   0.453  12.412   5.348 -0.1196  0.1776  0.4190
 6700W        W22774  17.571   1.753  12.648  0.1741  0.2716 -0.2168
 6701W        W22775   5.418  11.658   0.781  0.0842  0.0374 -0.3009
 6702W        W22776   1.166   1.662   4.135 -0.2816  0.0186  0.0651
 6703W        W22777   4.500   6.131   0.159 -0.0874 -0.3326 -0.2303
 6704W        W22778  16.690  16.904   0.514  0.2111 -0.0438 -0.4096
 6705W        W22779  19.277  15.184   3.041 -0.1120 -0.0148 -0.1256
 6706W        W22780  10.305  17.050   3.308 -0.2777  0.1550 -0.2390
 6707W        W22781  17.761   3.288  10.886  0.1128 -0.2674 -0.0132
 6708W        W22782   5.320  19.225  10.623 -0.0086  0.1804  0.2097
 6709W        W22783  14.726  16.726  14.623  0.0742 -0.1183 -0.0193
 6710W        W22784  13.281   1.971   2.094  0.0326 -0.2534  0.0855
 6711W        W22785  10.925  15.784   2.249  0.1866  0.0041 -0.1505
 6712W        W22786   8.152   4.086   4.519  0.0275  0.0821 -0.3439
 6713W        W22787  17.289  18.427   0.124  0.1420 -0.2569 -0.0852
 6714W        W22788   7.924  19.305  12.850  0.0411 -0.2317 -0.2933
 6715W        W22789   3.230  19.191   3.964 -0.1099  0.0836  0.1390
 6716W        W22790   5.083   3.321  11.303  0.0400 -0.3412  0.0949
 6717W        W22791  13.645   0.453   4.976 -0.2183  0.0589  0.2469
 6718W        W22792   5.024   0.485  14.790 -0.2091  0.2220 -0.3130
 6719W        W22793   7.109  17.975   0.828  0.2577 -0.1521  0.0849
 6720W        W22794  17.539   6.284   0.851 -0.2277 -0.1919 -0.4017
 6721W        W22795  18.083   5.920  10.553  0.1549 -0.3786  0.2138
 6722W        W22796  12.531   8.471  12.544 -0.0605 -0.6812  0.1061
 6723W        W22797  12.340   6.246  10.526 -0.1785  0.1661  0.1635
 6724W        W22798  11.757  11.531   1.207  0.1694 -0.3133 -0.2251
 6725W        W22799   3.909   4.158  10.031 -0.3246 -0.2477  0.1416
 6726W        W22800   5.226  13.665  13.488 -0.0462  0.1484 -0.1860
 6727W        W22801  13.169   4.673  14.907  0.2712 -0.2887  0.2374
 6728W        W22802  10.460  14.051  13.495  0.2853 -0.0590 -0.0569
 6729W        W22803   4.868   3.749   1.047  0.0890  0.0831 -0.0738
 6730W        W22804  17.914  18.996   0.404 -0.1087  0.1402  0.1041
 6731W        W22805   3.222  10.345  13.672  0.1276  0.3181  0.0404
 6732W        W22806   8.618  10.847  13.903  0.5734 -0.0498  0.0324
 6733W        W22807  17.547  10.760   3.809 -0.0588 -0.0960 -0.0071
 6734W        W22808  14.587  13.755  13.811  0.0240  0.3280  0.2608
 6735W        W22809   5.349  13.251   2.089 -0.0273 -0.0167 -0.0408
 6736W        W22810  19.288  11.483   4.399  0.1328 -0.1553 -0.1299
 6737W        W22811   9.119  12.841   2.831 -0.4223  0.0994 -0.0758
 6738W        W22812   6.836  18.799  14.839 -0.0664 -0.2019  0.1743
 6739W        W22813   9.273  18.636  12.762  0.4917  0.2820 -0.1910
 6740W        W22814  13.838  10.544  14.496 -0.2909  0.0132  0.0977
 6741W        W22815   8.689   2.228   2.328  0.0993 -0.1632  0.1614
 6742W        W22816   6.577   7.216  13.177 -0.3070 -0.4218  0.0633
 6743W        W22817  13.507  16.731   4.053  0.1541  0.2286 -0.0386
 6744W        W22818   8.327  10.524  11.306 -0.0684 -0.1163 -0.2253
 6745W        W22819   9.023  18.564  13.243  0.0358 -0.0412 -0.3497
 6746W        W22820  10.603  17.224  10.769 -0.0871 -0.0272 -0.2971
 6747W        W22821   6.890   6.474   4.527 -0.0230  0.3095 -0.2479
 6748W        W22822   4.221  15.762   0.251 -0.0132  0.1371 -0.1593
 6749W        W22823   6.928  13.175   4.347 -0.1971 -0.2220 -0.2660
 6750W        W22824  16.360   7.465   3.412 -0.2411 -0.0949  0.1415
 6751W        W22825  19.041   6.555   3.635 -0.1443 -0.0618 -0.1932
 6752W        W22826  16.106  12.729   5.233  0.0850 -0.0038 -0.1596
 6753W        W22827  16.406   6.842  10.859 -0.0139  0.0491  0.0615
 6754W        W22828  10.482   7.053   2.736 -0.1916 -0.0711 -0.2221
 6755W        W22829   7.748  12.194  13.840 -0.0571  0.1488  0.1716
 6756W        W22830   4.651  13.163  12.298  0.0113 -0.0535 -0.0721
 6757W        W22831  16.139   5.460   2.399  0.2728  0.1594  0.2964
 6758W        W22832  15.725  19.245  13.754 -0.2273  0.4090  0.0442
 6759W        W22833   0.015   1.625  14.304  0.0322  0.0994  0.3626
 6760W        W22834  16.190   3.192  13.356 -0.0101 -0.1729  0.0583
 6761W        W22835   3.247   5.477   4.995 -0.0606  0.3086  0.0136
 6762W        W22836   9.907   0.600  14.088  0.1071  0.0282 -0.1021
 6763W        W22837   9.322  11.826  12.285  0.0935 -0.0867  0.2362
 6764W        W22838   2.961  12.103   4.901 -0.4252 -0.3745  0.0004
 6765W        W22839   1.705   3.935  10.011  0.0945 -0.1990 -0.0169
 6766W        W22840   0.126  15.590   5.206  0.0348 -0.1160  0.1666
 6767W        W22841  18.605  18.261   5.090 -0.0947  0.1890 -0.2435
 6768W        W22842  15.795   2.958   1.711  0.1437 -0.0089 -0.0074
 6769W        W22843  13.434  17.164  10.705 -0.2306  0.0464 -0.1508
 6770W        W22844   5.350  16.905  13.416  0.3391  0.0183 -0.2805
 6771W        W22845   3.364  18.387   0.707 -0.0329 -0.1220  0.0500
 6772W        W22846   0.759   3.245   1.743  0.1005 -0.1199  0.1395
 6773W        W22847   4.231  17.817  10.544  0.2501 -0.0185  0.1718
 6774W        W22848   9.864   9.800  10.769 -0.1112 -0.0237  0.0527
 6775W        W22849   1.206  14.094   0.464  0.2563 -0.4336  0.1097
 6776W        W22850   9.063  17.905   1.532  0.1083 -0.1112  0.2065
 6777W        W22851  14.794   7.069  12.183  0.2619  0.2621  0.0463
 6778W        W22852  15.109   5.132   3.572 -0.2470 -0.1110  0.1660
 6779W        W22853   9.071  14.912  10.348 -0.1318  0.0201  0.0803
 6780W        W22854   5.973   8.459  14.531  0.0704 -0.0671 -0.1001
 6781W        W22855  16.021  10.804  14.164 -0.0064  0.1332  0.0159
 6782W        W22856  10.212   0.993  12.153  0.2798 -0.1395  0.1009
 6783W        W22857   6.837   5.340   1.719  0.0126  0.1279  0.0443
 6784W        W22858  16.354  12.811   0.033 -0.0371  0.1090 -0.1155
 6785W        W22859  16.698  11.053   0.997 -0.1201 -0.1753 -0.1783
 6786W        W22860   8.443   7.835  14.134  0.1496 -0.2219 -0.1831
 6787W        W22861   6.451  15.079  10.888  0.4595  0.1903 -0.3386
 6788W        W22862  12.419   1.167   3.613  0.1129 -0.2003 -0.3254
 6789W        W22863   7.754   5.381   0.681 -0.0910  0.2216  0.1198
 6790W        W22864  13.399   4.043   4.349 -0.1641  0.1980 -0.1475
 6791W        W22865   6.108   2.170   3.941 -0.1881  0.1622 -0.0697
 6792W        W22866   3.683  18.179  14.067 -0.2364  0.1080 -0.1572
 6793W        W22867   6.843  16.248   1.107 -0.2031  0.0194  0.0528
 6794W        W22868  12.222  10.392   3.602  0.1095 -0.3822  0.1157
 6795W        W22869   0.057   4.549   2.679  0.2655  0.1781 -0.1016
 6796W        W22870  16.508   0.438  10.775 -0.3463 -0.0130 -0.1907
 6797W        W22871  15.513  12.558  14.438 -0.0175 -0.0623 -0.3187
 6798W        W22872  11.658   1.984   2.455  0.1204 -0.0673  0.0555
 6799W        W22873   8.410   3.355  14.720  0.3793 -0.0498  0.0766
 6800W        W22874   2.804  12.935  14.388 -0.2527 -0.1054  0.1232
 6801W        W22875  13.042   1.808   1.629  0.0240  0.4082 -0.3165
 6802W        W22876   7.903   9.275   3.537  0.0391  0.4094  0.0613
 6803W        W22877  14.586  12.638  13.679 -0.0697 -0.1556  0.0280
 6804W        W22878   7.067  16.262  11.228 -0.1653 -0.2038  0.2135
 6805W        W22879  11.225   1.335   9.997  0.0055 -0.1912 -0.0299
 6806W        W22880  13.079   7.812  13.459 -0.0826  0.1166  0.1665
 6807W        W22881  14.580   8.916  11.806 -0.4444  0.2329  0.0035
 6808W        W22882  17.033   1.398  13.176  0.0775  0.1035  0.1062
 6809W        W22883   6.399  17.288  10.387  0.0119  0.0257  0.1708
 6810W        W22884  19.208  16.137   4.906  0.0761 -0.3302  0.3632
 6811W        W22885  10.662  15.578   1.817  0.2389 -0.3523 -0.3174
 6812W        W22886   3.599  10.869  10.931  0.1214  0.1052 -0.1883
 6813W        W22887   5.218   4.910  10.291  0.0193  0.0078 -0.1064
 6814W        W22888  13.619  19.161  10.065  0.0061 -0.0481 -0.0414
 6815W        W22889  10.003  10.367   3.659  0.2501  0.0619  0.0046
 6816W        W22890   8.579   7.410  13.931 -0.1469  0.0636  0.0934
 6817W        W22891   2.105  18.768  12.192  0.1031 -0.0058  0.0155
 6818W        W22892  12.206   4.358   1.415 -0.0600 -0.2319 -0.1421
 6819W        W22893   3.435   9.895  14.512  0.0993  0.1682  0.0765
 6820W        W22894  13.137  13.175   4.090 -0.2624  0.0991  0.1601
 6821W        W22895   4.728   2.510   0.351  0.0489  0.1216  0.0437
 6822W        W22896   1.657  15.260  14.741  0.3087 -0.0478 -0.0617
 6823W        W22897  12.896   6.761   3.403  0.0207 -0.0636 -0.0323
 6824W        W22898  16.963   1.093  11.652 -0.0467 -0.3344  0.2511
 6825W        W22899   2.549  18.241   9.186 -0.1946 -0.1874  0.0258
 6826W        W22900   6.637  16.154   4.273 -0.1793 -0.0169 -0.3204
 6827W        W22901  13.208   4.835  12.283 -0.2451 -0.2272 -0.1552
 6828W        W22902   1.377   5.204   2.564 -0.2013  0.1492  0.2515
 6829W        W22903  12.929   4.355  12.533  0.2546  0.3568 -0.0210
 6830W        W22904   5.298   7.837   3.655  0.5099 -0.0940  0.3294
 6831W        W22905   2.388  17.877   2.139  0.4106 -0.3689 -0.0107
 6832W        W22906  16.075   5.635  12.489 -0.3102 -0.3020  0.3250
 6833W        W22907  17.826   2.120   1.740 -0.1282 -0.1340 -0.0823
 6834W        W22908  11.986   1.740  12.688 -0.1911 -0.3193  0.0793
 6835W        W22909   5.023  17.368  10.980  0.0204 -0.1312  0.3179
 6836W        W22910   6.706  11.857  14.882 -0.1331 -0.0250 -0.0631
 6837W        W22911  16.150  14.396  13.004 -0.2549  0.0201 -0.0367
 6838W        W22912   4.962  16.587   9.746  0.0233  0.2146 -0.0251
 6839W        W22913   1.176  16.240  12.184  0.1473  0.0161 -0.2130
 6840W        W22914  17.304  12.697   4.744 -0.0236  0.0811  0.4062
 6841W        W22915   7.130  13.635   3.678 -0.0290 -0.2378  0.0813
 6842W        W22916   1.831   8.091   4.033 -0.0590 -0.3111 -0.2467
 6843W        W22917  12.412  18.823  14.475  0.1303  0.3128 -0.0182
 6844W        W22918   8.324  13.158  13.829 -0.1891 -0.1503  0.1443
 6845W        W22919   7.248  14.459   1.515  0.3031  0.1283  0.0006
 6846W        W22920   9.015   1.158   9.888  0.1391 -0.0307  0.4764
 6847W        W22921   6.664  16.796  10.288 -0.0239  0.6139 -0.1693
 6848W        W22922   2.290   7.580   1.201  0.1906 -0.3644 -0.2033
 6849W        W22923   3.576  10.740   2.810 -0.1389 -0.0070 -0.2806
 6850W        W22924  18.922   7.375   0.914  0.3365 -0.0764  0.4030
 6851W        W22925  18.620   7.983  11.978 -0.0111  0.0125  0.1543
 6852W        W22926  14.025  14.506   4.667  0.0147 -0.2033 -0.0150
 6853W        W22927  13.318  17.357  14.271  0.0426  0.1343 -0.0283
 6854W        W22928   9.136   4.876  14.808 -0.0528 -0.2939  0.2061
 6855W        W22929  15.423  16.472   5.021 -0.2843 -0.0660  0.0473
 6856W        W22930  13.070  16.901   3.065 -0.0702  0.1424 -0.1159
 6857W        W22931   2.796   3.333   2.324  0.0072  0.0612 -0.1441
 6858W        W22932   2.711   8.516  14.334 -0.2375 -0.1853 -0.1098
 6859W        W22933  18.435   0.451   1.847 -0.1638  0.2601 -0.0986
 6860W        W22934   1.126   5.269  14.102  0.1535 -0.0799  0.0829
 6861W        W22935   5.038   2.051   4.821 -0.2655  0.1151  0.2896
 6862W        W22936  10.219  17.602   1.530 -0.1366 -0.1759  0.1295
 6863W        W22937   4.113  13.932   1.082 -0.1077 -0.0254 -0.1463
 6864W        W22938  18.297  11.091   0.091  0.0904 -0.1076 -0.5829
 6865W        W22939  13.238  15.434   3.190  0.1634  0.4166  0.0573
 6866W        W22940   7.883  17.589   0.022 -0.2578  0.1911 -0.3180
 6867W        W22941  14.166  14.186   0.474  0.1316 -0.2751 -0.2804
 6868W        W22942   7.279   9.151   4.251  0.4293  0.0905 -0.1133
 6869W        W22943   8.069   1.404   8.975 -0.0548 -0.1741 -0.0418
 6870W        W22944   4.736   0.112  14.583 -0.0831 -0.0833 -0.1359
 6871W        W22945  15.613  18.705   4.727  0.0071 -0.2037 -0.1489
 6872W        W22946  11.651  10.183   0.611 -0.0334 -0.0293  0.1458
 6873W        W22947   4.521  16.076   8.931  0.2314 -0.3092  0.0401
 6874W        W22948   3.317   2.347   2.601  0.0107  0.2839 -0.0615
 6875W        W22949   9.537  13.086   2.684 -0.1959 -0.0550  0.2843
 6876W        W22950   9.363  11.253   4.978  0.0845 -0.5267 -0.0024
 6877W        W22951   9.720  14.421  10.117  0.0595  0.2112  0.1230
 6878W        W22952   1.197  16.022  13.181  0.2179  0.1288 -0.1069
 6879W        W22953  15.591  14.253  10.827  0.4124  0.1939  0.0669
 6880W        W22954   1.183   7.224   3.258 -0.0177  0.2237  0.5424
 6881W        W22955  15.984   9.276   2.953 -0.3864 -0.1105 -0.0463
 6882W        W22956  15.815   8.423   0.316  0.1497  0.2375 -0.1241
 6883W        W22957  10.730   2.977  11.835  0.2860 -0.1721  0.2060
 6884W        W22958   6.626   8.381   0.514  0.1903  0.0455 -0.0320
 6885W        W22959   9.201  10.033   0.042  0.2296 -0.1158 -0.1703
 6886W        W22960  11.260  14.607   3.910 -0.3676 -0.1204 -0.0476
 6887W        W22961   8.472   6.568  12.523 -0.1862  0.0122  0.2665
 6888W        W22962   8.940   1.001   1.051 -0.0066 -0.2034 -0.0214
 6889W        W22963  15.965  13.954   2.250  0.2225 -0.3166  0.1936
 6890W        W22964   7.042  13.038   1.345 -0.2156 -0.3588  0.1718
 6891W        W22965  18.077  18.542   2.574 -0.2260  0.3693 -0.0805
 6892W        W22966   2.619  13.657  13.821 -0.2670  0.1571 -0.2817
 6893W        W22967  11.590  17.628   0.190  0.1698 -0.2454 -0.0793
 6894W        W22968   1.257  18.537   4.829 -0.0854  0.1207 -0.0740
 6895W        W22969   0.039   4.040  10.627  0.0915 -0.0196 -0.0005
 6896W        W22970  11.059   7.712  10.974 -0.2757  0.0009 -0.1060
 6897W        W22971  14.363   6.608  10.741  0.1774 -0.1488 -0.0048
 6898W        W22972   3.821  11.240   3.893 -0.1623  0.1302 -0.3926
 6899W        W22973  13.921  18.747  13.625  0.0217  0.0444  0.2418
 6900W        W22974   0.133   2.454   3.895  0.2996  0.1210  0.0302
 6901W        W22975  14.508  14.387   1.300  0.2572  0.2675 -0.1321
 6902W        W22976   3.026   5.452   5.436 -0.2201 -0.0627  0.2584
 6903W        W22977  13.558   9.271   0.032 -0.1761  0.1239 -0.2013
 6904W        W22978   6.119  13.201   4.711  0.3166 -0.1424  0.1019
 6905W        W22979   9.721   2.168   9.445 -0.1327 -0.0193 -0.3282
 6906W        W22980   4.974  19.064  13.688  0.0938 -0.0050  0.1984
 6907W        W22981  12.966   6.123  11.154 -0.0198 -0.1615 -0.1567
 6908W        W22982  14.755   3.185   5.369 -0.2307  0.1458  0.0085
 6909W        W22983  17.766   8.428  14.972  0.1652 -0.4990 -0.0487
 6910W        W22984  14.954   6.725   4.948  0.0801  0.1889 -0.1740
 6911W        W22985  15.892  14.675   0.792 -0.2170  0.1757  0.0254
 6912W        W22986  11.044  10.321   4.867 -0.0543 -0.4666 -0.1999
 6913W        W22987  13.550   8.564   1.374 -0.0110 -0.1686  0.2220
 6914W        W22988  15.660   0.578  11.261 -0.2674 -0.1842 -0.2461
 6915W        W22989  14.699  15.058  13.995 -0.1647 -0.0217  0.2223
 6916W        W22990  18.903  18.956   0.193 -0.0720  0.0341 -0.0163
 6917W        W22991   8.598  12.160   4.458  0.0289  0.0133  0.3238
 6918W        W22992   3.466   5.208   1.252 -0.2538  0.1683 -0.0162
 6919W        W22993   2.932  10.657   4.169  0.1454  0.0372  0.0828
 6920W        W22994  19.331  14.321   3.675  0.0270  0.2297 -0.0240
 6921W        W22995   6.360   0.754  13.502 -0.1594 -0.0152 -0.2625
 6922W        W22996  15.053  18.873   4.059  0.1618  0.1643 -0.0138
 6923W        W22997  16.412  11.836   2.064 -0.1482  0.0643  0.0876
 6924W        W22998  12.177  15.897   0.830  0.0603  0.2410 -0.1259
 6925W        W22999  15.361   3.814  14.099 -0.1591 -0.1499  0.1464
 6926W        W23000   2.332  15.912   3.860 -0.3286 -0.1300 -0.0533
 6927W        W23001   3.246   7.667   2.331 -0.1776  0.1337 -0.2930
 6928W        W23002  16.326   4.146   1.970  0.1281  0.0908  0.2006
 6929W        W23003  16.754   5.167  14.787  0.1920 -0.0464  0.3202
 6930W        W23004   7.073  11.092   0.242  0.4322 -0.2083  0.2974
 6931W        W23005   8.540   0.200  12.673 -0.1195 -0.0002  0.1187
 6932W        W23006  14.961  13.894   1.225 -0.0931  0.2385 -0.0357
 6933W        W23007  17.440  10.822  11.376 -0.1363 -0.1657  0.3800
 6934W        W23008   7.919   3.268   4.305 -0.2426 -0.0162  0.0509
 6935W        W23009  17.470   1.839   4.540 -0.0558 -0.1156 -0.2062
 6936W        W23010  16.356  11.913   2.974 -0.0514  0.0189  0.0331
 6937W        W23011  14.199  14.491   1.712  0.0649 -0.0423 -0.0815
 6938W        W23012  17.897   8.601   2.354 -0.0256 -0.2500  0.0531
 6939W        W23013  11.844  18.687  13.459 -0.3902  0.0808 -0.0158
 6940W        W23014  13.676  10.786   1.586  0.0249  0.0517  0.0441
 6941W        W23015   0.282  15.254  13.596  0.0097 -0.1735  0.2669
 6942W        W23016  13.992  17.285  11.486 -0.1092 -0.2527 -0.0162
 6943W        W23017  13.368  14.978   1.578 -0.1782  0.1559  0.0808
 6944W        W23018  10.081   5.311  14.635 -0.1883  0.1919  0.1384
 6945W        W23019   9.884  14.514  11.464 -0.0281 -0.0081  0.2721
 6946W        W23020   8.334   2.589  12.625  0.0507 -0.0777  0.1122
 6947W        W23021  16.807   1.433  12.027  0.2819 -0.0587 -0.2670
 6948W        W23022   0.062   7.103   1.291 -0.0201  0.2434  0.1297
 6949W        W23023  18.033  14.854   3.719  0.1651  0.0209  0.1027
 6950W        W23024   8.718   2.142   4.013 -0.2087 -0.1845 -0.1739
 6951W        W23025  12.724  16.487   0.764 -0.3317 -0.1400  0.1451
 6952W        W23026  16.062   1.408  11.144  0.0331 -0.1819  0.2834
 6953W        W23027   9.556   5.438  12.577 -0.1776 -0.0386 -0.0621
 6954W        W23028  12.134   4.345   0.944 -0.4596  0.0271  0.3340
 6955W        W23029  13.532   3.410   3.846  0.2486  0.0778 -0.4779
 6956W        W23030  11.910  17.076  10.362 -0.0148 -0.1780 -0.2368
 6957W        W23031  14.608  16.139  12.954  0.0454 -0.1941 -0.0263
 6958W        W23032  10.295   9.480  11.603  0.0682 -0.1079  0.3121
 6959W        W23033  13.231  14.327  12.831  0.0251 -0.0075  0.0167
 6960W        W23034   7.015  16.368  13.367 -0.0133 -0.1658  0.3964
 6961W        W23035   3.824   9.363  11.560  0.2331 -0.1388  0.0452
 6962W        W23036  13.004   4.095  13.958  0.4501 -0.1961  0.0138
 6963W        W23037  10.106  15.140  13.295  0.0517 -0.1369 -0.1976
 6964W        W23038   1.284  13.740  14.085 -0.4372 -0.2545  0.4029
 6965W        W23039   0.459   4.876   4.618 -0.0092  0.0431  0.2830
 6966W        W23040  11.046   3.862  14.034 -0.1549  0.0063  0.0712
 6967W        W23041   8.399  17.183  13.752  0.0890 -0.0757 -0.1030
 6968W        W23042   2.313  17.618  13.106 -0.0814 -0.0870 -0.0844
 6969W        W23043  16.475   6.712   5.309  0.2875 -0.1725  0.2034
 6970W        W23044  14.871  12.982  14.147  0.1074  0.0753  0.0091
 6971W        W23045   1.529   5.093  12.644  0.1194 -0.0227  0.1532
 6972W        W23046  10.023  12.946  14.047 -0.0313  0.0225  0.1534
 6973W        W23047  17.734   6.525   5.040 -0.0132  0.0006  0.0327
 6974W        W23048  15.214   0.603  11.501 -0.0255 -0.0114 -0.2431
 6975W        W23049   1.704   9.933  14.882  0.1913 -0.0929  0.0658
 6976W        W23050   5.266  18.451  12.776 -0.0557  0.0197 -0.0635
 6977W        W23051  12.601  10.603  10.514 -0.1784  0.2001  0.2147
 6978W        W23052   1.812  14.084   0.888 -0.1803 -0.1775 -0.1748
 6979W        W23053   5.973   7.377   5.326 -0.0052  0.1072 -0.1574
 6980W        W23054   7.539   4.890  13.109 -0.1639 -0.0700 -0.0244
 6981W        W23055  12.745  17.868  12.018  0.0206  0.1926  0.0596
 6982W        W23056   1.253  15.600  12.431 -0.0910  0.5220  0.1040
 6983W        W23057  15.174   4.349  10.898  0.0114  0.0453 -0.1044
 6984W        W23058   9.623  14.694  14.825  0.0408 -0.5809 -0.0309
 6985W        W23059  18.482   4.205   1.531 -0.3316 -0.1150 -0.2628
 6986W        W23060  13.161   2.875  10.632 -0.0745 -0.0405 -0.2261
 6987W        W23061   1.647  16.205   5.092 -0.0076  0.0792 -0.4256
 6988W        W23062  17.786   6.893  13.747  0.2520  0.1570 -0.2387
 6989W        W23063   3.050  15.940  12.461  0.0658 -0.0850  0.1974
 6990W        W23064  14.694   5.326   5.833  0.0070  0.4162 -0.2988
 6991W        W23065   7.149  15.196   3.237  0.3187  0.0649 -0.2206
 6992W        W23066  16.591   1.125   0.702  0.0721  0.0727  0.0545
 6993W        W23067   5.586   2.636  13.904  0.4373 -0.2139  0.3947
 6994W        W23068  17.333  12.105   4.468  0.2764  0.0471  0.1848
 6995W        W23069  15.515   3.936   1.761  0.2678  0.0687  0.1458
 6996W        W23070  15.053   7.506   4.808  0.1469 -0.1571  0.0707
 6997W        W23071   2.481   0.332  12.416  0.3225  0.5675  0.2593
 6998W        W23072  14.075  13.073   3.060 -0.0729  0.4137  0.0152
 6999W        W23073   1.968   2.121  10.536  0.2077  0.0939  0.3816
 7000W        W23074  16.885  11.765  12.557 -0.0440 -0.1587 -0.0795
 7001W        W23075   8.032   6.089   4.627 -0.1163 -0.1982 -0.0296
 7002W        W23076   9.012  12.799   0.196 -0.0254 -0.2254  0.0560
 7003W        W23077   1.620  14.681   2.108  0.0447 -0.1126 -0.2140
 7004W        W23078   1.198  19.247  13.730 -0.0102 -0.1111 -0.0292
 7005W        W23079   7.937   4.468  12.582  0.2140  0.1992 -0.2754
 7006W        W23080   9.809  18.646  13.084 -0.0672 -0.0129  0.2877
 7007W        W23081   3.530  12.050   1.226 -0.0395  0.1787  0.1371
 7008W        W23082   1.463   8.517   1.338  0.1803  0.1763  0.2271
 7009W        W23083  12.927   7.428   3.198  0.3005  0.1264 -0.1436
 7010W        W23084   2.607   8.229   1.786 -0.3719 -0.0646 -0.0804
 7011W        W23085  16.131  18.102   0.861 -0.2893 -0.2198 -0.1837
 7012W        W23086   0.149  14.207  12.985 -0.0228  0.1071 -0.1897
 7013W        W23087   4.753  15.565   1.153 -0.0543  0.1400 -0.1802
 7014W        W23088   9.814  13.871   1.214  0.4512  0.0420  0.0896
 7015W        W23089   1.763   2.382   0.710 -0.1188  0.0013  0.3550
 7016W        W23090   1.379  16.705   4.252 -0.2179 -0.1169 -0.0802
 7017W        W23091   3.065  16.128  11.954 -0.0526  0.1289 -0.0863
 7018W        W23092  12.593  13.517  14.031  0.2246  0.1986  0.0504
 7019W        W23093  10.208  14.144   9.083  0.0333  0.2444 -0.0281
 7020W        W23094   1.664  13.793  15.001  0.2322  0.1388 -0.0197
 7021W        W23095  19.258   5.341  13.045  0.2605  0.0527 -0.1923
 7022W        W23096  11.289   7.877   1.843  0.0729 -0.0682  0.2950
 7023W        W23097  15.175  10.692   1.538 -0.0869 -0.1521  0.0603
 7024W        W23098  16.755   8.507   3.647 -0.3034  0.1830  0.1339
 7025W        W23099  16.745   6.630   3.343 -0.0960 -0.3077  0.0991
 7026W        W23100  16.125  11.552  14.052 -0.0646 -0.0388  0.0562
 7027W        W23101   2.401  10.737   3.871 -0.1595 -0.1234  0.0482
 7028W        W23102  16.500  12.118   4.780  0.1937  0.0108 -0.4498
 7029W        W23103  17.790  13.688  12.784 -0.3574  0.0370  0.1779
 7030W        W23104   0.583  18.289   3.680 -0.2634  0.0393 -0.1221
 7031W        W23105  16.137   9.549   1.025 -0.1008 -0.0586  0.0770
 7032W        W23106   0.906  10.341  14.718  0.1530  0.2525 -0.4539
 7033W        W23107   8.523   3.829   3.782 -0.0807 -0.0108 -0.1259
 7034W        W23108   0.938  13.154  11.509 -0.0709  0.1637 -0.3391
 7035W        W23109   7.435   7.405   4.317 -0.0918 -0.1461  0.1281
 7036W        W23110   4.545  11.647  12.879 -0.3234 -0.0286  0.1788
 7037W        W23111   0.864   3.879   0.459  0.0241  0.1757  0.1300
 7038W        W23112   7.505   7.976  12.630  0.0192 -0.1091  0.0347
 7039W        W23113   1.127   7.504  11.453  0.3767  0.2197 -0.1791
 7040W        W23114  16.173   0.553  13.333  0.2509 -0.1422  0.2488
 7041W        W23115   7.102   9.485   1.801  0.2478 -0.3297 -0.0452
 7042W        W23116  10.019   6.001   2.449  0.3778  0.0627  0.1003
 7043W        W23117  15.873   0.249   3.906  0.4780 -0.3614 -0.1007
 7044W        W23118  12.387   4.510  13.188  0.1016  0.0631 -0.1504
 7045W        W23119   8.665  12.842  12.796  0.1091 -0.0635  0.2872
 7046W        W23120   2.700   3.391   0.305 -0.1001 -0.1615  0.3512
 7047W        W23121   1.128   6.704   3.266  0.0157 -0.1848  0.0485
 7048W        W23122  13.503  15.404   1.830  0.0306 -0.4737  0.2582
 7049W        W23123   4.237  16.347   4.741 -0.2374  0.5451 -0.0738
 7050W        W23124  10.256   8.792   4.292  0.1963 -0.1420  0.0985
 7051W        W23125  11.942  15.986  10.085 -0.2216 -0.2935 -0.1975
 7052W        W23126   7.993   2.529  13.330  0.2475 -0.2659 -0.1862
 7053W        W23127  13.687  17.176  13.157  0.2871  0.0262 -0.0666
 7054W        W23128   6.071  16.637   3.544  0.1621 -0.0112 -0.2660
 7055W        W23129  16.226   4.433   4.340 -0.1215  0.0365 -0.0759
 7056W        W23130   5.173  11.154   1.797  0.0522  0.1800 -0.0745
 7057W        W23131   4.313  17.998   0.277  0.1442  0.2650  0.4175
 7058W        W23132  15.502  16.309   1.002  0.1940 -0.2802 -0.2767
 7059W        W23133   1.739   0.184   1.193  0.0101 -0.1577  0.3746
 7060W        W23134   9.594   6.386  12.522 -0.3341 -0.1016 -0.2994
 7061W        W23135   9.435   1.601   1.690 -0.2502  0.0554 -0.0676
 7062W        W23136   7.010  12.281  12.821  0.0347 -0.1383 -0.0146
 7063W        W23137  16.963   2.511  11.216 -0.0011 -0.4181 -0.1706
 7064W        W23138   8.233  15.900  10.993 -0.0591  0.2797 -0.1633
 7065W        W23139  16.290  14.074  11.272  0.1996 -0.2564 -0.0705
 7066W        W23140  17.548  12.080  10.939  0.0699 -0.4576  0.2837
 7067W        W23141  15.790  10.005   0.386 -0.1046  0.3838 -0.1860
 7068W        W23142  16.717   4.942   4.460  0.1204 -0.2773  0.0771
 7069W        W23143   3.871   3.984  13.724 -0.2501 -0.0868  0.4301
 7070W        W23144  16.999   2.511  11.801  0.2253  0.0093 -0.0291
 7071W        W23145  15.971   6.156  11.251 -0.1434 -0.1518  0.0739
 7072W        W23146   9.145   1.466   2.452 -0.4531 -0.4360  0.1385
 7073W        W23147   2.825  18.639   3.237  0.0606  0.1124  0.2133
 7074W        W23148   4.141   1.751  10.307  0.1073 -0.0240  0.2547
 7075W        W23149   5.819  12.535  10.718  0.1504 -0.1071  0.4602
 7076W        W23150   6.708   8.564  11.908 -0.1568 -0.1560 -0.0364
 7077W        W23151   6.014  12.961  12.769  0.3845  0.1811 -0.0591
 7078W        W23152  16.684  11.028  13.741  0.2272  0.1392  0.0569
 7079W        W23153   8.101  14.273   3.588  0.0744  0.0367  0.2349
 7080W        W23154   6.395   0.088   4.355  0.0858  0.1713  0.0078
 7081W        W23155   1.083   5.914   2.004 -0.2373  0.0047  0.0138
 7082W        W23156   5.411   4.985   4.175 -0.0400  0.0386  0.4147
 7083W        W23157  15.274   9.497   0.912 -0.3776 -0.2907  0.0967
 7084W        W23158  12.271   6.421  14.026  0.1515  0.3372  0.0247
 7085W        W23159  18.044  10.092  11.946  0.4742 -0.0475  0.0501
 7086W        W23160   3.034   9.726   2.307  0.0409  0.2939  0.1245
 7087W        W23161  15.008  19.289   4.983 -0.0374  0.0476 -0.1182
 7088W        W23162   6.794   1.049  13.747  0.0109 -0.2789 -0.1431
 7089W        W23163  12.583   5.723  14.287  0.3159  0.3636  0.2575
 7090W        W23164   7.338  13.283  14.445 -0.1032 -0.1017  0.0703
 7091W        W23165   1.932  12.448   4.040 -0.0444 -0.1038  0.0301
 7092W        W23166   2.120   3.030  13.624  0.0107 -0.1183 -0.1676
 7093W        W23167  17.672  17.722   5.446 -0.1047  0.1444  0.0320
 7094W        W23168  18.747  12.156   1.741 -0.0652  0.2027 -0.1648
 7095W        W23169   5.477   6.114   4.579  0.3899 -0.2316 -0.1939
 7096W        W23170  18.325  14.612   4.626  0.0397  0.0442 -0.1388
 7097W        W23171   0.974  17.437   0.668  0.2948  0.0861  0.2612
 7098W        W23172  17.602  11.202   4.754  0.2208 -0.1113  0.1704
 7099W        W23173   4.802   7.199   4.847 -0.1809  0.0706 -0.1892
 7100W        W23174   1.153   8.433   3.164 -0.3194 -0.1177  0.1050
 7101W        W23175   4.840   8.152   3.468  0.2626 -0.1716 -0.0132
 7102W        W23176  13.814  13.221   1.051 -0.0077  0.4739 -0.1558
 7103W        W23177  14.359  19.234   4.369 -0.2557  0.0827  0.0838
 7104W        W23178  13.271   9.521   2.976 -0.0958 -0.0995  0.2186
 7105W        W23179  11.187   8.907   0.948 -0.0513  0.4669  0.0701
 7106W        W23180   2.186  19.313   2.535  0.1912  0.1579  0.2105
 7107W        W23181  14.423  14.911  13.173  0.4689  0.1422 -0.0492
 7108W        W23182   6.068  12.043   1.594 -0.4068  0.0104  0.1749
 7109W        W23183   1.605   7.453   5.086 -0.0045 -0.0477  0.0086
 7110W        W23184  18.377  18.155   2.492  0.1102 -0.1638  0.0038
 7111W        W23185   7.384   7.139  12.872 -0.0929 -0.0143 -0.1829
 7112W        W23186  16.189   6.751   4.011  0.1014 -0.0703  0.1306
 7113W        W23187   0.903   5.738  10.551  0.0469 -0.1625  0.0412
 7114W        W23188   6.522  10.570   1.158  0.1201 -0.0039  0.1905
 7115W        W23189   4.807  13.514   4.610  0.4580 -0.1250  0.0644
 7116W        W23190  17.309  11.571  14.352  0.1699  0.1683  0.2977
 7117W        W23191   9.344  10.313   4.519  0.3256 -0.0233 -0.4276
 7118W        W23192   1.517   5.202   5.129  0.0909 -0.2623 -0.0281
 7119W        W23193   3.954  14.095   2.704  0.0062  0.0962  0.1116
 7120W        W23194   1.561  14.119   1.349  0.0465  0.1412  0.1032
 7121W        W23195   9.398   4.156   4.944  0.1904 -0.1666  0.0907
 7122W        W23196   6.645  19.174  11.888  0.1612  0.0680  0.0022
 7123W        W23197  10.119   5.391   1.756 -0.1108 -0.1370  0.2159
 7124W        W23198   9.652   4.942   1.985 -0.1259 -0.1489 -0.0409
 7125W        W23199   1.418   6.347  12.684  0.3480 -0.1280 -0.0735
 7126W        W23200   8.244   5.280  12.064 -0.0572 -0.2431  0.0032
 7127W        W23201  16.565  12.312   2.062  0.1888 -0.1952 -0.1319
 7128W        W23202  16.832  11.523   0.946  0.0658 -0.0230  0.1656
 7129W        W23203  14.370  16.367  10.533  0.1442  0.1143  0.1808
 7130W        W23204   6.626   4.611  13.380  0.3398  0.0893 -0.0133
 7131W        W23205  15.751   7.177   4.533  0.0766 -0.1600  0.0608
 7132W        W23206   6.591   5.161  14.030 -0.0368  0.1919 -0.1842
 7133W        W23207  15.217   0.917  11.885  0.1433  0.1488 -0.0104
 7134W        W23208  13.978   2.891   9.510 -0.1333 -0.1490 -0.2646
 7135W        W23209   8.618  14.643   3.050 -0.1245 -0.1195 -0.2690
 7136W        W23210   6.430   6.658   9.810  0.1943  0.0582  0.2344
 7137W        W23211  14.101  17.562  12.357 -0.4880  0.1568 -0.0495
 7138W        W23212  15.904   1.110  12.430 -0.3059 -0.1628 -0.1310
 7139W        W23213   2.878   4.286  10.780 -0.0160 -0.2977 -0.2500
 7140W        W23214  18.955   9.740  14.210 -0.0498  0.2416 -0.3200
 7141W        W23215  14.889   5.253  11.006  0.1880  0.3282 -0.3583
 7142W        W23216   9.777  15.232  14.855 -0.2134  0.2514  0.0664
 7143W        W23217   1.664   1.580  11.326 -0.1494 -0.1070  0.0338
 7144W        W23218   1.572  18.947  14.719  0.0629  0.2110  0.3568
 7145W        W23219  13.572   0.131   0.274  0.1981  0.2201 -0.0332
 7146W        W23220   0.636   3.336  13.668  0.1622  0.1201 -0.0091
 7147W        W23221  14.383  18.558   1.677 -0.0323  0.0252 -0.0254
 7148W        W23222  17.115   3.772   0.280  0.0548  0.0095  0.1328
 7149W        W23223   1.678   6.016   5.615 -0.0907 -0.0171 -0.1468
 7150W        W23224  16.213  12.374   0.835 -0.1552  0.2280 -0.0628
 7151W        W23225   2.776  11.664   2.683  0.2047 -0.3065 -0.1433
 7152W        W23226  12.955   0.589   0.679  0.2069  0.2602  0.0461
 7153W        W23227  18.328  12.324   2.512 -0.1758  0.1463  0.0074
 7154W        W23228  17.050  17.566  13.879  0.1314 -0.2132 -0.4517
 7155W        W23229   3.773  13.398  10.839 -0.0336 -0.1290 -0.1136
 7156W        W23230  14.599   1.644  11.562  0.0080  0.1224 -0.3185
 7157W        W23231   6.404   2.686  14.416 -0.1042  0.1245 -0.1333
 7158W        W23232   3.689  12.950  13.572  0.0305  0.2177 -0.0190
 7159W        W23233  13.315   5.746   3.599  0.0324  0.3128 -0.0477
 7160W        W23234   3.276   1.462   2.475 -0.2415  0.0623  0.0368
 7161W        W23235   3.999  14.620  13.273  0.0105 -0.1112 -0.1550
 7162W        W23236  11.816  18.189   4.703  0.1237  0.0482  0.3000
 7163W        W23237  14.754  12.178   1.336  0.2010  0.0129 -0.4828
 7164W        W23238  12.141  10.364  13.189  0.0728  0.2315  0.1544
 7165W        W23239   2.048  18.815   1.724 -0.1309  0.1370  0.1183
 7166W        W23240   5.611  19.115   0.357 -0.0820 -0.3782  0.0411
 7167W        W23241   0.419   0.260   4.135 -0.1345 -0.0700 -0.1191
 7168W        W23242   4.782  18.314   4.184  0.3304  0.4067 -0.3708
 7169W        W23243   2.636  11.813  13.220 -0.3199 -0.1712 -0.0479
 7170W        W23244  15.715  18.390  12.669  0.0513  0.0788 -0.0152
 7171W        W23245  17.631   9.820  14.845  0.1369 -0.3263  0.0035
 7172W        W23246  12.342  14.110   0.963  0.0717 -0.0940  0.0643
 7173W        W23247  18.867  14.350  13.596  0.2466  0.3534  0.2443
 7174W        W23248  14.802   6.117   0.749  0.2107  0.0388 -0.2056
 7175W        W23249  10.075  11.791   4.724  0.0716 -0.2933  0.3066
 7176W        W23250  19.055  17.860  14.182 -0.4767  0.3682  0.0793
 7177W        W23251  14.829   6.219   2.653 -0.1098 -0.0727  0.2187
 7178W        W23252   3.321   9.667   0.317  0.0801 -0.3230 -0.0226
 7179W        W23253   4.761   1.607   0.226 -0.1610  0.0352  0.2872
 7180W        W23254   1.440  11.316   5.283 -0.4559 -0.1451 -0.2084
 7181W        W23255   8.289  11.915  10.220 -0.2381 -0.2887 -0.2119
 7182W        W23256  10.444   9.258  14.456 -0.2358  0.0890 -0.1825
 7183W        W23257  12.584   9.653  13.335  0.1327  0.0128 -0.1025
 7184W        W23258  10.372   5.740   3.778  0.2204  0.0019 -0.1927
 7185W        W23259   8.684  17.908   1.163  0.3125  0.1212 -0.0832
 7186W        W23260   9.102   4.776   2.185  0.0351  0.2671  0.3952
 7187W        W23261  15.601   5.215   0.972  0.0843  0.4280  0.3499
 7188W        W23262  18.019   9.368  13.970 -0.1011 -0.0877  0.1722
 7189W        W23263  12.824  16.068  14.638  0.2645  0.1818 -0.3604
 7190W        W23264   8.078  17.391   9.193  0.0890 -0.0202  0.3685
 7191W        W23265  17.004  14.757  13.849 -0.1990  0.1663 -0.2438
 7192W        W23266   8.798   6.039   2.133 -0.3551  0.1802 -0.0909
 7193W        W23267   8.517  14.551  14.562 -0.2396  0.2553 -0.0469
 7194W        W23268   9.896  12.724   4.461  0.0878 -0.0487  0.0805
 7195W        W23269   9.608   4.283   2.671  0.0256  0.3030  0.0050
 7196W        W23270  15.348  12.669  13.118  0.1822 -0.4156  0.0401
 7197W        W23271   9.244  16.022   0.165  0.3015 -0.1194  0.0838
 7198W        W23272  16.513   0.828  14.495 -0.0146  0.3207  0.0257
 7199W        W23273   6.395  14.874  12.788 -0.0268 -0.2784 -0.2505
 7200W        W23274   6.160  19.220  14.507 -0.1123 -0.3651  0.0923
 7201W        W23275  15.676   7.957  12.100 -0.0569  0.1149 -0.1037
 7202W        W23276   8.956  19.210  14.993  0.3882  0.2092  0.1534
 7203W        W23277   3.603  11.723  12.653  0.4048 -0.3685 -0.1119
 7204W        W23278   3.846   6.346  13.380 -0.1033  0.0436  0.3619
 7205W        W23279   8.987   9.415  13.974  0.1000  0.0729  0.0805
 7206W        W23280  12.399   0.994  11.550 -0.1407 -0.0721 -0.2154
 7207W        W23281   6.638  13.038  11.867 -0.4835 -0.3709  0.3236
 7208W        W23282   2.501  11.224   5.314  0.0025 -0.4030  0.0501
 7209W        W23283   2.531   4.784  12.457 -0.1571 -0.2730  0.4693
 7210W        W23284  11.380   0.208   1.508 -0.1075 -0.2072 -0.1111
 7211W        W23285  10.930   1.318  14.729 -0.0941  0.1244  0.1233
 7212W        W23286  15.452   2.553  11.089  0.1623 -0.1204  0.1148
 7213W        W23287   8.519  14.477   5.182 -0.0016  0.1968  0.1049
 7214W        W23288  16.006   9.984   1.223 -0.1026  0.1422  0.1787
 7215W        W23289   8.372   9.899   2.853  0.0778  0.0556  0.2022
 7216W        W23290   8.603  10.584  12.104 -0.2933  0.0702  0.3058
 7217W        W23291   7.534  10.445   3.955 -0.0319 -0.1029  0.2043
 7218W        W23292   1.391  10.927  11.682  0.3981 -0.0513  0.1833
 7219W        W23293  19.201   2.852   4.103 -0.1187 -0.2128 -0.4240
 7220W        W23294  15.244  13.530   2.067 -0.0883 -0.2382  0.2767
 7221W        W23295  14.419   8.779   5.002  0.3062  0.0242  0.2148
 7222W        W23296   7.710   2.389   3.154 -0.1724 -0.2412 -0.1268
 7223W        W23297  12.169   9.948  10.454 -0.0408  0.1264 -0.1327
 7224W        W23298  18.115  13.254   2.384  0.1464 -0.1547 -0.2797
 7225W        W23299   6.204   1.996   1.439 -0.0564 -0.0669  0.2496
 7226W        W23300  19.171   4.835  11.189  0.0817 -0.3216  0.0094
 7227W        W23301   8.980   1.275  12.950  0.6975 -0.2195  0.1176
 7228W        W23302   5.977   8.036   2.474 -0.0409  0.1140 -0.0618
 7229W        W23303   3.553  19.015  14.856  0.4274  0.3672 -0.0473
 7230W        W23304  19.127   5.892  12.493 -0.1274 -0.1554 -0.1452
 7231W        W23305   2.137  14.639   2.180 -0.0648 -0.1075  0.0992
 7232W        W23306   1.603  12.359   3.115  0.4172 -0.2187  0.0238
 7233W        W23307   4.126  15.603  14.760 -0.1121  0.1365  0.2007
 7234W        W23308   5.520  10.944  11.300  0.1495  0.0378 -0.0451
 7235W        W23309  16.078  12.152   1.249  0.0737  0.0971 -0.2883
 7236W        W23310   4.870  11.958   2.394 -0.1765 -0.0823  0.1578
 7237W        W23311  12.030   6.770   0.011 -0.0932  0.0346  0.0646
 7238W        W23312   3.880   8.552   5.375 -0.2998  0.2761  0.2971
 7239W        W23313   7.761  19.083  14.635  0.1429  0.2982  0.1985
 7240W        W23314   7.147   6.158   0.631 -0.0347  0.2509  0.0983
 7241W        W23315   1.838  10.362  13.320  0.1516  0.4337  0.2542
 7242W        W23316  11.539   3.485  11.043 -0.0159 -0.1933  0.2295
 7243W        W23317   9.305   9.186  14.562  0.0659  0.1258 -0.2473
 7244W        W23318  13.899  13.204   4.611 -0.0822 -0.0118 -0.1424
 7245W        W23319  10.079  15.383   3.574  0.1970  0.0431 -0.2713
 7246W        W23320   2.815   3.170   2.917 -0.0242 -0.1795  0.1730
 7247W        W23321   1.637   6.772   3.399  0.0419 -0.2404  0.1546
 7248W        W23322  12.158   5.545  11.644 -0.2498 -0.4829  0.4338
 7249W        W23323   0.942  15.396   3.045  0.1634 -0.0047  0.2139
 7250W        W23324  17.074   2.512   3.674  0.0703 -0.2573  0.1275
 7251W        W23325   7.981  15.394   1.928  0.1057  0.0237 -0.0483
 7252W        W23326   8.733  12.517  10.148 -0.2217 -0.2672  0.0922
 7253W        W23327   2.619  16.171  12.233  0.2430  0.0257  0.2683
 7254W        W23328   9.222  18.823  10.715 -0.0669  0.0730 -0.1697
 7255W        W23329   9.727   5.876  14.294  0.0118 -0.1711  0.0632
 7256W        W23330  14.291  15.526  14.725 -0.2741  0.0509  0.2000
 7257W        W23331   1.217   2.167   1.261  0.2656  0.3066  0.1535
 7258W        W23332  11.957   3.764  11.968  0.2792  0.3943 -0.0488
 7259W        W23333   3.247   2.235  14.692 -0.0453 -0.0625 -0.0464
 7260W        W23334  17.192  14.537   1.216  0.1407  0.1789  0.1868
 7261W        W23335  14.381  10.770  14.678  0.2280 -0.1252 -0.1314
 7262W        W23336   2.141   1.161   4.611 -0.1538  0.0442 -0.1602
 7263W        W23337  16.553   8.361   5.226 -0.0579 -0.0272 -0.1477
 7264W        W23338  16.415  12.270   1.569 -0.2725 -0.0317  0.0853
 7265W        W23339  18.163  17.055  12.405 -0.4110 -0.2643 -0.0109
 7266W        W23340  17.617  17.224  12.438 -0.1222 -0.1198 -0.1862
 7267W        W23341   6.165  13.918  11.001 -0.2469 -0.1284 -0.5264
 7268W        W23342  16.366  15.606  12.121 -0.0905  0.4157  0.0389
 7269W        W23343  15.249   4.124   4.948  0.0563 -0.1386 -0.0459
 7270W        W23344  15.841  12.313  13.211  0.1535 -0.1684  0.2396
 7271W        W23345   7.892   8.716  10.837 -0.1435  0.1481 -0.0330
 7272W        W23346   8.660   5.319  12.351 -0.0803 -0.1841  0.0196
 7273W        W23347   2.045  11.095   4.226  0.0569  0.0685  0.0674
 7274W        W23348  17.329  18.221  14.303  0.2138  0.2434  0.1337
 7275W        W23349  13.770   8.829   1.736 -0.0830 -0.0594  0.1983
 7276W        W23350  16.717   2.581   1.238 -0.2331 -0.2316 -0.1455
 7277W        W23351   1.973  14.487   1.624  0.1001 -0.2333 -0.1372
 7278W        W23352   7.328   3.605   1.748 -0.2811  0.1108  0.1868
 7279W        W23353  16.796  15.984  14.182 -0.1762  0.3777  0.4503
 7280W        W23354  17.705   4.075  13.122 -0.0443 -0.1082 -0.3710
 7281W        W23355   6.660  11.914  11.416  0.4455  0.1671  0.0321
 7282W        W23356  17.949   5.027  12.439  0.1757 -0.0273  0.0436
 7283W        W23357   1.510   3.407   4.948 -0.2196 -0.0056 -0.2724
 7284W        W23358  14.972   0.629  10.426  0.3909  0.1177 -0.2893
 7285W        W23359  14.517  13.065  12.292  0.0130  0.2057  0.1142
 7286W        W23360   1.409  12.742  13.865  0.3539 -0.0650  0.1165
 7287W        W23361  12.055  16.379  13.347 -0.4600 -0.2459  0.1576
 7288W        W23362  13.188   6.569  11.515  0.2859 -0.1881 -0.0669
 7289W        W23363  15.975  14.248   2.705  0.2799 -0.2143 -0.5146
 7290W        W23364  12.888  11.787   4.726  0.3041 -0.3122  0.0256
 7291W        W23365   5.919  16.954  14.190  0.1114  0.0807 -0.2092
 7292W        W23366  10.948   3.422   0.736  0.1056 -0.0764  0.2611
 7293W        W23367   7.332   2.123  12.950  0.2275  0.1380 -0.1323
 7294W        W23368   4.277  17.983  14.777 -0.2881  0.0161  0.1142
 7295W        W23369  15.567  17.705   2.810  0.1050 -0.2692  0.1852
 7296W        W23370   9.856  18.348   1.389  0.0367 -0.1363 -0.1125
 7297W        W23371   0.339  15.065  11.505  0.2382  0.1079  0.0703
 7298W        W23372  14.455   0.876  11.319  0.1025 -0.3266  0.1692
 7299W        W23373   9.098   3.963   0.333 -0.0292  0.0492  0.3146
 7300W        W23374   0.215   4.927   5.115  0.0682 -0.4697  0.0966
 7301W        W23375   4.355  11.688  14.842  0.0480 -0.0098 -0.0734
 7302W        W23376   7.942   9.013   3.973  0.0594  0.1354 -0.4266
 7303W        W23377   6.164   3.965   0.264  0.0825 -0.1868 -0.0364
 7304W        W23378  10.198  14.764  13.649  0.0032  0.1393  0.3812
 7305W        W23379   9.904   0.232   5.691  0.4365 -0.0423  0.1175
 7306W        W23380   9.790  15.996   2.480 -0.1759  0.0843 -0.0035
 7307W        W23381  17.765   3.366  14.307  0.0621 -0.3944 -0.3719
 7308W        W23382  11.227   8.258  11.146 -0.0730 -0.1747 -0.0377
 7309W        W23383   1.286  18.337  11.979 -0.1138  0.1169  0.1306
 7310W        W23384   4.500   1.605  12.272  0.0736  0.2589 -0.0024
 7311W        W23385   8.887   6.345  11.008 -0.1925 -0.1862 -0.0709
 7312W        W23386  16.917  10.818  14.821  0.1727  0.0184 -0.2242
 7313W        W23387   7.350  18.137  12.977  0.2175 -0.0963 -0.0968
 7314W        W23388   1.560  14.975   1.124 -0.3384 -0.1107 -0.0377
 7315W        W23389  17.211   6.467   1.161  0.1686  0.1827 -0.0396
 7316W        W23390   3.883  16.564   2.002 -0.2643  0.0934 -0.4293
 7317W        W23391   5.918  13.826   3.935 -0.1421 -0.0213 -0.1478
 7318W        W23392   7.474   8.354   2.652 -0.2388  0.0996 -0.0212
 7319W        W23393  13.404  16.604  11.364 -0.1819 -0.2006 -0.0792
 7320W        W23394   7.577   6.640  11.376 -0.0580  0.0925  0.3836
 7321W        W23395  13.554   2.328   3.581  0.1690  0.1269 -0.1482
 7322W        W23396  18.413  18.095  11.447 -0.0708  0.1851  0.0565
 7323W        W23397  17.728  12.300  12.567 -0.3635 -0.0679 -0.0494
 7324W        W23398  11.609  10.363  14.286  0.0690 -0.1382  0.0987
 7325W        W23399   9.112   7.689   2.175  0.2230  0.1471 -0.0482
 7326W        W23400  12.160   0.924   1.520 -0.0959 -0.1017 -0.1351
 7327W        W23401  17.130  11.967   0.826  0.0132 -0.1701  0.4816
 7328W        W23402   9.358   6.926  13.397  0.0277  0.2241 -0.0755
 7329W        W23403   0.379   0.091  13.453  0.1105  0.1486 -0.2696
 7330W        W23404  10.299   2.649   1.492  0.0858  0.1800 -0.5093
 7331W        W23405  13.627   9.022  11.160  0.2107  0.2264 -0.1488
 7332W        W23406   1.672   3.262  13.692 -0.0603 -0.0328 -0.4545
 7333W        W23407   2.868   4.718  11.156  0.0022 -0.0954 -0.1436
 7334W        W23408  13.033  14.516  10.337 -0.0387  0.1871 -0.0957
 7335W        W23409  13.830  14.813  14.503 -0.0868  0.2094 -0.0231
 7336W        W23410   2.367  11.354   2.263  0.2041  0.2961  0.0102
 7337W        W23411   5.154   7.748   2.393 -0.2171 -0.0007  0.0245
 7338W        W23412  16.035  15.863   2.734 -0.1055 -0.0477 -0.3279
 7339W        W23413   7.153  18.372  13.847  0.1918  0.1946 -0.5013
 7340W        W23414  10.383  18.397  13.248 -0.2807 -0.0283  0.0870
 7341W        W23415   8.960   9.430   4.703 -0.1541 -0.0043  0.1247
 7342W        W23416  18.861   2.993   4.455  0.3370 -0.1240 -0.3033
 7343W        W23417   2.468  17.568   0.158  0.3778  0.1084  0.1969
 7344W        W23418  18.989  10.426  14.200 -0.5091  0.0868 -0.0473
 7345W        W23419  17.961   4.562   0.674  0.0722 -0.0435 -0.0350
 7346W        W23420   9.435  15.199   2.618 -0.2659  0.1361 -0.1799
 7347W        W23421  11.106  15.964   3.650  0.0453 -0.1843 -0.2742
 7348W        W23422  11.337  17.736  12.717 -0.3649 -0.0137 -0.1748
 7349W        W23423  12.291   9.764   0.124  0.1603  0.2444  0.0434
 7350W        W23424   9.038   6.835  13.803 -0.0971  0.0484  0.1655
 7351W        W23425   1.231   6.538   2.754 -0.3633 -0.1729  0.0064
 7352W        W23426   2.225   4.475  10.339  0.2103  0.3359 -0.0953
 7353W        W23427  16.502  16.046   4.865  0.1848  0.1617  0.3234
 7354W        W23428   4.481   9.780  14.699  0.1188  0.2039  0.2572
 7355W        W23429   4.816  19.260   1.859 -0.4788 -0.0479 -0.0926
 7356W        W23430  16.638   7.254   4.084 -0.2790  0.5006  0.0113
 7357W        W23431  19.290   2.091  10.986 -0.1174 -0.0522 -0.4578
 7358W        W23432  18.338   5.800   3.446 -0.2112  0.1647 -0.3795
 7359W        W23433  14.262  14.857  14.799 -0.0021  0.1447 -0.0471
 7360W        W23434   8.896   5.528   4.726  0.4474  0.0107  0.1269
 7361W        W23435  17.555   0.194   3.153 -0.0010  0.1287 -0.2259
 7362W        W23436  12.634  17.403  12.748 -0.1561 -0.0650 -0.5294
 7363W        W23437   8.666   3.998   1.063 -0.2552  0.0886  0.0311
 7364W        W23438   7.138   8.425  14.217 -0.0326 -0.1311 -0.0310
 7365W        W23439   6.090  14.445  11.074 -0.0368 -0.1813 -0.0917
 7366W        W23440   0.076   3.699   0.174  0.0397 -0.0071 -0.3706
 7367W        W23441   5.825  13.976  14.714  0.0463 -0.1656 -0.1269
 7368W        W23442   7.654  17.132  10.649  0.2488  0.3212  0.0077
 7369W        W23443  14.523  14.809  11.739  0.1750 -0.1371 -0.0786
 7370W        W23444  11.226  15.989  12.171  0.0451 -0.1911 -0.3137
 7371W        W23445  18.310   1.182   5.669  0.1975  0.0887  0.1466
 7372W        W23446   7.576   9.931  10.036  0.1307 -0.1442  0.1335
 7373W        W23447  15.655  16.780   0.351 -0.2844  0.0573 -0.3137
 7374W        W23448   6.478   3.193   1.998  0.1915 -0.1550  0.0000
 7375W        W23449   6.232   8.506  13.430  0.0904 -0.1742 -0.0927
 7376W        W23450   4.869   2.801   3.288 -0.3364 -0.0113  0.1156
 7377W        W23451   3.093  16.780   0.241 -0.0802 -0.2295 -0.1794
 7378W        W23452   8.800   3.647   0.555 -0.2492  0.2371  0.2970
 7379W        W23453  12.027  14.687   3.232 -0.1720 -0.0602 -0.1252
 7380W        W23454  13.859   4.873   1.724  0.0481 -0.2115  0.2674
 7381W        W23455  11.999  16.164  10.540 -0.2437 -0.0220  0.0247
 7382W        W23456  15.423   7.785  11.301 -0.0297 -0.0495  0.1387
 7383W        W23457   9.219   8.031   3.614 -0.0235 -0.2440 -0.0447
 7384W        W23458   2.599  11.544   1.872 -0.2496  0.4316 -0.2331
 7385W        W23459   0.182   9.254  13.411  0.1250  0.2865  0.2921
 7386W        W23460   8.284  16.041   9.954 -0.0635  0.0309  0.0531
 7387W        W23461   5.056  15.863   0.916  0.0917  0.2990  0.0904
 7388W        W23462  16.810  10.025  13.704  0.0699 -0.0266 -0.1732
 7389W        W23463  16.500   8.562   2.335 -0.0336  0.2853 -0.1441
 7390W        W23464   5.959   5.566  10.787 -0.0801 -0.2149 -0.1782
 7391W        W23465   2.103   3.195  11.947  0.3418  0.1348 -0.0283
 7392W        W23466  17.082  12.787  12.436  0.0487  0.2283 -0.0322
 7393W        W23467   2.628   4.786   0.049 -0.3069 -0.2911 -0.0774
 7394W        W23468  11.785   5.833   4.049  0.0462 -0.1921  0.2008
 7395W        W23469   6.201  17.954  12.133  0.0131 -0.2935  0.1238
 7396W        W23470   2.969   4.237   0.331  0.2644 -0.0233  0.2387
 7397W        W23471   4.639   4.518  11.395 -0.1130 -0.2755  0.0315
 7398W        W23472   2.328   6.796  10.268  0.2788 -0.2015  0.0772
 7399W        W23473  12.819   7.672  13.029 -0.0106 -0.2462  0.0753
 7400W        W23474   7.328  17.593  14.173 -0.1581 -0.3040  0.0729
 7401W        W23475  15.958   3.639   1.796 -0.0347  0.0419 -0.0960
 7402W        W23476   1.543  12.154   1.252  0.1263  0.2372 -0.0687
 7403W        W23477  15.396   4.555  14.027 -0.0410  0.2109 -0.0178
 7404W        W23478   7.531  18.781   1.268 -0.4999  0.2014  0.0985
 7405W        W23479   9.202   6.615   1.515  0.1464  0.1429 -0.1478
 7406W        W23480   9.015   8.169  11.007 -0.1513  0.0228 -0.1366
 7407W        W23481   6.210   9.514  11.201  0.0387  0.0710  0.0678
 7408W        W23482   5.054  14.934  11.560  0.0323 -0.0000 -0.0556
 7409W        W23483  12.799   0.835   3.818 -0.0182  0.1525 -0.2403
 7410W        W23484   5.590  13.490  10.966  0.0826 -0.0264 -0.0965
 7411W        W23485  13.871  10.546   1.182 -0.3732  0.1520  0.1226
 7412W        W23486   3.857   9.503  13.167  0.0154  0.0741 -0.0718
 7413W        W23487  14.200  13.461  14.675 -0.2233  0.1147 -0.0107
 7414W        W23488  15.789   7.345  14.362  0.2449 -0.1958  0.4282
 7415W        W23489  18.889  15.261  14.867  0.1313  0.3313  0.3648
 7416W        W23490   7.001  18.289   4.109 -0.1904  0.0559  0.1307
 7417W        W23491   7.664   1.313   1.285  0.0250 -0.0112 -0.2370
 7418W        W23492  13.094  13.728  11.735  0.0473  0.2051  0.0873
 7419W        W23493  17.098   8.656   2.876  0.0816 -0.0478  0.1695
 7420W        W23494  14.026   2.990   2.931 -0.2464 -0.1232  0.1622
 7421W        W23495   6.075  18.425   4.399  0.0073 -0.1468 -0.2108
 7422W        W23496   5.204  18.635   3.250  0.3339 -0.0000  0.0188
 7423W        W23497   2.910  10.794   4.637 -0.0007 -0.1749 -0.1437
 7424W        W23498   5.614   0.504   2.041  0.0071  0.0569 -0.4590
 7425W        W23499  10.459   4.477   5.398  0.4306 -0.1623 -0.0438
 7426W        W23500  11.195  18.501  11.377  0.1113  0.0366  0.3961
 7427W        W23501  19.264   6.429  13.126 -0.3917 -0.0742 -0.0973
 7428W        W23502  17.385   4.644  14.091  0.2426  0.1042  0.2211
 7429W        W23503   6.814  19.329   4.025  0.1907 -0.0659 -0.0555
 7430W        W23504  17.885   9.089   5.478 -0.2567  0.1014 -0.0370
 7431W        W23505   2.340  14.946  14.434 -0.0961  0.2175 -0.1418
 7432W        W23506  16.781   0.136   5.558 -0.0194  0.2647  0.1389
 7433W        W23507   6.948   3.186  11.595  0.0520  0.0107 -0.3500
 7434W        W23508  10.519   9.913  14.634 -0.0039  0.4544  0.0882
 7435W        W23509  17.348   3.415   5.370 -0.2760  0.1014  0.2644
 7436W        W23510  15.809   8.510  13.366  0.2327 -0.4833  0.0553
 7437W        W23511   1.007   3.922  10.952  0.0709  0.2385 -0.1036
 7438W        W23512   1.522   4.783  10.799  0.3110  0.2017  0.2543
 7439W        W23513  10.078  10.286   2.118  0.3484 -0.1684 -0.0459
 7440W        W23514   9.767   7.198   1.898 -0.0357  0.1157 -0.3866
 7441W        W23515  16.919   8.929  14.696  0.2583 -0.3089  0.0287
 7442W        W23516  14.556  10.586  12.314 -0.2232 -0.1158 -0.1602
 7443W        W23517   8.349   0.754   2.347 -0.1974 -0.2955  0.2915
 7444W        W23518  18.711  10.133  14.522 -0.0934 -0.1375 -0.1160
 7445W        W23519   0.776  19.219  14.080  0.1564  0.0009 -0.4871
 7446W        W23520   3.731   8.391  11.598 -0.1757 -0.1918  0.1690
 7447W        W23521   3.360   5.643  11.432 -0.0551 -0.0150 -0.0085
 7448W        W23522   2.383   8.108   3.742 -0.0375  0.2405 -0.1865
 7449W        W23523  14.562   7.036   2.951  0.1224  0.1294 -0.1572
 7450W        W23524  12.898  14.935   4.885 -0.0205  0.4357  0.1852
 7451W        W23525  12.664   1.154  12.058  0.1982  0.1131  0.0637
 7452W        W23526  15.917  19.043   4.923  0.2593 -0.0197  0.0358
 7453W        W23527   9.954  10.124  11.223  0.1953 -0.2477 -0.2189
 7454W        W23528   3.026   9.974   4.969 -0.0162  0.1373 -0.0512
 7455W        W23529   4.699   0.831  11.123  0.1570 -0.2318  0.1575
 7456W        W23530  18.967  15.707  12.375  0.1184 -0.2883 -0.4042
 7457W        W23531   0.312   4.674   1.920  0.2228  0.0776  0.0072
 7458W        W23532   1.964  13.473   4.165 -0.1453 -0.3248 -0.2890
 7459W        W23533   5.124   0.324   2.015 -0.2116  0.2636  0.1582
 7460W        W23534   3.857   0.564   2.092 -0.1148  0.2422 -0.3242
 7461W        W23535  13.669   8.393   1.786  0.0568  0.1865  0.2579
 7462W        W23536   8.387  11.534   1.293 -0.2151  0.0801  0.1995
 7463W        W23537   9.410   8.027   0.545  0.2093 -0.2290 -0.0257
 7464W        W23538  11.021  18.138   4.537 -0.0968  0.1150  0.1652
 7465W        W23539  15.863  15.350  12.238 -0.2064 -0.1959 -0.2229
 7466W        W23540   3.522  17.815  14.516  0.2406 -0.2021  0.3704
 7467W        W23541  11.701   0.086   4.546 -0.1194 -0.2104  0.3260
 7468W        W23542   0.819   9.173   3.873 -0.0707  0.3240 -0.1249
 7469W        W23543   6.081  11.058   3.779  0.0346 -0.2412 -0.0359
 7470W        W23544   2.655   3.608  12.064  0.2445  0.1013  0.1118
 7471W        W23545   6.380   7.001   3.722  0.0560 -0.2025  0.2621
 7472W        W23546  14.224  11.432  12.540  0.0638 -0.0460 -0.2526
 7473W        W23547   4.056  14.869  10.478  0.0780  0.2309 -0.1479
 7474W        W23548   5.537  14.707   0.139  0.1282 -0.1641  0.2216
 7475W        W23549   0.405   7.911   4.187  0.2551 -0.0275 -0.0574
 7476W        W23550   3.212  11.278   3.467 -0.1881  0.4624 -0.0237
 7477W        W23551  12.928   1.079  10.630  0.0754 -0.2437  0.0476
 7478W        W23552  19.134   1.830   2.673  0.0611  0.1012  0.1623
 7479W        W23553  15.629   2.210   5.450  0.1767  0.3024 -0.0625
 7480W        W23554   8.752  12.029  10.104 -0.1348 -0.1744  0.1339
 7481W        W23555   6.027  14.640   1.323 -0.2693 -0.2374 -0.4014
 7482W        W23556   3.746   2.530   2.810  0.0488 -0.2940 -0.0030
 7483W        W23557  18.637  12.714   2.616 -0.1945  0.0142 -0.4466
 7484W        W23558   0.665  10.101  11.360 -0.1721 -0.0331  0.1249
 7485W        W23559   4.768   9.930  11.997  0.0908  0.0194 -0.1537
 7486W        W23560  16.648  17.492  10.627  0.1770 -0.0339 -0.0767
 7487W        W23561  11.505   2.944  14.155  0.0704 -0.3793  0.0278
 7488W        W23562  14.968   7.263  12.614  0.2031 -0.1260 -0.0959
 7489W        W23563   4.513  15.190   9.951 -0.1736  0.2254  0.0655
 7490W        W23564   1.591   8.661  12.036  0.5035  0.0784 -0.1166
 7491W        W23565   4.403   2.477   1.532  0.3769  0.4128  0.1036
 7492W        W23566  12.965   3.153   1.108  0.0755 -0.0958  0.2819
 7493W        W23567  16.078  10.229  12.090 -0.2919 -0.3148  0.1056
 7494W        W23568   2.992   4.179   2.321  0.1309 -0.0523 -0.0388
 7495W        W23569   9.800   2.719  13.875 -0.3475  0.1778 -0.0827
 7496W        W23570  13.179  19.105   4.405 -0.1638  0.0615 -0.1050
 7497W        W23571   4.899  17.117  13.324 -0.0480 -0.0653 -0.2368
 7498W        W23572  18.470  19.145   3.324  0.2227  0.0593  0.1540
 7499W        W23573   1.081   4.026  12.636 -0.2482  0.2587  0.1650
 7500W        W23574   0.579  16.875   1.954 -0.1448 -0.1140  0.0913
 7501W        W23575  18.618  18.706  13.295  0.0421 -0.1531 -0.1267
 7502W        W23576   4.902  11.814   3.273 -0.0582 -0.5163 -0.5135
 7503W        W23577  15.940  12.848   0.293 -0.0296 -0.0958  0.3101
 7504W        W23578  18.733  14.341   3.697  0.0486  0.2674 -0.2074
 7505W        W23579   3.931  18.749  10.226  0.1379 -0.1885 -0.1525
 7506W        W23580  11.879  17.008   2.339 -0.0806  0.1211  0.1842
 7507W        W23581  15.606  12.097   2.282 -0.3057 -0.0672 -0.1090
 7508W        W23582   9.187  14.306   4.532  0.1075  0.0717  0.1804
 7509W        W23583   8.818  10.607   3.139  0.1480  0.0115  0.2381
 7510W        W23584   1.368  10.596  14.752  0.1388 -0.2430 -0.2571
 7511W        W23585  10.171  10.281   0.382 -0.3271  0.0647  0.1259
 7512W        W23586  16.219  17.498  12.387  0.2362  0.2070 -0.2782
 7513W        W23587  10.278   5.254  10.713 -0.3849  0.0819  0.1400
 7514W        W23588   3.258  13.822   2.055  0.4570  0.0465  0.2468
 7515W        W23589  13.063  12.350   3.401  0.0685 -0.1753 -0.1139
 7516W        W23590  15.374   5.121   4.120 -0.0493 -0.0728 -0.1528
 7517W        W23591   7.797  17.182   2.250 -0.1214 -0.0856 -0.2232
 7518W        W23592   1.452  12.731   2.076 -0.0185 -0.0611  0.1200
 7519W        W23593  11.601  11.051  14.407 -0.1839 -0.0788  0.1496
 7520W        W23594   7.789   4.937   9.971 -0.4062  0.2283 -0.2607
 7521W        W23595  13.913  18.287   2.140 -0.2561  0.2427 -0.0175
 7522W        W23596  13.045   4.125   2.674 -0.1033  0.0023  0.1527
 7523W        W23597   1.543  10.352   5.978 -0.1819  0.3763  0.0650
 7524W        W23598   9.415  14.238  14.775 -0.0738 -0.3358 -0.4247
 7525W        W23599   4.019   0.944   0.734 -0.2633  0.1982 -0.1120
 7526W        W23600  17.220   1.573  11.741 -0.0723 -0.1731 -0.1662
 7527W        W23601   1.444  14.053  11.559 -0.0216  0.2542  0.0669
 7528W        W23602  17.086   3.128   5.734  0.3007  0.3851 -0.0930
 7529W        W23603  17.593  19.004  12.682 -0.1956 -0.0593  0.1545
 7530W        W23604  11.385   6.394   3.047  0.1194  0.0558  0.2409
 7531W        W23605  14.090   5.673   1.084 -0.2106  0.0959  0.0241
 7532W        W23606  10.084  10.113  13.628 -0.0452  0.2367 -0.0436
 7533W        W23607   0.364   0.916   1.356  0.0423  0.1528 -0.0378
 7534W        W23608   6.900  16.859   2.985 -0.1131 -0.1001 -0.0004
 7535W        W23609  13.212  11.052  12.094 -0.2339 -0.1991 -0.1027
 7536W        W23610  11.745   5.784   3.557 -0.1868 -0.0526  0.0634
 7537W        W23611  17.323   6.460   1.721 -0.1376 -0.1175 -0.0972
 7538W        W23612   8.310  16.559  11.623  0.0374  0.0510 -0.2390
 7539W        W23613  17.626   8.604   5.464 -0.2296 -0.1583  0.0393
 7540W        W23614  12.763  10.335   0.396  0.0004 -0.2737  0.1750
 7541W        W23615   6.383  14.850   9.671  0.0843 -0.3019  0.0300
 7542W        W23616  14.251   0.146   1.849 -0.2768  0.1435 -0.1054
 7543W        W23617  12.249   9.855   2.008  0.1913 -0.1137  0.0396
 7544W        W23618   1.415  11.945   2.948 -0.1895  0.1489 -0.0894
 7545W        W23619  11.187  15.189  11.213  0.0931  0.1560  0.0201
 7546W        W23620  12.043   6.330   0.301 -0.1270 -0.1436 -0.0651
 7547W        W23621   2.709  10.226  14.405 -0.3396 -0.1522 -0.0470
 7548W        W23622  14.224   2.700  14.816 -0.0871 -0.2006  0.0177
 7549W        W23623   2.872   1.153   2.465  0.0113  0.0902 -0.3018
 7550W        W23624   3.004   9.434   4.858  0.4435  0.2857  0.2598
 7551W        W23625  17.233   0.514   2.932  0.2110  0.0015  0.2621
 7552W        W23626  19.119   3.889  11.106  0.2642  0.0875  0.0668
 7553W        W23627   2.468   6.103   4.858  0.1164  0.2631  0.0333
 7554W        W23628   8.199   6.865  12.211 -0.0862  0.2862  0.1346
 7555W        W23629  11.397   1.632  11.842  0.2559 -0.2095  0.1396
 7556W        W23630  13.527   4.215  11.590 -0.0126 -0.0933  0.1416
 7557W        W23631  14.878   2.958  12.341  0.1985 -0.1155 -0.1065
 7558W        W23632  13.126  13.459   4.876  0.4709  0.0088  0.3642
 7559W        W23633  11.781   1.223   1.501  0.1758  0.1942  0.1475
 7560W        W23634   1.323   4.688   2.733 -0.3994 -0.0490  0.1705
 7561W        W23635  11.756  14.422   2.470 -0.2759  0.0783 -0.2691
 7562W        W23636   9.465  10.876   1.042  0.2578  0.2208 -0.0936
 7563W        W23637  15.281  14.628  13.266 -0.0631  0.2474 -0.0439
 7564W        W23638   9.590  10.711   4.290  0.3309  0.1028 -0.0309
 7565W        W23639   4.347   4.438  10.985  0.2189  0.2376 -0.1747
 7566W        W23640  18.481   3.744  12.821 -0.1599 -0.1505 -0.1069
 7567W        W23641  18.132   3.686   2.904 -0.2893  0.1434 -0.2107
 7568W        W23642   8.683  13.019   3.970 -0.0863  0.4627  0.0533
 7569W        W23643   5.111  10.005   1.903  0.4095  0.1020  0.1963
 7570W        W23644   6.915   8.718  11.413 -0.1989  0.0097  0.2398
 7571W        W23645  16.559  16.564   4.770  0.0936 -0.1796 -0.1141
 7572W        W23646  15.401  16.879  14.110 -0.0583  0.2666  0.1442
 7573W        W23647   2.720   0.272  12.918 -0.0854 -0.2256 -0.1997
 7574W        W23648   9.370   0.123   2.466 -0.1155 -0.1277  0.0216
 7575W        W23649   9.187  15.019   0.733  0.4205  0.2415  0.1823
 7576W        W23650   0.979  14.935   3.811  0.2144 -0.2119 -0.0246
 7577W        W23651   8.683  12.705   0.584  0.2338  0.1538  0.0538
 7578W        W23652  13.080  18.095  13.263  0.0624  0.2769  0.0913
 7579W        W23653  14.855  10.458   4.988  0.1105  0.0490  0.2856
 7580W        W23654  18.059  16.292   3.794  0.1201  0.1336  0.0256
 7581W        W23655  10.255  17.208  11.975  0.0670 -0.2669  0.0021
 7582W        W23656  17.088  10.752   5.390 -0.4673  0.0985 -0.1355
 7583W        W23657  12.270   5.947   3.374  0.0167  0.1012  0.2564
 7584W        W23658   4.532   7.161  11.199 -0.0731 -0.2739 -0.0887
 7585W        W23659   0.878  18.662   1.159 -0.1704  0.2115  0.0904
 7586W        W23660  15.570  17.229  14.585 -0.1213 -0.0047  0.2206
 7587W        W23661  16.804  13.139  10.426 -0.1138  0.1255  0.3277
 7588W        W23662   0.762   5.231   0.126  0.1855  0.1922  0.2276
 7589W        W23663   2.157  18.265   0.635 -0.1274  0.1181  0.2068
 7590W        W23664  18.567  14.885  14.895  0.3406  0.1350 -0.1498
 7591W        W23665  11.833   4.259  11.076 -0.0906  0.2629 -0.1976
 7592W        W23666  12.681  14.938  13.885 -0.3172  0.1084 -0.0816
 7593W        W23667   2.874   5.026  10.721 -0.1139  0.1579  0.0130
 7594W        W23668  12.415   2.331  10.945  0.3707 -0.1342 -0.0941
 7595W        W23669  14.901  11.450   3.356 -0.2279 -0.0276  0.3127
 7596W        W23670   6.040  16.669   0.169 -0.0522  0.0314  0.1172
 7597W        W23671  10.816  11.959   2.922  0.1927  0.0422 -0.0164
 7598W        W23672   6.604  18.000   3.342 -0.2833  0.2596 -0.0251
 7599W        W23673   7.403   4.621  11.867  0.1216 -0.0762  0.0810
 7600W        W23674   9.207  11.799  11.808  0.1477 -0.1079  0.3511
 7601W        W23675   1.876   1.301  11.665 -0.1616  0.0397  0.0494
 7602W        W23676   6.777  17.720   0.527  0.1898  0.0054 -0.2550
 7603W        W23677   1.001  18.119  14.997  0.3235  0.1456  0.0926
 7604W        W23678   9.534   9.676   9.960  0.4325 -0.1596  0.0184
 7605W        W23679  17.393   1.700   4.108  0.1617 -0.0646  0.0414
 7606W        W23680  10.287   8.629  12.199 -0.1311  0.1036 -0.0225
 7607W        W23681   1.463  12.251   4.602  0.0891  0.2502 -0.1501
 7608W        W23682   0.192  11.053   2.089 -0.3530 -0.1127  0.0184
 7609W        W23683   5.491   9.690   3.125  0.2466  0.1898 -0.0892
 7610W        W23684  10.837   6.472   4.584  0.2391 -0.2784 -0.3175
 7611W        W23685  17.584  10.710  14.448  0.2246 -0.0884 -0.0535
 7612W        W23686   9.904   7.073   3.626  0.3323  0.1038  0.0122
 7613W        W23687  18.687   4.133  11.576 -0.0632 -0.2916 -0.0913
 7614W        W23688   5.791   1.111  11.225  0.0291 -0.1503 -0.2718
 7615W        W23689  17.342  14.873  12.397 -0.2297 -0.0948 -0.2299
 7616W        W23690   0.286   2.795   1.786 -0.1690 -0.1659 -0.0516
 7617W        W23691  17.962  19.288  12.823 -0.1329 -0.1254  0.2181
 7618W        W23692   6.999   7.997  12.957  0.0762  0.1824  0.0662
 7619W        W23693  10.347  15.730  11.113 -0.0561 -0.0382 -0.1382
 7620W        W23694  18.224   2.022  13.602  0.0429 -0.0789  0.1363
 7621W        W23695   0.796   4.719   9.618  0.2727  0.1771  0.0676
 7622W        W23696   6.707   6.572   3.753 -0.0230  0.0249  0.0540
 7623W        W23697  10.830  10.318   3.112  0.0270  0.0449 -0.0947
 7624W        W23698  13.595  18.673   3.450  0.1451 -0.2368  0.1625
 7625W        W23699  12.339   7.679  13.286  0.3741  0.1499  0.0106
 7626W        W23700  16.168  11.729   5.481  0.1290  0.1506  0.1206
 7627W        W23701  10.508   4.459  10.395  0.0041  0.1891  0.3876
 7628W        W23702  11.193  12.817  13.616  0.1524 -0.0335 -0.1047
 7629W        W23703  16.674  15.993  12.020 -0.1603  0.1135  0.0167
 7630W        W23704  16.980  14.308  12.564  0.0212  0.0603 -0.1754
 7631W        W23705   6.412  16.217  12.425 -0.1040 -0.0623  0.2314
 7632W        W23706  12.983   1.911  14.489  0.0633 -0.0957 -0.2213
 7633W        W23707   7.400   7.231   1.703 -0.0070  0.0428  0.0547
 7634W        W23708   6.954  19.275   0.435 -0.0480 -0.1541 -0.4490
 7635W        W23709   2.053  14.275  10.952 -0.2428 -0.1230  0.1100
 7636W        W23710   9.586   0.155   3.834  0.0400  0.4347  0.0640
 7637W        W23711   2.547  18.297  12.524  0.0888  0.2994  0.2746
 7638W        W23712  13.571   6.673  10.519  0.1927 -0.0741 -0.0517
 7639W        W23713   3.309  17.785  12.844 -0.1600 -0.2652  0.3917
 7640W        W23714   2.135  11.801  13.281 -0.0385  0.1689 -0.2375
 7641W        W23715  14.184  12.598  12.466  0.2492  0.2148 -0.3677
 7642W        W23716  15.988   2.890   0.530 -0.0675  0.2127  0.0466
 7643W        W23717   7.996  17.029  10.185 -0.2178 -0.0182  0.0990
 7644W        W23718  13.971   9.807   3.038 -0.2574 -0.0045  0.1401
 7645W        W23719   4.471   6.548  11.853 -0.0531 -0.2891 -0.1726
 7646W        W23720  14.967   2.344   2.911  0.1802  0.1214 -0.0023
 7647W        W23721  18.384  10.394  14.149  0.2526  0.2584 -0.2565
 7648W        W23722   2.756  17.282  14.154 -0.0925  0.0013 -0.2641
 7649W        W23723  14.176   5.532   0.077  0.0429 -0.1492 -0.0526
 7650W        W23724   6.576   8.664  14.047  0.0545 -0.1587  0.0717
 7651W        W23725  15.041  11.596   1.182 -0.0066 -0.1243  0.1366
 7652W        W23726  12.803  12.000   2.785 -0.1908  0.1805 -0.1093
 7653W        W23727   6.733   6.888   4.174 -0.1233 -0.2273 -0.1616
 7654W        W23728   2.320  16.315  11.455  0.1747  0.0737  0.0604
 7655W        W23729  12.518   3.050   5.553  0.1460  0.1064  0.1611
 7656W        W23730  10.023  10.915   0.874 -0.1370  0.1450  0.2490
 7657W        W23731  13.995  17.815   5.529  0.3557  0.2128  0.0303
 7658W        W23732   9.254   3.008  10.361 -0.1872  0.0454 -0.4159
 7659W        W23733  18.451  14.672  12.958 -0.1223 -0.0154 -0.0727
 7660W        W23734  16.902   6.542  12.287  0.0054 -0.0152 -0.1638
 7661W        W23735   5.240   7.371   3.944  0.2307  0.0838  0.0565
 7662W        W23736  16.623  17.443   2.804  0.1385  0.1352  0.1968
 7663W        W23737   0.264   9.016   2.643  0.0638  0.0018 -0.0582
 7664W        W23738  14.280   6.478  13.037 -0.0886  0.0493 -0.1309
 7665W        W23739  11.147   5.123   4.084  0.1751 -0.1082  0.0400
 7666W        W23740   8.627  17.719  10.905 -0.1477  0.0792  0.0781
 7667W        W23741   0.887   3.805  13.750 -0.3322  0.3082  0.1174
 7668W        W23742  13.849  10.214  11.281  0.3261 -0.2102 -0.0812
 7669W        W23743  12.924   9.512   0.941  0.0979  0.0815  0.0147
 7670W        W23744   1.637  16.099  12.637 -0.0837  0.0383  0.1490
 7671W        W23745  10.964  18.577   5.782  0.3661 -0.0574  0.0543
 7672W        W23746  10.726   0.778  11.482  0.3007  0.2015 -0.1651
 7673W        W23747  12.020   0.500   4.426  0.1242 -0.1827  0.1055
 7674W        W23748  10.027  13.841  14.119  0.0683 -0.1697 -0.3411
 7675W        W23749  12.850   3.367   1.574 -0.1071  0.2014 -0.0426
 7676W        W23750  14.797   8.997  11.413 -0.1050  0.0226  0.4463
 7677W        W23751  18.718   6.519   0.310 -0.1819  0.1361  0.0954
 7678W        W23752   5.276   7.177  10.175  0.0151 -0.0792  0.3355
 7679W        W23753  18.680   9.220  10.572  0.3243  0.2459 -0.1575
 7680W        W23754  14.143  13.500  11.751  0.2183 -0.1684 -0.2864
 7681W        W23755   7.602   4.649   3.522  0.2290  0.0896  0.2236
 7682W        W23756   4.709   7.585   4.440  0.3065  0.1122 -0.0937
 7683W        W23757   8.539   5.228   4.936 -0.1278  0.1378 -0.2474
 7684W        W23758   3.005  11.381   0.383 -0.3268 -0.3533 -0.1595
 7685W        W23759  12.574   9.886   4.763 -0.0821 -0.3126  0.0498
 7686W        W23760   4.806   8.569   1.889 -0.3524 -0.0155 -0.1141
 7687W        W23761   7.823  19.264  10.225  0.1209 -0.3461  0.0142
 7688W        W23762   1.186   0.332   0.961  0.2838  0.2194  0.0147
 7689W        W23763  12.720   4.490   0.220 -0.3713 -0.0302  0.2870
 7690W        W23764  16.853   2.142   2.163  0.1682  0.0336  0.0907
 7691W        W23765   7.835   6.470   4.408  0.1192 -0.2775  0.2467
 7692W        W23766  13.506   3.907   3.123  0.1459 -0.0966 -0.1937
 7693W        W23767   5.129  18.593   2.238 -0.0055  0.0646  0.3219
 7694W        W23768  19.292   4.429   2.135 -0.2550  0.0828 -0.0780
 7695W        W23769   8.317  17.239  13.272 -0.4450  0.2246 -0.0061
 7696W        W23770  18.090  12.927   0.200  0.1711  0.3393  0.1507
 7697W        W23771  19.282  11.536  11.693  0.2235 -0.2515 -0.0246
 7698W        W23772  13.314   7.149   3.209 -0.0984  0.0340 -0.4639
 7699W        W23773   4.863  15.209  14.716 -0.1921  0.1451 -0.0363
 7700W        W23774   6.218   2.200  14.589  0.0179 -0.2600  0.0516
 7701W        W23775  14.519   8.645   2.092 -0.1031  0.2391  0.2680
 7702W        W23776   4.654   0.086   5.080  0.0396  0.1807  0.2370
 7703W        W23777  16.521   2.137   3.219 -0.2918 -0.0578  0.0389
 7704W        W23778   6.821   6.923  13.502 -0.0469 -0.2194 -0.2228
 7705W        W23779  13.867  17.265  10.978 -0.1764  0.1009  0.2474
 7706W        W23780  18.990   1.732   0.358 -0.3732 -0.2742  0.0976
 7707W        W23781  13.724   9.075   1.297  0.0771  0.3841 -0.0289
 7708W        W23782   6.863   1.443   0.893 -0.0214  0.1537 -0.0308
 7709W        W23783   7.686  13.779   1.514  0.1159 -0.1996 -0.0216
 7710W        W23784   0.415  11.059   4.889 -0.1108 -0.2310  0.1206
 7711W        W23785   0.135  10.991   5.473 -0.1033 -0.2497  0.2163
 7712W        W23786  15.821   1.333   3.261  0.0372 -0.1200 -0.0414
 7713W        W23787  11.668   0.565  13.388 -0.4538 -0.1537  0.3387
 7714W        W23788   1.417  15.690  12.874 -0.3363  0.0321 -0.0591
 7715W        W23789   2.591  12.648  10.035  0.0854 -0.1303  0.0587
 7716W        W23790   1.116   3.511  10.721  0.2764  0.2078 -0.3620
 7717W        W23791  18.929  11.226  11.648 -0.1384 -0.2791  0.4057
 7718W        W23792  19.131   4.977   4.066 -0.0722  0.3922  0.1873
 7719W        W23793   5.422   5.202  13.476 -0.1006 -0.1535  0.0911
 7720W        W23794   2.846   5.423   0.693 -0.0196 -0.0228  0.0336
 7721W        W23795   1.637   3.270  12.224  0.1168  0.2212 -0.0689
 7722W        W23796  18.878  13.827  14.256 -0.0501 -0.0050 -0.0001
 7723W        W23797  12.093   4.668  14.737 -0.2768  0.1811  0.3754
 7724W        W23798  14.294   4.971  14.659 -0.0141 -0.2263 -0.3530
 7725W        W23799  16.628   7.249  14.620 -0.5497  0.0742  0.1415
 7726W        W23800  19.330   8.690   2.997  0.0474 -0.2710  0.3884
 7727W        W23801  18.102   3.780  10.835 -0.0739 -0.0048 -0.0188
 7728W        W23802  18.939   2.184  13.571  0.0508 -0.0097  0.1357
 7729W        W23803   7.284  15.767  11.217  0.1206 -0.0725  0.1951
 7730W        W23804   6.096  13.474  13.044 -0.2675 -0.0791 -0.1253
 7731W        W23805   8.293  14.840   2.742 -0.3677  0.1696  0.0059
 7732W        W23806  14.324  14.379  13.165  0.0979  0.2306 -0.1310
 7733W        W23807   8.619   5.278   0.412  0.1064  0.2184 -0.1776
 7734W        W23808  11.855  15.661  10.431 -0.1255 -0.2104 -0.1072
 7735W        W23809   4.454   2.763  14.258  0.1029  0.3330 -0.1620
 7736W        W23810  19.195   5.016   2.919 -0.1215  0.2559  0.2834
 7737W        W23811   2.482  16.120   2.108  0.0277 -0.0135  0.5937
 7738W        W23812  19.301   6.509   2.876  0.2952  0.2771 -0.4855
 7739W        W23813  12.990  15.008  14.717 -0.3579 -0.3790  0.1285
 7740W        W23814   0.891   6.539   5.902 -0.0285  0.0599  0.1714
 7741W        W23815  10.392   2.940  14.073 -0.3224  0.3123  0.0491
 7742W        W23816   1.188   0.725  14.011 -0.0256 -0.2758 -0.2203
 7743W        W23817  11.383   8.171  10.324  0.3747 -0.0065  0.1204
 7744W        W23818   7.499  15.462   1.462  0.1945 -0.1079 -0.0040
 7745W        W23819  18.098  14.075   0.292 -0.0367 -0.4029  0.2083
 7746W        W23820   2.302  18.383  10.708 -0.0246  0.1867 -0.0292
 7747W        W23821   9.915   9.191  12.682 -0.0657 -0.0509  0.1053
 7748W        W23822   2.362   6.816  13.709 -0.3333  0.2003 -0.2648
 7749W        W23823  18.787   2.896  13.358  0.1005 -0.1545 -0.2949
 7750W        W23824   2.333   1.999  10.986 -0.1863  0.2547  0.0560
 7751W        W23825   1.956   0.458   2.666  0.0652 -0.3400  0.0322
 7752W        W23826   4.163  11.915  12.697 -0.1774 -0.3853  0.1408
 7753W        W23827  10.820  19.325  11.749  0.0772  0.4714  0.0785
 7754W        W23828  10.517   4.316  14.130  0.1258 -0.1145 -0.2052
 7755W        W23829   4.535   9.279  14.526  0.1312  0.0138  0.0171
 7756W        W23830  16.063   7.807  13.040 -0.0174 -0.2787  0.0675
 7757W        W23831   9.518   6.049  12.090 -0.1915  0.0945 -0.0946
 7758W        W23832  11.803   6.492  13.038  0.0733  0.3884 -0.2149
 7759W        W23833  10.073   2.389  14.681 -0.3019 -0.2885 -0.3460
 7760W        W23834   4.767   9.686   0.937 -0.0754  0.3195  0.0204
 7761W        W23835  13.313  11.934  14.065  0.1265  0.1692 -0.1933
 7762W        W23836  11.195   8.824  12.481  0.1754 -0.1796  0.1555
 7763W        W23837  13.476   7.573  11.680  0.1184  0.0902 -0.1253
 7764W        W23838  15.962   7.520   1.433  0.1609 -0.1313  0.2146
 7765W        W23839   6.884  15.455   2.224  0.2724 -0.3166 -0.2295
 7766W        W23840   0.368  12.895   0.597 -0.0250  0.1343  0.1307
 7767W        W23841  18.155   9.913  13.059  0.1518  0.1701 -0.1962
 7768W        W23842   5.689   5.590   0.878 -0.0918  0.2733 -0.3891
 7769W        W23843  18.548  18.806   4.983 -0.0965  0.1002  0.3986
 7770W        W23844   5.267   5.841  14.688  0.1537 -0.2750 -0.1403
 7771W        W23845  12.927  16.572   9.365 -0.1311 -0.0401 -0.1662
 7772W        W23846   8.942  10.868  10.428 -0.0488  0.1183 -0.5417
 7773W        W23847   9.681  18.912   3.378  0.0441  0.0367  0.4453
 7774W        W23848  13.040  10.845  10.436  0.1183  0.4963 -0.1015
 7775W        W23849  11.274  10.259  13.577 -0.0522  0.0050 -0.4325
 7776W        W23850   1.194   6.882   0.685 -0.1625 -0.1320 -0.1405
 7777W        W23851   9.122  14.427  10.106 -0.2574 -0.0553 -0.1107
 7778W        W23852   5.102   2.150   3.990  0.0985  0.1340 -0.1468
 7779W        W23853  12.678   5.825   2.029 -0.0488  0.1446  0.0958
 7780W        W23854  18.932  15.478   2.308 -0.1648 -0.0088 -0.1701
 7781W        W23855  13.981   6.253  10.963 -0.1811  0.1013  0.1853
 7782W        W23856  11.732  11.151   3.942  0.0447 -0.0300  0.1249
 7783W        W23857   6.010   2.294   2.459  0.1892 -0.4610 -0.0608
 7784W        W23858  14.996   3.338   4.900 -0.0527  0.2028  0.0624
 7785W        W23859  13.646  18.857  14.002  0.0736 -0.1531 -0.0290
 7786W        W23860  19.025  17.454  10.949 -0.3134 -0.2479 -0.0377
 7787W        W23861  13.919   9.851  13.672 -0.1030 -0.0251  0.0439
 7788W        W23862   5.082   0.244   0.541  0.0870  0.0357  0.2440
 7789W        W23863  19.143   6.014  11.327 -0.4013 -0.1555  0.0713
 7790W        W23864   6.454   3.178  14.386  0.1292 -0.1257 -0.1005
 7791W        W23865  12.717  12.789  12.392 -0.1792  0.0092  0.1544
 7792W        W23866   1.922  16.431   1.367  0.1580  0.1089  0.0209
 7793W        W23867  13.504  12.828  11.466 -0.0351 -0.2286  0.2228
 7794W        W23868  10.209   5.629   3.269  0.2111 -0.0538  0.0688
 7795W        W23869   1.097  12.342  12.765  0.1913 -0.1407  0.4131
 7796W        W23870  15.604  13.439  13.966 -0.1974 -0.1431  0.1916
 7797W        W23871  15.104   1.608   6.092  0.1384  0.1269 -0.1414
 7798W        W23872   6.632  16.721   3.728 -0.1304 -0.3907  0.2151
 7799W        W23873  17.504  15.441  14.958  0.0136 -0.1148 -0.1947
 7800W        W23874   8.798   2.375  11.301 -0.0321 -0.2477 -0.3084
 7801W        W23875  18.696  15.421  11.001  0.0744 -0.0988 -0.1298
 7802W        W23876   8.102   4.907   1.187  0.0457 -0.1568 -0.4457
 7803W        W23877  12.482  12.386  10.440 -0.0368 -0.1864  0.1796
 7804W        W23878  16.822  16.186  10.423  0.2051  0.0022  0.2515
 7805W        W23879   4.325   9.020   1.264 -0.0973 -0.0136 -0.0682
 7806W        W23880   1.671   8.543   0.862  0.1090  0.0281  0.0403
 7807W        W23881   5.712   0.639  11.101 -0.1093 -0.0773  0.3389
 7808W        W23882  13.785  15.907   1.144 -0.0238  0.1463  0.1143
 7809W        W23883   4.870  19.054   4.723 -0.3251 -0.1975 -0.1307
 7810W        W23884   2.031  12.523  12.727  0.2711  0.2593 -0.0976
 7811W        W23885  17.076   3.041   5.030  0.2203 -0.1520  0.0960
 7812W        W23886   0.489   5.505   2.602 -0.2486  0.0088 -0.3277
 7813W        W23887   3.539   2.866  13.667  0.0693  0.0889 -0.1233
 7814W        W23888   0.319  17.736  11.753  0.2202  0.0342 -0.2730
 7815W        W23889   1.961  17.570   4.372  0.0497 -0.1609 -0.3434
 7816W        W23890  10.583  10.435   2.254  0.0004  0.0461  0.2296
 7817W        W23891  17.264  16.844  12.391 -0.0467 -0.2934 -0.1645
 7818W        W23892   4.269   2.700  12.504  0.2266  0.1169  0.0114
 7819W        W23893  10.311   3.028   3.439 -0.3119 -0.1882 -0.0049
 7820W        W23894   4.950   9.654  11.633  0.4190 -0.0984 -0.0528
 7821W        W23895  13.645   9.203   3.550  0.1735 -0.0076 -0.1835
 7822W        W23896  11.550  18.175  10.859 -0.1377  0.0886 -0.0257
 7823W        W23897  16.143   9.416   4.767  0.1438  0.0370  0.1665
 7824W        W23898   8.691  16.793  13.760  0.0969 -0.2198 -0.0621
 7825W        W23899  15.110  10.811  13.839  0.1804 -0.0882  0.1639
 7826W        W23900  18.144   4.565  13.934 -0.0895 -0.1624  0.3070
 7827W        W23901   1.715   5.493   3.282  0.4106  0.0227  0.1626
 7828W        W23902   4.360   2.558  11.785  0.1554  0.0045  0.3396
 7829W        W23903   9.822  14.365   2.321  0.2405  0.1326 -0.0657
 7830W        W23904   3.917  12.705   1.680  0.0461 -0.2294 -0.0061
 7831W        W23905  15.241  13.801   1.626  0.0717  0.0503 -0.4576
 7832W        W23906   5.275  12.147  11.057 -0.1055 -0.1109  0.3654
 7833W        W23907  13.355  16.379  11.869 -0.0071  0.1431  0.1693
 7834W        W23908  14.510   2.489   2.090 -0.0391  0.4346 -0.2701
 7835W        W23909  12.514   9.772   3.136 -0.2808  0.1618  0.0487
 7836W        W23910   7.248  18.410  10.189 -0.0425  0.4774  0.2338
 7837W        W23911   8.604   7.037   4.747 -0.0200 -0.1764  0.1422
 7838W        W23912   5.562   7.803   2.672 -0.3019  0.4787  0.2510
 7839W        W23913   2.615   6.047  14.885 -0.2150  0.1131 -0.2637
 7840W        W23914  11.660   7.041   4.615  0.2417 -0.0455 -0.3870
 7841W        W23915  13.620  11.075   0.138 -0.3997  0.0434 -0.0829
 7842W        W23916   0.944  13.681   2.088  0.0845 -0.4741  0.4269
 7843W        W23917  14.691  12.801   4.991  0.0136 -0.1487 -0.0283
 7844W        W23918  17.554   4.601   1.224  0.2367  0.0235 -0.0732
 7845W        W23919   5.080  17.612   0.669 -0.0026 -0.0435 -0.1163
 7846W        W23920   5.281  16.866   3.721 -0.0528  0.1236 -0.0035
 7847W        W23921  15.201  14.297  11.933  0.1253  0.1033 -0.0629
 7848W        W23922   8.170   5.945  10.844  0.4097 -0.2954  0.0290
 7849W        W23923   4.436   1.436  12.805  0.1512  0.1646  0.2477
 7850W        W23924  13.430  19.005   0.514  0.0823 -0.0877  0.1433
 7851W        W23925  15.617   8.102   2.209  0.3548 -0.1222  0.2169
 7852W        W23926   3.563  15.320   4.564 -0.0554 -0.0983  0.2099
 7853W        W23927  18.522  15.568   4.379  0.0869  0.0521 -0.1223
 7854W        W23928  16.640   5.889   4.146 -0.0778  0.0610 -0.4055
 7855W        W23929  12.893  16.597   2.712 -0.1739  0.1353  0.2607
 7856W        W23930  14.151   9.395  13.650  0.0173  0.2826  0.0447
 7857W        W23931  13.406   8.831  13.334 -0.1141 -0.1940 -0.0992
 7858W        W23932  18.231   1.130   2.649 -0.1702 -0.0096 -0.1485
 7859W        W23933  14.745  15.641  12.637  0.1262 -0.1147  0.1138
 7860W        W23934   9.976   3.151   3.109 -0.0881  0.2207  0.0797
 7861W        W23935  13.195   2.078  11.840 -0.3054 -0.1421  0.0816
 7862W        W23936  17.118  10.421   1.726  0.1531  0.2140 -0.1599
 7863W        W23937   0.529   8.195   1.612 -0.3921 -0.1517 -0.0064
 7864W        W23938  13.688  12.118   2.279 -0.0004 -0.3365  0.2219
 7865W        W23939  17.654  17.947  13.429  0.0506  0.0856  0.3826
 7866W        W23940   1.264  14.081   1.936 -0.0552  0.1148  0.0403
 7867W        W23941   3.959   6.248   2.756 -0.1366  0.1610  0.1793
 7868W        W23942  13.843   1.633   5.002  0.0639  0.0033  0.2914
 7869W        W23943   5.922   3.026  14.182 -0.2220 -0.2723  0.0190
 7870W        W23944  10.907  10.297  11.759  0.0087  0.1028 -0.3257
 7871W        W23945  18.118  13.892   3.511  0.0155 -0.0960  0.0895
 7872W        W23946   9.018  12.273  14.790  0.0884 -0.1367 -0.3250
 7873W        W23947  13.874  14.896   0.212 -0.0877  0.1216  0.0019
 7874W        W23948   1.513  13.669   4.109  0.2453 -0.0327 -0.1064
 7875W        W23949   7.962   9.711  13.756 -0.3674 -0.0042 -0.3022
 7876W        W23950   1.545   0.297  12.003 -0.2376  0.1783  0.0806
 7877W        W23951  12.737   9.717   4.226  0.0703 -0.0922 -0.1234
 7878W        W23952  16.573   9.734   4.629  0.2412  0.1448  0.0941
 7879W        W23953  14.953   7.488   3.978  0.0199 -0.1329 -0.0146
 7880W        W23954   8.072   6.216  14.605  0.0567 -0.0076  0.1559
 7881W        W23955  14.038  18.269  10.648  0.2035  0.0019  0.0118
 7882W        W23956   1.564  14.809   4.892 -0.0188 -0.1404  0.3838
 7883W        W23957  18.952   3.881  12.016 -0.2155  0.0675 -0.1903
 7884W        W23958  11.463  19.008  12.368  0.0254  0.6012  0.0759
 7885W        W23959   6.484   6.599   9.267  0.0375 -0.1816 -0.3749
 7886W        W23960  12.395   6.446   1.472  0.2667  0.0130  0.2582
 7887W        W23961  16.959  15.843  13.401  0.1917 -0.0412 -0.2577
 7888W        W23962   5.668   7.543   3.760  0.1232 -0.0432 -0.0939
 7889W        W23963   2.696  15.156   3.132  0.0051 -0.1028 -0.1149
 7890W        W23964   2.797  11.558   5.656  0.0836  0.1279 -0.3006
 7891W        W23965  14.930   5.254  12.465 -0.0025  0.3154  0.0384
 7892W        W23966   4.109  17.906  13.340  0.1106  0.1759 -0.4561
 7893W        W23967  18.131  14.409   5.484 -0.1500 -0.0443  0.1391
 7894W        W23968  16.082   3.715  12.236  0.0829  0.2713  0.1014
 7895W        W23969  16.319  13.969  14.186  0.0817 -0.1669 -0.1408
 7896W        W23970  10.560  17.029   0.671  0.0113  0.1531 -0.1557
 7897W        W23971   7.982   1.144  14.976 -0.0648 -0.0028 -0.0383
 7898W        W23972  16.435   6.140   0.891 -0.3022 -0.1448 -0.0946
 7899W        W23973   5.386   7.326  14.907 -0.2676 -0.0834 -0.2968
 7900W        W23974  16.389  18.824  11.027 -0.0156  0.1084 -0.0310
 7901W        W23975   4.381  14.438  14.997 -0.3191  0.0328 -0.1084
 7902W        W23976   4.771  11.088  14.933  0.3560 -0.0930 -0.2768
 7903W        W23977  12.452   5.456   3.806  0.2244  0.1670  0.0458
 7904W        W23978  17.381  14.437  11.616 -0.0650  0.2029  0.2936
 7905W        W23979  16.742  14.777   2.593  0.0173 -0.2533  0.0292
 7906W        W23980  17.996  17.232  11.550  0.1453  0.1797  0.0015
 7907W        W23981  14.791   9.857   1.681 -0.1399 -0.0847  0.2207
 7908W        W23982   9.706  13.993  12.190 -0.1414  0.3645 -0.0308
 7909W        W23983   4.770   2.131  14.804 -0.2395 -0.2120  0.0811
 7910W        W23984   7.904  14.235  13.720  0.0976  0.0697  0.2646
 7911W        W23985  12.704  14.579  14.261 -0.1671 -0.4207 -0.4704
 7912W        W23986   5.762   5.791   3.085 -0.0105  0.2907 -0.2322
 7913W        W23987  13.477   1.790   3.405 -0.0850 -0.0032 -0.1686
 7914W        W23988  10.837  16.073  14.015  0.1417  0.3215  0.0548
 7915W        W23989   0.754  15.379  13.441 -0.0164 -0.1330  0.1024
 7916W        W23990  16.185  12.047  10.910  0.1664 -0.2691  0.3307
 7917W        W23991   9.337  18.326  14.732  0.2231  0.0551  0.0332
 7918W        W23992   9.944  11.258  11.993  0.0714  0.0806 -0.1243
 7919W        W23993   7.546  12.855   3.944  0.1747  0.2885 -0.0999
 7920W        W23994  13.225   1.050  14.793 -0.0178 -0.0271  0.0263
 7921W        W23995   0.153   6.483  11.199 -0.1799  0.0508 -0.0093
 7922W        W23996  15.171  13.814   3.359 -0.0321 -0.1366 -0.1180
 7923W        W23997   4.924  12.048   3.774  0.2468 -0.0302  0.0347
 7924W        W23998  17.930   8.431   3.334 -0.0198  0.1116 -0.1303
 7925W        W23999   3.120  15.510  13.775 -0.4216 -0.3248 -0.0413
 7926W        W24000   2.047  11.854  14.269  0.5233  0.0854 -0.3104
 7927W        W24001   6.557   6.484  13.666 -0.0503  0.0484  0.2642
 7928W        W24002   1.159   7.701   5.519  0.1227  0.2618  0.2788
 7929W        W24003  14.116   5.450  11.527  0.2028  0.0730 -0.1218
 7930W        W24004   9.025  18.518   5.256 -0.1978 -0.0703  0.3327
 7931W        W24005   1.158  10.752   2.493  0.0855 -0.0874  0.0079
 7932W        W24006  17.012   1.004  10.627  0.1079  0.0564 -0.2592
 7933W        W24007  10.553  11.079  14.383  0.3849 -0.2244  0.0484
 7934W        W24008   8.722   0.756  14.793  0.3598 -0.1869 -0.1240
 7935W        W24009  14.134   7.127  14.649 -0.2462 -0.0947  0.0007
 7936W        W24010  12.867   4.253   4.894 -0.1157 -0.1839 -0.3645
 7937W        W24011   6.638  13.168   4.816 -0.0713  0.2391  0.1653
 7938W        W24012   9.997  14.109  14.647 -0.0461 -0.2021  0.0366
 7939W        W24013   0.166  14.582  14.652 -0.0864 -0.0352 -0.2482
 7940W        W24014   9.137   7.938  13.355  0.0837  0.0750 -0.1928
 7941W        W24015   0.192  11.706  14.804  0.0934  0.0340 -0.1305
 7942W        W24016   0.643   4.671   5.082  0.2315 -0.2778  0.1939
 7943W        W24017   6.947  10.878  14.344  0.1019  0.3833  0.0168
 7944W        W24018   8.987  12.596   2.411  0.1142 -0.1522  0.1148
 7945W        W24019   7.556   5.736   4.341  0.2659 -0.0352 -0.2850
 7946W        W24020   9.314  15.904  14.537  0.0384  0.2777 -0.1154
 7947W        W24021  19.305  17.289  10.230  0.1596  0.2793 -0.2330
 7948W        W24022   1.588  17.314   2.988  0.0976 -0.0485  0.2208
 7949W        W24023  17.106  12.376   4.071  0.0932 -0.1592  0.2329
 7950W        W24024   8.145  11.872   5.279  0.0343 -0.0852  0.1611
 7951W        W24025  13.277   2.225  14.166  0.2777  0.3245 -0.1193
 7952W        W24026   6.881  15.967   2.550 -0.2635 -0.0377 -0.2549
 7953W        W24027  15.340  12.169  13.300 -0.5361 -0.0612 -0.2000
 7954W        W24028   2.706   6.403  11.149 -0.2302 -0.1174  0.2827
 7955W        W24029   0.684   9.499   1.991  0.0718  0.0730 -0.0379
 7956W        W24030   8.549  11.239   2.128 -0.0497 -0.1579  0.3479
 7957W        W24031   3.470   6.540  14.110  0.1650 -0.2400  0.0287
 7958W        W24032  16.302   6.973   3.208 -0.1920 -0.2377  0.2325
 7959W        W24033   5.591   4.613   0.732 -0.0249 -0.2058 -0.0631
 7960W        W24034   8.370  11.469   2.983  0.0921  0.1100  0.1400
 7961W        W24035   1.488   2.819   0.440 -0.1949 -0.1393 -0.1343
 7962W        W24036   7.870   7.711   4.114  0.0429  0.5122  0.1125
 7963W        W24037   0.635   4.994   2.113  0.0727  0.0875  0.1852
 7964W        W24038   6.263  14.814  11.725  0.2878  0.0104 -0.1021
 7965W        W24039   1.232  16.817  10.882  0.0290 -0.2060 -0.3174
 7966W        W24040   6.577  14.276  13.011  0.0046  0.0324  0.4066
 7967W        W24041   6.499   4.300   2.636  0.1173 -0.4367  0.2381
 7968W        W24042  10.901   6.604   2.162  0.1110 -0.1720  0.0517
 7969W        W24043   2.477  11.556  11.336 -0.2389 -0.1561 -0.0221
 7970W        W24044   0.880   1.503  13.325  0.2620 -0.0586  0.1399
 7971W        W24045  11.849  16.580   1.735 -0.0992  0.2308  0.0012
 7972W        W24046   8.403  15.535   2.230  0.0999 -0.1086  0.3676
 7973W        W24047  10.149   8.921  14.965  0.0587  0.0044 -0.1813
 7974W        W24048  10.903   2.060  12.589 -0.0388 -0.1150 -0.1730
 7975W        W24049   3.193  10.832  11.440  0.0510  0.0587  0.0923
 7976W        W24050   4.514   8.572   3.185 -0.1017  0.2300  0.1943
 7977W        W24051   7.061  13.956  13.274 -0.1523  0.0365 -0.1151
 7978W        W24052   2.456   7.756   2.044  0.0585 -0.2130  0.1738
 7979W        W24053  14.953  17.950  12.117 -0.0529 -0.1770 -0.4088
 7980W        W24054  18.004   5.353  11.921  0.1464  0.0741 -0.2324
 7981W        W24055   2.127   5.149  12.604 -0.0359 -0.0618  0.2611
 7982W        W24056  11.277  15.181  12.596  0.1935  0.0034  0.2572
 7983W        W24057  10.120  16.903  11.682 -0.0923 -0.1811  0.2449
 7984W        W24058  19.019  19.339   2.559 -0.1129  0.0323  0.1948
 7985W        W24059  16.351  11.784  12.720 -0.0018 -0.3347 -0.0385
 7986W        W24060  16.541   1.677   4.417  0.0059 -0.1607 -0.0606
 7987W        W24061  16.170  15.473   2.213  0.2962 -0.1915 -0.1099
 7988W        W24062  10.756   3.630   0.304 -0.0495  0.0118 -0.1861
 7989W        W24063   5.602  13.892   4.451  0.2561 -0.1290  0.0332
 7990W        W24064   2.827  14.135  14.825 -0.0660 -0.1236  0.1826
 7991W        W24065   5.030  16.712  11.447 -0.0830  0.2661  0.0643
 7992W        W24066   6.673   9.126  10.282 -0.2394 -0.2309  0.0505
 7993W        W24067   5.254   4.629   3.182 -0.1778 -0.1199 -0.2226
 7994W        W24068   7.121   7.782  13.396 -0.0661 -0.0791 -0.1662
 7995W        W24069  18.869  17.017  13.127 -0.0152  0.0728  0.2235
 7996W        W24070   8.600  18.242  10.809 -0.2145 -0.0734 -0.0262
 7997W        W24071  15.254  17.578  11.285  0.2505  0.0694 -0.0653
 7998W        W24072  16.897  16.297   4.558  0.1689 -0.4112 -0.1349
 7999W        W24073  14.457   6.921  13.309 -0.0123  0.0928 -0.2300
 8000W        W24074  17.973  16.001   1.174  0.0925 -0.0446  0.0317
 8001W        W24075  18.602   9.133   0.702 -0.0453 -0.1889  0.2430
 8002W        W24076   5.869   0.164   3.647 -0.2033  0.2429 -0.0871
 8003W        W24077  16.822  12.372  13.353 -0.0815  0.5101  0.4121
 8004W        W24078  16.285  15.579  14.686  0.2577  0.2619 -0.2469
 8005W        W24079   6.278   5.292  14.917  0.2285  0.1795  0.1242
 8006W        W24080   6.803  12.344  14.775  0.0776 -0.5077  0.1727
 8007W        W24081   7.565   1.846   2.963 -0.3272  0.1328  0.1464
 8008W        W24082   1.502   0.330   1.880  0.1368 -0.2464 -0.0747
 8009W        W24083  17.180  16.031   0.779  0.0029 -0.0796 -0.3478
 8010W        W24084   2.432  16.806  12.153 -0.0420  0.0774 -0.1168
 8011W        W24085  16.664   6.652  11.326  0.0424  0.2058  0.1741
 8012W        W24086  12.304  10.375   4.761  0.1386 -0.5206 -0.3628
 8013W        W24087  11.371  15.650  12.923  0.0732  0.0572  0.0225
 8014W        W24088  19.278  11.167  13.182  0.6756 -0.1851 -0.0424
 8015W        W24089  17.896   0.417   3.471 -0.2735  0.0003  0.0554
 8016W        W24090  15.895   2.462  12.779  0.3263 -0.0174  0.1223
 8017W        W24091   1.594   0.213   0.075 -0.1012  0.2022 -0.0973
 8018W        W24092   0.626   7.673   1.965  0.0201  0.0320 -0.1229
 8019W        W24093   0.235   2.941  13.593  0.3321 -0.0128 -0.1468
 8020W        W24094  14.000   9.243   2.670  0.1821  0.4386 -0.2984
 8021W        W24095  10.131   9.250   4.070  0.2058  0.0109 -0.3453
 8022W        W24096   4.067   6.540  10.937 -0.2036  0.0739 -0.0486
 8023W        W24097   7.181   7.600  14.902 -0.0265  0.4178  0.0200
 8024W        W24098  12.313  17.340  14.164  0.2148 -0.0874  0.1014
 8025W        W24099   9.780  15.548   2.673 -0.2219  0.1815 -0.0928
 8026W        W24100   0.034   6.909  14.816 -0.2067  0.0216  0.0743
 8027W        W24101   7.820   7.600  12.089 -0.0593  0.1279 -0.1397
 8028W        W24102   5.030   0.228   3.068  0.0806  0.0822  0.2396
 8029W        W24103  18.272  12.250   0.797 -0.0160 -0.3568 -0.1157
 8030W        W24104   7.758  12.628  10.344 -0.2467  0.3539 -0.0004
 8031W        W24105   1.998  15.006   1.374 -0.1031 -0.1523  0.2544
 8032W        W24106   7.444  12.109  13.182  0.1704  0.2351  0.4591
 8033W        W24107  12.453   9.367  12.859  0.1608  0.1185 -0.0983
 8034W        W24108  14.843   2.537  10.272  0.2316  0.2288  0.2126
 8035W        W24109   2.482   2.480   1.910  0.0036 -0.3012 -0.0269
 8036W        W24110   7.302  11.665  10.145 -0.2497 -0.3779 -0.0061
 8037W        W24111   8.067  12.230   0.001 -0.0526 -0.2128 -0.4540
 8038W        W24112   4.143   9.279   3.920  0.1088  0.1501  0.0751
 8039W        W24113   8.848  19.321   4.209  0.0154  0.0040  0.1444
 8040W        W24114   8.455  11.373  14.860 -0.0535 -0.1235 -0.0661
 8041W        W24115   2.806  17.249   0.272  0.0462  0.0904  0.0610
 8042W        W24116   3.205  11.354   5.420  0.0718 -0.2184 -0.2922
 8043W        W24117  12.483  17.682  13.798 -0.3578 -0.2550  0.2716
 8044W        W24118  12.783  13.292   2.646  0.0149  0.1484  0.0984
 8045W        W24119   6.882   7.343   4.150  0.1534 -0.6480  0.2979
 8046W        W24120  17.067  18.616  11.019  0.0683 -0.0795 -0.0409
 8047W        W24121   9.185   9.760   0.867  0.2772  0.0683  0.0262
 8048W        W24122  19.099  18.613   0.645  0.3792  0.1240  0.2663
 8049W        W24123   4.153  12.972   1.320  0.2256 -0.2560 -0.0090
 8050W        W24124  11.528   8.014  10.858 -0.2954  0.1872  0.2102
 8051W        W24125  18.967   8.114  13.843 -0.0447 -0.1781 -0.1787
 8052W        W24126  10.841  14.012  10.349  0.1237 -0.0707  0.2000
 8053W        W24127   2.527   6.383  10.647 -0.1245  0.0670  0.1044
 8054W        W24128   9.448   6.978  11.973 -0.0318  0.0181  0.2094
 8055W        W24129  17.489   1.192  11.788 -0.0228  0.0217  0.1511
 8056W        W24130   1.909  13.950   3.906 -0.2311  0.2225  0.0286
 8057W        W24131   0.247   5.797   5.067 -0.0124  0.3176  0.0163
 8058W        W24132   9.537  15.825  13.873 -0.0222  0.0057  0.3342
 8059W        W24133   2.302   7.190   0.853 -0.1748 -0.1755 -0.1055
 8060W        W24134  15.420  16.550  10.948  0.0344  0.0272  0.1456
 8061W        W24135   5.964   9.073   0.201 -0.0454  0.3261 -0.5694
 8062W        W24136  11.806  14.574  12.213  0.1415  0.1564  0.1041
 8063W        W24137   1.403   3.101  12.674  0.1518  0.0498  0.4128
 8064W        W24138   7.664   4.048  14.601 -0.0611  0.0404  0.0160
 8065W        W24139   9.023   8.921  11.498 -0.1526 -0.0901 -0.1738
 8066W        W24140   5.626  14.403   1.638 -0.0088  0.2776 -0.0758
 8067W        W24141  12.832   6.492  12.076  0.1798  0.0239 -0.2249
 8068W        W24142  14.675   6.685  14.103 -0.0390 -0.0728 -0.0595
 8069W        W24143  15.800  18.296   0.155 -0.0234  0.0214 -0.1179
 8070W        W24144   3.817   7.865   5.060 -0.0223  0.2280 -0.3080
 8071W        W24145   6.433   9.635   2.663  0.3076 -0.5064  0.0132
 8072W        W24146  14.928   8.325   0.189 -0.2663 -0.2530 -0.0654
 8073W        W24147   5.123  11.656  11.826 -0.3129 -0.0249 -0.0104
 8074W        W24148  17.791  12.177   0.517 -0.1282 -0.1045  0.0971
 8075W        W24149   7.734  14.225   3.924 -0.0482  0.0507  0.1935
 8076W        W24150   1.975  14.993  12.962 -0.0350 -0.1826 -0.0846
 8077W        W24151   9.138   7.199  11.133  0.2125 -0.0882 -0.0833
 8078W        W24152  11.996  11.484  13.437  0.1513  0.3250 -0.3845
 8079W        W24153   7.720   1.394   2.717  0.0554 -0.0680 -0.0059
 8080W        W24154   7.244  13.305   0.838  0.1307  0.0545 -0.1143
 8081W        W24155   5.313  11.604   1.614  0.0565 -0.0535 -0.2571
 8082W        W24156  14.214   6.412   0.271  0.0076 -0.2435  0.0456
 8083W        W24157  11.052  19.197  12.739 -0.0535  0.1477  0.2466
 8084W        W24158   0.313  11.902   4.678  0.2085  0.0109 -0.0154
 8085W        W24159  14.755   2.304  13.907  0.1279  0.0581  0.2090
 8086W        W24160  16.880  12.607  12.969  0.0065 -0.0552  0.1918
 8087W        W24161   7.862  10.353  11.371  0.0274  0.0126  0.0645
 8088W        W24162   2.384  12.162  14.670  0.3024 -0.3040  0.2745
 8089W        W24163  10.493   9.141  13.245 -0.1726  0.0749 -0.4480
 8090W        W24164  12.331  15.030  11.037  0.0497 -0.0220  0.1986
 8091W        W24165  17.249   4.538   3.282  0.2670 -0.3346 -0.0746
 8092W        W24166   4.549   2.226   2.651 -0.0047  0.0530  0.0071
 8093W        W24167   1.170   1.183  10.901  0.4890 -0.3389  0.0401
 8094W        W24168   2.782   2.452   0.833 -0.4210 -0.2309  0.0210
 8095W        W24169  16.825  17.812  13.148  0.1784  0.0293 -0.0776
 8096W        W24170   1.756  11.379   5.852 -0.3524 -0.3234  0.3730
 8097W        W24171   9.353  12.695  14.796 -0.2386  0.0526  0.0169
 8098W        W24172   8.639   2.909  14.620  0.1603  0.0715 -0.1824
 8099W        W24173  10.668   5.674   0.185  0.3346 -0.3604 -0.2161
 8100W        W24174   2.779  14.217  13.032  0.0936 -0.4527 -0.0375
 8101W        W24175   5.492  14.427   1.162 -0.2786  0.2950 -0.1230
 8102W        W24176   0.528  17.101   9.999 -0.0178  0.2836  0.3500
 8103W        W24177  18.693   3.889  14.437  0.1171  0.2014 -0.3745
 8104W        W24178  13.007   0.242  14.421  0.1364 -0.0587  0.0850
 8105W        W24179  18.216  14.124  12.036  0.0624  0.1235 -0.1821
 8106W        W24180  13.470  10.943  14.182  0.0141  0.0663 -0.1952
 8107W        W24181  14.914   0.217   9.589 -0.2648 -0.0847 -0.0664
 8108W        W24182   6.923  19.246   2.694 -0.1064 -0.2630  0.1553
 8109W        W24183  17.092  10.955   1.273 -0.1085 -0.1647 -0.1108
 8110W        W24184   4.750   4.796   5.487  0.0157 -0.2771 -0.2571
 8111W        W24185   1.892  13.217  14.337  0.1195  0.2744 -0.3806
 8112W        W24186  14.453  16.463   1.827  0.1974  0.1439 -0.1497
 8113W        W24187  12.152   2.326   1.752 -0.0729  0.0521  0.0869
 8114W        W24188   3.830  12.125  13.597 -0.1733  0.0666 -0.0419
 8115W        W24189   5.722  16.129   1.636 -0.2128  0.0228  0.0671
 8116W        W24190  13.630  18.194   3.515  0.4098  0.2473  0.0476
 8117W        W24191   1.975  14.550  11.884 -0.0996  0.1110 -0.3773
 8118W        W24192  13.020   0.596  12.599  0.0357  0.2423 -0.0741
 8119W        W24193   5.917  15.686  13.783 -0.4164 -0.1813 -0.2006
 8120W        W24194   7.571   6.459  14.021  0.0402 -0.1734  0.0300
 8121W        W24195  10.006   9.383  14.662 -0.1270 -0.1210  0.0785
 8122W        W24196   4.048   5.106  10.134 -0.0197 -0.0807 -0.1420
 8123W        W24197  18.660   0.733  13.607  0.2804  0.2771  0.1382
 8124W        W24198   4.315   5.686   3.941 -0.1678 -0.2967  0.5165
 8125W        W24199   1.563  11.074  13.072  0.0165 -0.3092 -0.2015
 8126W        W24200   1.640   3.907   2.495  0.0759 -0.2540 -0.0047
 8127W        W24201  19.269  12.402   5.287  0.1848  0.1230  0.2371
 8128W        W24202  10.361  11.616   0.850  0.0918  0.3348 -0.0588
 8129W        W24203  15.111  16.720  11.230 -0.0996 -0.0074 -0.2157
 8130W        W24204   9.144  14.924   1.723 -0.1300  0.0101  0.0388
 8131W        W24205   1.432   6.316   3.198  0.1131 -0.3360 -0.0703
 8132W        W24206  13.600   7.593   4.591 -0.2339 -0.0981 -0.1685
 8133W        W24207   4.010  10.981   4.335 -0.1958  0.1549 -0.0693
 8134W        W24208  18.115   8.637  13.728  0.2729 -0.0801 -0.0274
 8135W        W24209  10.846   0.100   0.125  0.1041  0.2395  0.0032
 8136W        W24210  14.670   0.697  14.422 -0.0487  0.1255 -0.1910
 8137W        W24211   0.539  17.033   0.525  0.1690 -0.0531 -0.0595
 8138W        W24212   1.099   1.852   3.322  0.2033  0.1335  0.2778
 8139W        W24213   3.567  10.302   4.703  0.0587  0.0065 -0.0174
 8140W        W24214  13.451   7.489  11.197  0.1163 -0.3913 -0.2573
 8141W        W24215   9.629   0.779   5.134  0.1291  0.4395 -0.2582
 8142W        W24216   3.847  13.437  11.590  0.1270  0.1560  0.2396
 8143W        W24217   7.962   5.969   0.802  0.0166 -0.2667  0.1233
 8144W        W24218   4.955   1.875  13.409  0.0555  0.1366  0.2277
 8145W        W24219   1.112  17.851  13.406  0.2923  0.2725 -0.0597
 8146W        W24220   2.812  11.360  11.001  0.1498  0.2265  0.3515
 8147W        W24221   1.362   6.972   4.299 -0.2146  0.2005 -0.0577
 8148W        W24222   2.332   7.974   4.266 -0.1252  0.2725  0.1352
 8149W        W24223  10.631  13.904   4.293  0.1629  0.0820  0.0825
 8150W        W24224   2.613   8.893  12.611  0.2775  0.1748 -0.2272
 8151W        W24225   6.417  10.840   9.445 -0.1587  0.0602  0.0524
 8152W        W24226  18.020  16.029  14.764 -0.0350 -0.0232  0.0368
 8153W        W24227  10.830   6.484  14.462  0.0657 -0.0763 -0.2978
 8154W        W24228  13.037   3.807   5.217 -0.0501  0.3078  0.0929
 8155W        W24229  11.009  14.215   3.808 -0.2397  0.2254 -0.4389
 8156W        W24230   1.635  14.089   3.352 -0.0845  0.1043  0.1288
 8157W        W24231  12.121   1.253  12.206  0.0543  0.1545 -0.1644
 8158W        W24232   4.155  11.438  10.762 -0.0316 -0.0912  0.2048
 8159W        W24233   3.479   1.274  13.616 -0.0901  0.4202 -0.2491
 8160W        W24234   2.479  15.201  11.786 -0.1803  0.0110 -0.2005
 8161W        W24235  13.900   0.240  11.423  0.2100 -0.4030 -0.0926
 8162W        W24236  17.272  12.310  13.651 -0.3510  0.0151 -0.1966
 8163W        W24237   8.114  12.384   3.707 -0.3172  0.0128 -0.1260
 8164W        W24238  13.727   1.508   2.967  0.3845  0.0963  0.2576
 8165W        W24239   9.568   1.724  12.782  0.0677 -0.1217  0.1675
 8166W        W24240  13.043   8.683  12.444 -0.1696 -0.0748 -0.0478
 8167W        W24241   8.698   8.595   1.860  0.0352  0.1087 -0.0164
 8168W        W24242  10.845   4.668   5.022  0.1865 -0.0852  0.1499
 8169W        W24243   2.130  16.870   3.252 -0.1280 -0.0375 -0.0254
 8170W        W24244   6.395   6.040  13.813 -0.0646 -0.1529  0.1257
 8171W        W24245  18.657   7.683   0.072 -0.0162  0.3441  0.2003
 8172W        W24246   6.275  13.956   1.331  0.0895  0.1496 -0.2846
 8173W        W24247   4.260  18.840  10.586 -0.0006 -0.1070  0.2427
 8174W        W24248  19.236   8.414   2.604  0.3851 -0.0597  0.4548
 8175W        W24249   3.426   8.752  11.731 -0.0460 -0.4744 -0.1355
 8176W        W24250  16.296  18.580  14.288  0.0030  0.2100 -0.0666
 8177W        W24251  17.273  17.964   5.259 -0.1001 -0.0505  0.3723
 8178W        W24252   8.390   6.367   2.185 -0.2813 -0.1460  0.1719
 8179W        W24253   7.522  14.550  14.973  0.0133  0.2146 -0.2371
 8180W        W24254  17.709  14.371  14.898  0.1505 -0.2251  0.2576
 8181W        W24255  16.839  15.552   3.481 -0.0585 -0.1245  0.1472
 8182W        W24256  19.318  14.327   1.952  0.3440  0.0136 -0.2930
 8183W        W24257   4.263  15.571  12.224 -0.2811 -0.1621 -0.3100
 8184W        W24258  17.172  14.463  14.241  0.0780 -0.2735  0.1219
 8185W        W24259   3.209   3.527  12.919  0.2455  0.0459  0.1037
 8186W        W24260  14.770   2.397  14.548 -0.1003  0.1034  0.2626
 8187W        W24261  11.899   3.620  12.930 -0.0057  0.0117  0.0588
 8188W        W24262  16.269   0.691  12.396 -0.1118  0.1587 -0.5537
 8189W        W24263   2.297   5.503  11.248 -0.0556 -0.0342  0.0555
 8190W        W24264  11.480   6.114   2.633  0.0074 -0.4467 -0.2056
 8191W        W24265  13.206   4.850   1.032  0.1160  0.1305  0.3458
 8192W        W24266   1.034   9.662  11.355  0.0493 -0.0601  0.0087
 8193W        W24267   0.631  15.077   2.116 -0.2111 -0.2655 -0.3244
 8194W        W24268   3.128   7.354  13.655  0.4296  0.2440  0.0975
 8195W        W24269  18.950   1.815  12.344  0.2927  0.0036  0.0769
 8196W        W24270   3.581   3.731  14.882  0.2494 -0.1461  0.1675
 8197W        W24271  18.039  15.553   2.230  0.1343 -0.1862  0.0773
 8198W        W24272  17.090  18.915  12.242  0.0124  0.1800  0.2576
 8199W        W24273   3.535   0.827  11.857 -0.1091 -0.2222  0.5430
 8200W        W24274  13.457   4.349  12.352 -0.0966  0.1732 -0.2178
 8201W        W24275   3.872   3.234   1.288 -0.1030 -0.1045 -0.4343
 8202W        W24276  18.256   9.115   4.977 -0.1703 -0.0818 -0.1259
 8203W        W24277  16.501   0.013  13.377  0.1511  0.1782 -0.0868
 8204W        W24278   2.497  17.939  13.525  0.0001 -0.1133  0.4163
 8205W        W24279   4.299  12.643   4.414  0.2326  0.2190  0.1533
 8206W        W24280  11.341   4.162  13.753  0.0647 -0.0392 -0.0514
 8207W        W24281   8.226   6.616  13.379 -0.1249 -0.5547  0.3435
 8208W        W24282   6.076  16.973   1.641 -0.1137 -0.1983  0.3826
 8209W        W24283   8.126   6.532   3.983 -0.1084  0.1799  0.3172
 8210W        W24284  13.738  10.493   2.579 -0.0677  0.0269 -0.0184
 8211W        W24285   5.826  10.431   1.328 -0.1673  0.1992 -0.1727
 8212W        W24286   0.050   8.853  14.953 -0.1041  0.0092 -0.0540
 8213W        W24287  15.031  12.625   0.503  0.0267 -0.2473  0.2808
 8214W        W24288  13.239   4.323   3.105 -0.3349 -0.2457 -0.0804
 8215W        W24289   3.765   0.083   3.019  0.0024 -0.0848  0.1289
 8216W        W24290   7.852   3.769   3.904 -0.0273 -0.1062  0.0246
 8217W        W24291   0.846  10.075   0.979  0.0150 -0.0811 -0.1143
 8218W        W24292   3.041  11.308   4.455  0.1116  0.1623 -0.2711
 8219W        W24293   9.465   4.693  13.237 -0.1715 -0.3599 -0.0388
 8220W        W24294  12.785   7.650   1.333  0.0659 -0.3138 -0.3219
 8221W        W24295  10.928   2.124  10.948 -0.1263 -0.1634  0.0166
 8222W        W24296  14.915  13.542   0.866  0.1939  0.0131 -0.1281
 8223W        W24297  13.116   0.017   2.823 -0.2172 -0.1548 -0.5271
 8224W        W24298   8.410   3.744  13.170 -0.2981  0.2657  0.1660
 8225W        W24299   6.858   6.490   2.914 -0.2698  0.0120  0.4161
 8226W        W24300  17.417  18.893   0.577  0.1717 -0.2191  0.1220
 8227W        W24301  13.769   4.521  13.606 -0.1589 -0.1065  0.2280
 8228W        W24302   0.452   9.451   4.131  0.1992 -0.1518 -0.0006
 8229W        W24303  17.458   3.457   0.440 -0.0017  0.1373 -0.2325
 8230W        W24304  15.038   6.332  14.002 -0.0420  0.1095  0.1363
 8231W        W24305   8.053  11.800   3.665  0.1601 -0.3565 -0.0941
 8232W        W24306  11.967  16.382  14.312  0.1038  0.0811 -0.1576
 8233W        W24307  13.440  11.132  13.713  0.2853  0.0118  0.0313
 8234W        W24308   8.474   8.546   3.657 -0.1408  0.1645 -0.0381
 8235W        W24309   3.425  18.924  10.938 -0.1097  0.1367 -0.2466
 8236W        W24310   1.733   1.892   5.528 -0.2080  0.6201 -0.1218
 8237W        W24311  18.328  12.884   4.921 -0.0121 -0.2290 -0.0654
 8238W        W24312  16.453   7.968  12.721 -0.0913  0.2012  0.1195
 8239W        W24313   1.666   8.494  11.468 -0.1499 -0.1751 -0.1179
 8240W        W24314  17.060   7.474  13.103  0.1602  0.0801 -0.0869
 8241W        W24315   9.545   9.629  14.947 -0.2298  0.0257  0.0084
 8242W        W24316   6.291   6.834  13.326  0.0427 -0.1730  0.2807
 8243W        W24317   6.057  10.527   0.140  0.0347 -0.1024  0.0937
 8244W        W24318   2.968   2.328   2.965  0.1484 -0.1256 -0.2271
 8245W        W24319  15.198   6.324  10.525  0.0315  0.0474  0.1001
 8246W        W24320  17.481   5.490   4.270  0.0308  0.2231 -0.1516
 8247W        W24321  15.173   8.635  12.634 -0.0142  0.2279 -0.1135
 8248W        W24322  10.006  13.350  10.596  0.0882 -0.1878 -0.1064
 8249W        W24323  12.981   1.626   1.196 -0.0473  0.1840 -0.4694
 8250W        W24324   4.205   3.765   9.894 -0.0538  0.1616  0.1123
 8251W        W24325   4.366   6.223  13.194 -0.1224 -0.2489 -0.4502
 8252W        W24326   9.791  11.021   1.394  0.0378  0.0490 -0.1665
 8253W        W24327   1.423   7.340   5.736  0.0735 -0.3916  0.0308
 8254W        W24328  16.018  18.849  10.656  0.0632  0.0649  0.0190
 8255W        W24329  17.725  17.950   3.492  0.0132 -0.1362 -0.0224
 8256W        W24330  12.251  16.704   3.559  0.0472 -0.0070  0.0909
 8257W        W24331  15.002  13.200   3.956 -0.1737  0.2181  0.5332
 8258W        W24332   3.093   3.888   1.060 -0.2360 -0.0256  0.1782
 8259W        W24333  11.796   7.886  13.213  0.0246 -0.5815  0.3531
 8260W        W24334   2.907  18.102   0.813  0.0115  0.0005  0.0929
 8261W        W24335  11.057   1.009   0.126  0.0135  0.2461  0.2142
 8262W        W24336  18.818   1.548  13.335 -0.0609 -0.2921 -0.0355
 8263W        W24337   7.656   3.830   3.187 -0.2933  0.0552  0.3265
 8264W        W24338  10.290  13.380  13.412  0.0375 -0.0547 -0.0454
 8265W        W24339  18.874   7.183   1.447  0.1196  0.1280 -0.3136
 8266W        W24340   6.084  15.889   0.611  0.0048  0.1139  0.1183
 8267W        W24341   0.908  11.040   3.145  0.1748 -0.2245  0.4203
 8268W        W24342   5.919  17.128  10.304 -0.0160 -0.1530  0.2073
 8269W        W24343  12.399   0.272   3.764  0.0807 -0.0366  0.0206
 8270W        W24344   7.798  10.824   2.025 -0.1550 -0.1711  0.4263
 8271W        W24345  10.341   8.885   0.429  0.3869 -0.2621  0.2551
 8272W        W24346  10.486   3.249   0.536  0.1858 -0.1540 -0.2192
 8273W        W24347  12.969   7.887  11.255 -0.5175  0.1347  0.1638
 8274W        W24348  18.710   0.878   1.663  0.1982  0.0485 -0.0480
 8275W        W24349  13.394   1.259   3.372 -0.2878  0.0420  0.1164
 8276W        W24350   7.309  19.105  12.326  0.1462 -0.2479 -0.0677
 8277W        W24351  10.050   6.073   2.947 -0.2941 -0.2500 -0.4379
 8278W        W24352  13.056  11.002  14.552  0.0213 -0.1434  0.4095
 8279W        W24353   3.554   6.841   5.083  0.0247  0.1777 -0.1995
 8280W        W24354  16.548  11.594   3.337 -0.3267  0.1662 -0.0731
 8281W        W24355  15.234   0.781  10.876  0.3351 -0.0544  0.0536
 8282W        W24356   8.368   6.272   4.309 -0.0067 -0.0963  0.0630
 8283W        W24357   5.402  15.820  10.807 -0.0732  0.2028  0.0081
 8284W        W24358   0.064  15.232  11.926 -0.1496 -0.1888  0.0294
 8285W        W24359   5.578  10.476   3.858  0.0370 -0.2372 -0.2149
 8286W        W24360  18.323   2.564  12.105 -0.0739 -0.0688  0.1178
 8287W        W24361  13.314   1.410  12.194 -0.0589  0.1225 -0.0175
 8288W        W24362   6.973   9.435  12.491  0.1240 -0.1860  0.0690
 8289W        W24363  10.432   2.115  12.698  0.0383  0.1759  0.2175
 8290W        W24364   8.879  11.412  13.165 -0.1618 -0.0764 -0.2113
 8291W        W24365   5.938  10.714   4.118  0.3968  0.1154 -0.1193
 8292W        W24366  16.053   1.167  12.974 -0.2396  0.1163 -0.0861
 8293W        W24367   4.259   2.443   0.345  0.0714 -0.1202 -0.0680
 8294W        W24368   9.798   2.176   0.891 -0.0809  0.0104  0.2074
 8295W        W24369   4.690   7.449  12.026  0.2175 -0.1759 -0.3296
 8296W        W24370  16.483  11.460   2.385 -0.0058  0.2033 -0.0833
 8297W        W24371  16.402  17.135   3.159  0.2005  0.0065  0.2141
 8298W        W24372  13.727   3.378  10.513 -0.0421  0.2519 -0.1669
 8299W        W24373   2.230  15.335   3.832  0.0367 -0.0551  0.1349
 8300W        W24374  15.628   0.203   4.349  0.2400 -0.0010  0.1273
 8301W        W24375  16.819  15.535   5.578  0.3274 -0.1274 -0.1390
 8302W        W24376   6.649   2.336  11.311  0.1358 -0.0563  0.1185
 8303W        W24377  14.354  13.777  10.701  0.0785 -0.1206 -0.1988
 8304W        W24378   6.068  14.266  13.518 -0.2017 -0.1990  0.0132
 8305W        W24379  18.990   9.799   0.201 -0.1866  0.0283  0.3887
 8306W        W24380   0.495  13.601  11.930 -0.0214 -0.0140  0.0475
 8307W        W24381  15.235  14.170  13.373  0.1302  0.2089  0.1641
 8308W        W24382   7.814  15.745   2.390  0.1285  0.2527  0.0676
 8309W        W24383  13.768   9.560  14.588 -0.3082 -0.3546 -0.0304
 8310W        W24384   2.905  17.507  10.506  0.1289  0.0892  0.3774
 8311W        W24385  16.088   0.670  11.866 -0.3336 -0.0635 -0.1557
 8312W        W24386  14.454   1.296   2.495 -0.1115 -0.2576 -0.3726
 8313W        W24387  16.781  16.362   0.714 -0.2323  0.2051 -0.1985
 8314W        W24388   7.767  12.597   2.730  0.3953 -0.0021  0.0116
 8315W        W24389  14.074  10.940   0.401 -0.4467 -0.2861 -0.0881
 8316W        W24390  14.134   6.669  13.634  0.0471  0.1992  0.4593
 8317W        W24391   8.110  11.222  10.757 -0.0026 -0.0531  0.1933
 8318W        W24392  14.309   1.466   4.947 -0.0293  0.0202 -0.0028
 8319W        W24393  16.594  12.506  12.402 -0.2374  0.1461 -0.1579
 8320W        W24394  10.328  11.403   3.725 -0.1969 -0.0316  0.3566
 8321W        W24395   3.517  19.242   8.809  0.3730 -0.4852 -0.0330
 8322W        W24396   5.687  12.442   3.279 -0.2479  0.1720 -0.3181
 8323W        W24397  11.053  18.013  14.236  0.0667  0.0725 -0.1055
 8324W        W24398  18.811   9.618  11.741  0.1537 -0.0144  0.1925
 8325W        W24399   4.541   7.847   0.559 -0.0536  0.0354 -0.0598
 8326W        W24400   1.696  16.769   9.626  0.0663 -0.4220  0.1147
 8327W        W24401  12.216  17.162  10.758 -0.3524 -0.3116 -0.1263
 8328W        W24402   9.642   9.117   2.677  0.2365  0.3745  0.0641
 8329W        W24403   6.106  18.654   2.456 -0.1892  0.0668  0.2303
 8330W        W24404  15.001  12.637   4.049 -0.1836 -0.0548 -0.0677
 8331W        W24405   1.841   4.613  11.945 -0.2729  0.0554 -0.0579
 8332W        W24406  19.301  10.896   0.773 -0.2025 -0.2265 -0.2811
 8333W        W24407  10.866  12.104   4.254  0.0294  0.0318  0.0894
 8334W        W24408  15.682   8.584  11.200 -0.0700  0.2086  0.0873
 8335W        W24409  13.777  17.748   3.827 -0.2184 -0.0230 -0.0666
 8336W        W24410   5.880   1.026  13.556 -0.1522  0.0818  0.0274
 8337W        W24411   2.384   0.103   1.213  0.1223 -0.0557  0.2172
 8338W        W24412  14.340  12.462   1.192 -0.4444 -0.0817  0.0411
 8339W        W24413  19.081   6.753  13.476  0.2162 -0.2169 -0.2753
 8340W        W24414  15.870  16.649   1.921  0.0759  0.2805  0.0008
 8341W        W24415   1.451   5.425  14.472 -0.2626 -0.0918 -0.3958
 8342W        W24416   2.236  11.688   4.173 -0.1616  0.2171  0.3794
 8343W        W24417  19.131   3.821   2.235 -0.1621  0.1404 -0.2553
 8344W        W24418  10.563   1.531   1.653 -0.2168  0.2928  0.1293
 8345W        W24419   8.564   1.273  10.036 -0.0201  0.0527 -0.1322
 8346W        W24420  10.023   2.832  14.344 -0.1182 -0.0312  0.0468
 8347W        W24421   7.838   4.557  12.136  0.5373 -0.1806  0.0278
 8348W        W24422   1.867   6.521   2.983  0.1651  0.0311  0.1214
 8349W        W24423  16.848   0.808  12.497 -0.2071  0.0777 -0.1448
 8350W        W24424   9.256   1.054  14.534 -0.1795  0.1833 -0.4680
 8351W        W24425   7.330  16.114  11.687  0.1196  0.0313 -0.0768
 8352W        W24426   9.082  10.976  12.961 -0.4001 -0.2259 -0.2637
 8353W        W24427   2.815   4.461  14.052 -0.0472  0.0369 -0.1953
 8354W        W24428   5.750  13.435  13.944 -0.2750 -0.0008  0.3580
 8355W        W24429   6.977   4.295   0.007  0.0486 -0.0066  0.1481
 8356W        W24430  12.251  17.505   4.332 -0.0596  0.1012 -0.0703
 8357W        W24431  10.329  13.465   2.705 -0.0032 -0.0558 -0.0443
 8358W        W24432   4.405   6.358  11.353  0.0739 -0.2064  0.3705
 8359W        W24433   1.724   4.923   2.356  0.3082  0.3262 -0.0158
 8360W        W24434   6.465  18.318  11.261  0.0744 -0.3495 -0.0819
 8361W        W24435  10.539   8.453   0.727 -0.0863 -0.1088  0.1547
 8362W        W24436   6.227   8.228  13.903  0.0432  0.3714 -0.2847
 8363W        W24437   2.926  15.146   0.198  0.2415  0.1350 -0.1334
 8364W        W24438  18.501   9.641  12.746 -0.1629 -0.2666 -0.1963
 8365W        W24439   7.092   4.812   0.756  0.2987  0.0366 -0.0429
 8366W        W24440  14.460  15.214   4.764  0.0658  0.1312 -0.1063
 8367W        W24441   5.688  12.965  14.768 -0.0986  0.1708  0.1688
 8368W        W24442  17.825  18.329   0.916  0.2935 -0.1946  0.2501
 8369W        W24443   2.386  13.587   3.324  0.1680 -0.0195  0.0615
 8370W        W24444  18.598  17.270   2.887 -0.4435 -0.5338  0.2727
 8371W        W24445   5.028  13.730   3.913 -0.1568 -0.2284  0.1839
 8372W        W24446  16.525   4.353   1.562  0.0753 -0.3627 -0.1044
 8373W        W24447  14.415  13.401   1.536 -0.0424  0.0688  0.1123
 8374W        W24448   1.900   2.220   4.528  0.1003 -0.0889  0.1443
 8375W        W24449  18.854  18.654  12.818  0.1358  0.0248 -0.0009
 8376W        W24450   5.946  13.570   3.507  0.5741  0.1260  0.1577
 8377W        W24451   6.804  14.059   2.612  0.0077 -0.1261 -0.0112
 8378W        W24452   9.067  18.504   4.657 -0.1245  0.2139  0.2083
 8379W        W24453  16.475   3.447  12.405 -0.0705 -0.1837 -0.2792
 8380W        W24454   0.640   8.447  14.139 -0.2817 -0.2936  0.1776
 8381W        W24455   1.657   6.120   4.269  0.0821  0.1714  0.0794
 8382W        W24456  17.517   4.558   2.477  0.1289 -0.0766  0.0326
 8383W        W24457   5.423   5.183   0.745 -0.0758 -0.0764  0.0480
 8384W        W24458  14.935   0.596  13.894  0.0142 -0.0437  0.0110
 8385W        W24459  11.814   2.544   2.029  0.5050  0.2148 -0.1900
 8386W        W24460   3.752   4.279  12.628  0.0744  0.2116 -0.0935
 8387W        W24461  12.572   0.385  12.329  0.1103 -0.1630  0.0263
 8388W        W24462  16.160   5.066   5.512 -0.0180 -0.1136 -0.1176
 8389W        W24463  16.707   2.088  12.869  0.1853  0.2993 -0.2740
 8390W        W24464   6.534   9.322  12.783 -0.1883  0.0544  0.0305
 8391W        W24465   6.659   1.991  14.437  0.2465  0.1332 -0.0413
 8392W        W24466  12.024   6.387  10.884  0.2712  0.1175  0.2040
 8393W        W24467  17.545  12.269   6.006  0.1629 -0.2247 -0.1546
 8394W        W24468   6.208   7.255   2.115  0.0810 -0.0941  0.0510
 8395W        W24469  15.059   1.712   1.441 -0.1347  0.1443 -0.0145
 8396W        W24470   4.033  19.052  14.935  0.0376  0.3032 -0.0732
 8397W        W24471  13.978   2.006   1.256  0.2752 -0.2358 -0.1671
 8398W        W24472  17.524  18.340  11.365 -0.1386 -0.1896 -0.2192
 8399W        W24473   8.163   6.597  14.978  0.2135  0.1657  0.1412
 8400W        W24474   8.891   4.769  12.845 -0.0879  0.0952  0.0061
 8401W        W24475  10.121  16.614  11.165  0.0019  0.4714 -0.2182
 8402W        W24476  19.038  13.298  12.949  0.3077  0.0904  0.3674
 8403W        W24477  13.784  14.235   3.430  0.0343  0.1007  0.1421
 8404W        W24478  17.358   2.678  12.801 -0.1837  0.2102  0.0391
 8405W        W24479   3.277   0.876  10.398 -0.2386  0.0400 -0.0065
 8406W        W24480  16.895  13.764  13.312 -0.3572 -0.0427 -0.0749
 8407W        W24481   7.461  12.392  14.459 -0.3574 -0.1378  0.0583
 8408W        W24482   6.285   1.846   3.525 -0.0045  0.2638  0.2753
 8409W        W24483   8.618   5.130  14.425  0.1514 -0.3101 -0.1278
 8410W        W24484   9.348   7.858  13.807 -0.3542 -0.0476  0.1707
 8411W        W24485  14.464   7.867  10.557  0.1344 -0.1733 -0.4742
 8412W        W24486   2.795   3.575   1.300  0.0941 -0.0936  0.1304
 8413W        W24487   0.160  10.600  14.068 -0.2688  0.0914  0.0527
 8414W        W24488   9.254  18.513   0.746 -0.1563  0.1402 -0.1106
 8415W        W24489  14.814   4.971   1.416  0.0029 -0.2120 -0.2572
 8416W        W24490   8.290  13.050   0.400  0.1108 -0.2913 -0.3413
 8417W        W24491  19.092   6.182   3.233 -0.0241 -0.0115 -0.0017
 8418W        W24492   0.246  10.038  10.482  0.0246  0.1142  0.0747
 8419W        W24493   6.387   7.942   2.189  0.2121 -0.2630 -0.0428
 8420W        W24494   5.376   1.068   2.901  0.0313 -0.0267 -0.0208
 8421W        W24495   0.661   1.698   1.843 -0.0793 -0.1637  0.0732
 8422W        W24496   5.819   7.855  11.457  0.0277 -0.2219  0.1486
 8423W        W24497  18.557   3.130  11.592  0.6738 -0.4997 -0.0800
 8424W        W24498   1.205  10.959   1.386  0.1648 -0.3507  0.0809
 8425W        W24499   0.053   1.847  12.207 -0.1839 -0.1333 -0.0625
 8426W        W24500  18.664  15.753  11.996 -0.0370 -0.3304  0.1605
 8427W        W24501   6.135  19.134   2.178 -0.1810 -0.1168 -0.1286
 8428W        W24502  16.951   5.426   3.377 -0.0345 -0.2501 -0.0767
 8429W        W24503   0.466   0.365  14.859  0.2564  0.0113 -0.4096
 8430W        W24504   5.291  14.977  10.609 -0.0190 -0.0596  0.0817
 8431W        W24505   8.251  10.817   1.799 -0.1989 -0.1128 -0.0792
 8432W        W24506  10.336   8.377  12.804  0.2429  0.0910 -0.0801
 8433W        W24507   7.227   3.317   2.714 -0.0887  0.0776 -0.2099
 8434W        W24508   0.138  12.709  13.979  0.0287  0.1156  0.0652
 8435W        W24509  18.123   2.841   2.425  0.1566 -0.3040 -0.1282
 8436W        W24510   1.568  17.760   1.254  0.2761  0.0613 -0.0698
 8437W        W24511  18.356   5.671  12.901  0.2014 -0.2409 -0.1270
 8438W        W24512   5.274   1.894   3.190 -0.0232  0.1978  0.1477
 8439W        W24513  16.695   2.360  12.225 -0.2238  0.1026  0.1450
 8440W        W24514   5.864   8.918  14.733  0.1544  0.3218  0.1457
 8441W        W24515  13.394  17.289   2.150 -0.0604  0.0802 -0.0626
 8442W        W24516  12.573  12.976  13.936 -0.0594  0.0300 -0.0707
 8443W        W24517   6.830  12.459   3.192  0.1631 -0.0793 -0.1495
 8444W        W24518   5.161   7.720  14.505  0.0101 -0.2308  0.3450
 8445W        W24519  15.744   8.015   4.929 -0.1140  0.0237 -0.0063
 8446W        W24520  11.912  12.300  14.607  0.0222  0.1186 -0.0927
 8447W        W24521   4.093   9.285  12.030 -0.1506  0.1248  0.2628
 8448W        W24522  18.111   9.269  12.965  0.1288 -0.0719 -0.1861
 8449W        W24523  12.562  14.301  13.845  0.1218 -0.3829  0.3692
 8450W        W24524   0.887   3.961   2.923  0.2323  0.1693 -0.0997
 8451W        W24525  18.899  19.132  14.064  0.1920 -0.1082 -0.0284
 8452W        W24526  19.189   2.493   0.808 -0.0736  0.0993 -0.2935
 8453W        W24527  16.401  16.445  13.923  0.1583  0.0551  0.2036
 8454W        W24528  13.860  15.670  14.950  0.0739  0.1932  0.0573
 8455W        W24529   8.632  12.318   2.000  0.0842 -0.2829 -0.0565
 8456W        W24530   5.191  10.093  13.760 -0.1764 -0.5153 -0.2019
 8457W        W24531   9.468   7.199   4.020  0.0288 -0.0778  0.2778
 8458W        W24532  14.554  17.146   2.947  0.2093 -0.3320 -0.0952
 8459W        W24533   8.181   8.202   2.837 -0.0765 -0.2275  0.0841
 8460W        W24534   6.900   5.915  13.118 -0.0096 -0.1519 -0.1102
 8461W        W24535   0.808   1.952  13.063 -0.0083 -0.2229  0.1320
 8462W        W24536   9.690   8.812   3.868  0.1548  0.2007 -0.0245
 8463W        W24537  17.688   4.234  14.823  0.1060 -0.0553 -0.1971
 8464W        W24538   2.444   1.013   4.134  0.1083 -0.1332  0.2965
 8465W        W24539   7.936   0.736  13.671 -0.0411  0.1433 -0.0054
 8466W        W24540   0.220  11.866   4.113 -0.0053  0.0414 -0.0236
 8467W        W24541  16.563  17.954  14.967  0.3833 -0.0740  0.4004
 8468W        W24542  13.484   5.621  14.461  0.0844 -0.1018 -0.2375
 8469W        W24543   4.338  11.253  14.134 -0.5609 -0.2491 -0.0701
 8470W        W24544   3.742   5.632  11.767 -0.0643  0.0604  0.0781
 8471W        W24545  18.022  16.970  10.619 -0.2132 -0.1952  0.2253
 8472W        W24546   3.192  11.249  10.668  0.0793  0.0324  0.1300
 8473W        W24547   8.031   5.415  14.171 -0.0464  0.2495 -0.0994
 8474W        W24548   6.069   4.468   0.420  0.0520  0.0809 -0.4042
 8475W        W24549   5.067   1.449   4.787 -0.0710 -0.0760  0.0110
 8476W        W24550  11.843   7.302   4.006  0.2864 -0.0036 -0.3060
 8477W        W24551   5.982   3.629   4.004 -0.3382  0.3066 -0.2143
 8478W        W24552   2.080   0.376   1.540  0.0232  0.0162  0.0205
 8479W        W24553  10.710  18.934   9.857  0.0674 -0.4160 -0.1188
 8480W        W24554   5.309   1.199  11.083 -0.5074 -0.2746  0.2786
 8481W        W24555   2.452   5.196  11.611  0.1001  0.2490 -0.1086
 8482W        W24556   0.239  15.556   3.579  0.2426  0.1861  0.1175
 8483W        W24557  13.010   5.828  10.675 -0.2149  0.0252  0.1720
 8484W        W24558  11.015   7.194   4.236 -0.3432 -0.0989 -0.0229
 8485W        W24559   0.224   0.310   1.644 -0.2730 -0.0196 -0.2481
 8486W        W24560  11.580  11.394   4.382  0.4195  0.0017 -0.3712
 8487W        W24561  13.919  16.396  10.330 -0.2864  0.0724 -0.1995
 8488W        W24562  11.405   1.958  12.793  0.5196 -0.0174  0.2817
 8489W        W24563  11.684  14.806  14.496 -0.0737 -0.1329 -0.1914
 8490W        W24564   5.645   2.606   2.690 -0.4695 -0.3377 -0.1205
 8491W        W24565  16.118  14.547  13.497 -0.4218  0.4122  0.1193
 8492W        W24566   7.658  14.056   0.752 -0.3385 -0.1407  0.2558
 8493W        W24567   1.407   5.116   5.772  0.1256 -0.2611 -0.3424
 8494W        W24568   8.480   9.098  13.259  0.0260  0.1875  0.0817
 8495W        W24569   2.767  10.726   2.901  0.2297 -0.2639 -0.0130
 8496W        W24570  15.187  15.540   3.766 -0.1375 -0.0878 -0.3319
 8497W        W24571  10.166  16.434   2.078  0.2636 -0.0024  0.0349
 8498W        W24572  12.375  16.972  11.592  0.0644 -0.2412  0.1258
 8499W        W24573  13.107   0.914  12.173 -0.0137 -0.2730 -0.1684
 8500W        W24574  10.416   2.467   5.217 -0.0783  0.0860 -0.1234
 8501W        W24575   5.867  13.774  13.491 -0.0869 -0.1851  0.0700
 8502W        W24576   3.100  17.879   3.055  0.2908  0.1013  0.0062
 8503W        W24577  18.950  13.371   0.071  0.0286 -0.3409  0.1660
 8504W        W24578   9.660  11.344  12.481  0.1503  0.1512  0.1938
 8505W        W24579  19.132  12.507   2.568  0.2625  0.1708 -0.1655
 8506W        W24580   2.343   2.966  10.592  0.0025 -0.1110  0.0245
 8507W        W24581   7.751  11.366   3.545  0.0180  0.2743 -0.0154
 8508W        W24582   0.197   5.143  13.461 -0.0605  0.3564 -0.2825
 8509W        W24583   8.167  13.580  12.619  0.2639  0.1110  0.3311
 8510W        W24584  15.880  14.830  13.058  0.4348 -0.3857 -0.0224
 8511W        W24585  15.013   3.198   1.566  0.0710 -0.0342 -0.1853
 8512W        W24586  14.579   6.579   0.725  0.1710  0.0686  0.1185
 8513W        W24587   5.579   9.709  13.704 -0.1796  0.1725 -0.1172
 8514W        W24588   2.703   7.842  13.502  0.1401 -0.0196  0.0922
 8515W        W24589   8.968  12.246  10.948  0.0351 -0.3246 -0.0419
 8516W        W24590   2.271  13.952  11.360  0.2018 -0.0366  0.3712
 8517W        W24591   7.526  10.667  10.148  0.3830 -0.2757  0.3626
 8518W        W24592  12.231  17.975  14.860 -0.0264  0.1415  0.3323
 8519W        W24593  17.629  19.317   0.742 -0.2409  0.2337 -0.1236
 8520W        W24594  13.644   9.242   3.043  0.0546 -0.2626  0.2666
 8521W        W24595  10.169  12.948  14.533 -0.2487  0.1573 -0.0377
 8522W        W24596  13.128  16.723   1.090 -0.1742  0.2230  0.1861
 8523W        W24597   9.554  10.599   3.704  0.3857 -0.1883  0.1779
 8524W        W24598   9.900  16.005   3.963  0.2390  0.4052  0.2873
 8525W        W24599   2.835  11.827  10.712  0.2511  0.2333  0.2215
 8526W        W24600  10.195  10.680   2.403  0.0856 -0.0128 -0.0951
 8527W        W24601  19.193  13.198  11.827  0.0851 -0.0705  0.1806
 8528W        W24602   2.169  16.374  12.497  0.1254 -0.2602  0.1036
 8529W        W24603  18.461   3.622   1.321 -0.3022 -0.3495 -0.0702
 8530W        W24604  18.588  18.602   2.622  0.0778  0.2658 -0.1624
 8531W        W24605   1.961  12.620   4.487  0.0105 -0.1415 -0.0896
 8532W        W24606  10.673  18.294  12.275  0.0009 -0.3782  0.2439
 8533W        W24607  11.413   0.157   2.123  0.1422  0.2856 -0.2157
 8534W        W24608  16.651  15.199  14.605  0.1227  0.2215 -0.2039
 8535W        W24609   5.145  18.763   4.267 -0.0738  0.1051 -0.1536
 8536W        W24610  13.859  12.542  10.664 -0.1890 -0.2377  0.1376
 8537W        W24611  13.314   7.986   4.700  0.1321 -0.1616 -0.1320
 8538W        W24612  14.805   4.259   0.086  0.3505  0.2855 -0.0626
 8539W        W24613   1.791   1.666   9.742  0.1883  0.0388  0.1747
 8540W        W24614   3.721   4.939  10.472  0.3220 -0.0079  0.1190
 8541W        W24615   8.132   1.594   3.000 -0.0232 -0.0326  0.0942
 8542W        W24616   9.635  11.979   2.714 -0.1680 -0.0421 -0.1135
 8543W        W24617   4.468   8.666   2.200  0.2159 -0.4132  0.3041
 8544W        W24618   3.954   2.657   0.851 -0.1564  0.1548 -0.5703
 8545W        W24619   7.035   7.992  10.831  0.1482 -0.2179 -0.3446
 8546W        W24620   4.536   1.717  11.081  0.0511  0.2238 -0.1470
 8547W        W24621  12.399   6.760   2.273 -0.0499  0.2358  0.1706
 8548W        W24622  18.909  12.649   5.007 -0.3883 -0.5115 -0.2597
 8549W        W24623  11.937  14.985   3.656  0.0739 -0.1296 -0.2054
 8550W        W24624  13.182   8.549   1.671 -0.0893  0.0661  0.0115
 8551W        W24625   9.299   5.771  14.820  0.0160 -0.1961 -0.1920
 8552W        W24626  13.085   6.457  14.651  0.1774 -0.1550 -0.3789
 8553W        W24627   0.143   9.643  14.362  0.1524  0.0521 -0.1414
 8554W        W24628  15.077   8.018  14.219 -0.0538  0.0250 -0.1195
 8555W        W24629   7.354   1.541   4.503  0.1569 -0.1389  0.0646
 8556W        W24630  14.558   0.905  13.949  0.2300 -0.2457 -0.0949
 8557W        W24631   1.597   6.131  11.017  0.1359 -0.0581  0.1231
 8558W        W24632   2.714  19.207  13.501  0.1762  0.0717 -0.0073
 8559W        W24633  16.015  13.980   3.817 -0.0156  0.1608 -0.2023
 8560W        W24634  16.633   0.426  13.109  0.0477  0.2127  0.1093
 8561W        W24635   5.891   9.184   2.056 -0.0579  0.2369  0.4980
 8562W        W24636   2.805  13.918   0.913  0.3693 -0.2652 -0.1236
 8563W        W24637   9.145  12.502  13.216  0.3117  0.2762 -0.1505
 8564W        W24638   0.250  12.335   4.386  0.0296 -0.2620  0.0764
 8565W        W24639  14.625  19.327   2.164 -0.2878 -0.1010 -0.1838
 8566W        W24640  16.430  16.113  13.427  0.2316 -0.2412  0.1736
 8567W        W24641   3.480  10.504   4.278 -0.0479 -0.1688  0.2667
 8568W        W24642  17.276  16.976  13.956  0.0288 -0.0764 -0.2596
 8569W        W24643  12.601  19.196   5.733 -0.0188 -0.2278  0.0878
 8570W        W24644  10.456   8.979   2.543 -0.1239 -0.1269 -0.1653
 8571W        W24645   6.959   8.120  14.622  0.0544  0.0838  0.1584
 8572W        W24646  15.457  11.713   3.334 -0.3012  0.0283 -0.2941
 8573W        W24647   3.225  12.164  10.954  0.1871  0.0597 -0.0458
 8574W        W24648  18.493  19.305   1.591  0.2801 -0.1640 -0.0911
 8575W        W24649  11.902   0.536   2.964 -0.2307  0.3950 -0.2205
 8576W        W24650   9.409   0.619   3.586  0.0629 -0.1835  0.1480
 8577W        W24651  12.593  11.339   1.819  0.2230  0.2698 -0.5266
 8578W        W24652   0.346  15.972   4.994 -0.2622  0.0068 -0.2282
 8579W        W24653   3.199   7.729  13.298  0.2733 -0.2489  0.2314
 8580W        W24654  16.944   8.690   5.290 -0.0368  0.1242 -0.1197
 8581W        W24655  14.918   9.470  10.884 -0.2779  0.3353 -0.1375
 8582W        W24656   2.430   2.525  14.546 -0.2290 -0.0756  0.1998
 8583W        W24657   4.065   0.628   3.954  0.1741  0.1852 -0.0679
 8584W        W24658   8.694  12.480   2.822  0.2441 -0.4914  0.2886
 8585W        W24659  15.068  16.527   2.014 -0.0576  0.2792 -0.1739
 8586W        W24660  16.263  13.272   0.427  0.0856  0.0559 -0.2171
 8587W        W24661   6.870  14.577  10.890  0.1883  0.2002  0.2054
 8588W        W24662  16.125  18.267  14.754  0.0813  0.1724 -0.1239
 8589W        W24663   8.134  14.294  14.355  0.0222 -0.0920  0.2598
 8590W        W24664  13.338  13.594   3.929 -0.1053 -0.0140  0.3402
 8591W        W24665   9.464  14.813  11.141  0.2349 -0.2822  0.1441
 8592W        W24666   7.703   3.407  11.882  0.1003 -0.2745 -0.2622
 8593W        W24667   1.683  18.445   2.693 -0.0913  0.0244  0.0380
 8594W        W24668   5.517   7.800  14.118  0.1691 -0.1568  0.0725
 8595W        W24669  15.544   6.582  13.897  0.0845  0.0999 -0.0363
 8596W        W24670   2.329   7.390   4.290  0.2259 -0.0644  0.1222
 8597W        W24671   8.982   0.516   0.770 -0.1545 -0.4498 -0.1076
 8598W        W24672   8.696  12.078  14.326  0.2433 -0.1279 -0.6105
 8599W        W24673   8.288  16.264   4.408 -0.1156 -0.1871  0.0391
 8600W        W24674   8.536   4.766   4.550 -0.0147 -0.0650 -0.0495
 8601W        W24675  12.958   4.931  14.479  0.5642  0.0366 -0.1061
 8602W        W24676  14.101   4.848   1.205  0.2858  0.2457  0.0391
 8603W        W24677  14.402   5.774  14.736  0.0607 -0.2255  0.1964
 8604W        W24678  18.197  18.147   0.084 -0.1808  0.2228  0.2803
 8605W        W24679  13.928  14.221   9.640 -0.3214  0.1379 -0.1459
 8606W        W24680  18.946  19.279  10.631  0.3566 -0.1891 -0.0053
 8607W        W24681  11.274   7.592   5.124  0.0480 -0.0915  0.3113
 8608W        W24682   6.864   3.146   0.198  0.0090  0.2428 -0.0751
 8609W        W24683   8.405  18.149   3.841  0.0521  0.1037 -0.0596
 8610W        W24684   5.131  11.703   1.181  0.0159 -0.3054 -0.1319
 8611W        W24685   6.562  19.323   2.039  0.1585  0.0119  0.0152
 8612W        W24686   9.717  11.730   3.198  0.2278 -0.1293 -0.1653
 8613W        W24687  13.577  11.720   1.274 -0.0849 -0.0217 -0.1653
 8614W        W24688  18.860   6.675   3.172  0.0480  0.1134  0.2488
 8615W        W24689   4.717  18.665   3.103  0.4635  0.2456 -0.1584
 8616W        W24690   0.763   7.570   4.910 -0.1930  0.2247  0.0512
 8617W        W24691  12.655  14.825   4.488 -0.2956  0.1637 -0.0800
 8618W        W24692  10.607   1.918   1.088  0.0528  0.0306 -0.1930
 8619W        W24693  17.628  13.669   4.284 -0.0617  0.1019 -0.2125
 8620W        W24694   9.864   1.618  14.900 -0.3613  0.0891 -0.2447
 8621W        W24695   3.619  17.089  10.516  0.5883 -0.1807  0.1359
 8622W        W24696   6.745  15.340   0.927  0.0427 -0.2192  0.1303
 8623W        W24697   2.263   7.592   0.529  0.0756 -0.1457 -0.0571
 8624W        W24698   8.438   9.331   2.987  0.3569  0.0804  0.0813
 8625W        W24699  17.212   0.843   4.391 -0.0953  0.0807 -0.4370
 8626W        W24700  18.712  12.203  14.994 -0.3975 -0.2152  0.3087
 8627W        W24701  16.146   0.321   2.601  0.1128 -0.0597 -0.0578
 8628W        W24702  18.893   0.953  14.873 -0.0741 -0.1728 -0.3304
 8629W        W24703   3.592  18.398  13.558 -0.2184 -0.0314  0.2815
 8630W        W24704   2.385   9.476   4.662  0.2062  0.1467 -0.0855
 8631W        W24705   7.146  11.780   2.108  0.1588 -0.3383 -0.1841
 8632W        W24706  12.767   5.885   3.767  0.1180  0.1893 -0.2213
 8633W        W24707  11.571   2.425  13.246 -0.1714  0.3505 -0.4509
 8634W        W24708  10.309  14.747  11.224  0.1941 -0.0898 -0.3242
 8635W        W24709  19.101  12.445   5.829 -0.0971 -0.2148 -0.4805
 8636W        W24710   6.356   1.502   2.829 -0.0171  0.2294  0.2101
 8637W        W24711   4.629   2.648  11.346  0.1528  0.2786  0.2378
 8638W        W24712  17.327  11.994  14.629 -0.4322 -0.2216 -0.2282
 8639W        W24713   3.274  15.273  14.185 -0.0965 -0.5454 -0.0192
 8640W        W24714   7.916  15.706  14.913  0.2915  0.2652  0.1509
 8641W        W24715   2.511   7.743   0.026 -0.0215  0.2912 -0.0082
 8642W        W24716  11.241  16.728  10.901 -0.1378  0.0537 -0.3906
 8643W        W24717  15.157   8.102   5.498 -0.1458 -0.0834 -0.1713
 8644W        W24718  14.090   5.637   2.423  0.3285  0.2577 -0.1060
 8645W        W24719   1.930  14.915   3.402  0.2425  0.3664  0.1389
 8646W        W24720   9.995   2.874   3.798  0.1607  0.1129  0.1749
 8647W        W24721  15.652  18.258   4.976 -0.0974 -0.3369 -0.0308
 8648W        W24722  18.557   2.168   4.010  0.2272 -0.2676 -0.2638
 8649W        W24723  12.065   0.828  11.944  0.0374  0.0033 -0.2376
 8650W        W24724   8.899  16.133  14.457 -0.2766 -0.0939  0.0912
 8651W        W24725  13.384   2.727  14.443  0.1214  0.1070  0.0306
 8652W        W24726  18.848  16.799   4.569 -0.1038 -0.0518  0.1430
 8653W        W24727  11.542  16.155   1.445 -0.0501 -0.1266  0.1316
 8654W        W24728  12.241  19.102  11.887  0.3007  0.1767 -0.1095
 8655W        W24729  13.516  15.008   0.579 -0.0718 -0.0279  0.2633
 8656W        W24730  15.519  10.327   2.393 -0.1140 -0.1797 -0.0543
 8657W        W24731  12.771  18.811   3.207 -0.0553 -0.0684 -0.1116
 8658W        W24732   0.918   0.737  11.547 -0.2256 -0.3321  0.0713
 8659W        W24733   6.048  17.590   2.224 -0.1327  0.1345  0.0847
 8660W        W24734   3.412  16.748  10.921  0.3356  0.1991 -0.1351
 8661W        W24735  13.274   7.182  12.513  0.1313  0.1895 -0.1805
 8662W        W24736   3.662  12.773   2.431  0.0056  0.0687 -0.2017
 8663W        W24737  11.946   9.849  14.810 -0.3005 -0.1369  0.1780
 8664W        W24738  10.647  12.532  14.366 -0.0888 -0.2595 -0.0984
 8665W        W24739  15.761   3.969   2.583  0.3403 -0.2542  0.2834
 8666W        W24740  10.934   5.520  14.077  0.1736 -0.1302  0.0582
 8667W        W24741   2.168   4.059   4.294 -0.1507  0.1068  0.0703
 8668W        W24742   2.957   2.568   0.113 -0.1825 -0.0161 -0.3576
 8669W        W24743   4.597  18.202  13.470  0.1444 -0.1565  0.1999
 8670W        W24744   0.006  18.649   0.132 -0.1634  0.0370 -0.0147
 8671W        W24745  10.302  16.557   4.473  0.2058  0.0118 -0.0801
 8672W        W24746   3.782  13.614   3.649  0.0003 -0.0935  0.1569
 8673W        W24747   1.164  14.107  11.147  0.1297  0.1753 -0.1068
 8674W        W24748  10.585  11.218  11.252 -0.2030 -0.5034 -0.2414
 8675W        W24749   9.541  10.384   1.604 -0.3567  0.0450  0.3282
 8676W        W24750   9.706  12.567   3.498 -0.3445  0.0435 -0.3196
 8677W        W24751  13.669   6.590   9.680  0.5313 -0.2999  0.2338
 8678W        W24752   5.080  12.447   2.367 -0.2834  0.2093  0.0566
 8679W        W24753   6.135   4.321   3.052  0.0156  0.1319 -0.0815
 8680W        W24754   2.660   9.212   3.161  0.3395  0.2530 -0.1363
 8681W        W24755   1.437  16.169   3.767  0.3608  0.0545  0.0986
 8682W        W24756   8.101   7.944   2.427 -0.1866  0.2947 -0.1058
 8683W        W24757  16.879  12.640   0.178 -0.0591  0.1856  0.1859
 8684W        W24758   0.221  16.481   3.441 -0.3239 -0.2195 -0.1262
 8685W        W24759  12.131  11.823  11.587  0.2225 -0.0740 -0.2045
 8686W        W24760  19.145   8.592   1.338 -0.0016 -0.2202  0.1002
 8687W        W24761  16.642  11.064   2.171 -0.2823 -0.0908  0.1483
 8688W        W24762   4.531  12.827   1.847  0.1430 -0.2043  0.1423
 8689W        W24763   7.482   7.964   5.595 -0.0062  0.1188  0.0398
 8690W        W24764  14.253  17.900   2.985 -0.0127 -0.0374 -0.1453
 8691W        W24765  11.287   9.522  11.672  0.2475 -0.1060  0.1640
 8692W        W24766   1.215   9.198  14.382  0.0692 -0.0681  0.0884
 8693W        W24767   0.940   7.624  14.890  0.0281  0.2811  0.1159
 8694W        W24768   0.184  14.652  12.784 -0.3546  0.0115  0.2024
 8695W        W24769   7.480  11.153   3.110  0.2514  0.0793 -0.3238
 8696W        W24770  17.851  16.590  11.761 -0.4128  0.1332  0.0740
 8697W        W24771  14.834   8.548   1.736 -0.0143 -0.0655  0.0947
 8698W        W24772   9.034   5.449   3.393  0.0084 -0.1246  0.0521
 8699W        W24773  15.269   8.944   0.702  0.0148 -0.3337  0.1546
 8700W        W24774   7.740  10.081   3.708  0.2157 -0.2569 -0.1004
 8701W        W24775  15.510   1.195   2.309  0.1593 -0.1087  0.1408
 8702W        W24776   9.093   7.385  12.678  0.1398 -0.2023 -0.0351
 8703W        W24777   2.274   4.364  13.912  0.0343  0.1128 -0.2419
 8704W        W24778  10.959  10.332   2.627  0.1707  0.0299  0.1602
 8705W        W24779  19.005   2.878  12.698  0.1497 -0.1046 -0.1364
 8706W        W24780  12.817   7.973   0.379  0.2832 -0.4255  0.0120
 8707W        W24781   5.982  10.622  13.642  0.3152 -0.0187 -0.1038
 8708W        W24782   8.892  13.775   9.502  0.2237  0.0657  0.1009
 8709W        W24783  12.602  17.731   2.125  0.3992 -0.1296 -0.1188
 8710W        W24784   1.682  13.239   2.863  0.2587 -0.0632 -0.0280
 8711W        W24785   3.260  15.672  11.930  0.0993 -0.1355  0.2167
 8712W        W24786  17.751  18.809   4.490 -0.0707  0.1122 -0.0062
 8713W        W24787   0.760  19.121   4.976  0.0378  0.2538 -0.1304
 8714W        W24788  16.018  17.394  11.699 -0.0489 -0.1761  0.2192
 8715W        W24789   5.624  15.704  12.998 -0.1033  0.0558 -0.0242
 8716W        W24790  13.840   9.299  12.861 -0.0811 -0.0921  0.1604
 8717W        W24791   4.788   5.693   0.010  0.0043  0.1591  0.3103
 8718W        W24792   9.837   6.448  14.186 -0.0297 -0.1450  0.1329
 8719W        W24793   4.404   1.985   3.602 -0.0515 -0.0711 -0.0041
 8720W        W24794   4.572   1.064   3.219  0.0723 -0.2750  0.3563
 8721W        W24795   5.299   9.685  10.517 -0.0823  0.3150  0.2743
 8722W        W24796   7.998  14.155  11.497  0.2225 -0.0064 -0.0233
 8723W        W24797  16.024   9.136   5.366  0.2295 -0.2620  0.1491
 8724W        W24798  14.887   8.618  14.818 -0.0949  0.2831  0.4644
 8725W        W24799  13.659   2.628  11.295  0.2495 -0.4088 -0.0027
 8726W        W24800   4.356   0.178   1.391 -0.1010  0.2231 -0.0651
 8727W        W24801  14.326   5.133   2.272 -0.1085  0.1295 -0.3116
 8728W        W24802  17.752   3.802   3.470  0.0924 -0.0010 -0.1515
 8729W        W24803   9.527   4.258  11.252  0.0373 -0.1695 -0.1402
 8730W        W24804   7.428  15.515  14.995 -0.0404  0.0680 -0.0809
 8731W        W24805   1.214  17.917   3.356 -0.0342  0.2130 -0.1446
 8732W        W24806   5.410   9.196   0.385 -0.0299  0.0442 -0.0181
 8733W        W24807  12.279   1.307   4.178  0.1488  0.2247  0.0692
 8734W        W24808  14.722  13.184   1.163  0.0169 -0.1643  0.1054
 8735W        W24809  10.319  13.803   1.381  0.0696  0.0058 -0.0894
 8736W        W24810   3.799  16.126   4.213 -0.0120  0.2492 -0.0857
 8737W        W24811   8.747  16.124  14.976 -0.4567 -0.0590  0.1289
 8738W        W24812  12.264   2.414   0.509 -0.3558  0.1133 -0.0466
 8739W        W24813   6.775   0.969   0.080 -0.0735 -0.3303 -0.5344
 8740W        W24814   9.761  13.153   3.286 -0.0018 -0.2320  0.1689
 8741W        W24815   9.535  18.393   2.115  0.2030 -0.0541  0.1191
 8742W        W24816   8.898  13.823   1.813 -0.0324 -0.0552  0.0784
 8743W        W24817  11.258  13.209   5.329  0.1285  0.4218  0.0998
 8744W        W24818  17.852  13.751  12.175 -0.0663  0.1455  0.0790
 8745W        W24819   2.164   5.335   3.173  0.0704  0.0887  0.0801
 8746W        W24820  18.263   0.868   1.493 -0.0077  0.0257  0.1872
 8747W        W24821  11.835  13.483   0.910  0.0196  0.2140  0.3572
 8748W        W24822  17.185   8.247  11.755 -0.0462  0.4024 -0.0705
 8749W        W24823  14.853  10.155   0.376 -0.2896 -0.1886  0.2373
 8750W        W24824   1.575   8.370  14.320 -0.1728 -0.3062 -0.0930
 8751W        W24825   3.566   5.754   5.846  0.0135  0.1590  0.2961
 8752W        W24826  12.321  17.834  14.293  0.0093 -0.2168 -0.1531
 8753W        W24827  10.085  14.790   4.650  0.1945  0.2925  0.3841
 8754W        W24828  13.607  12.136   1.787  0.0087  0.0927 -0.0058
 8755W        W24829  13.054  17.486  10.294  0.1847 -0.1422 -0.1098
 8756W        W24830  13.087   2.354   0.465 -0.1623  0.0860 -0.1156
 8757W        W24831  17.596   5.486  11.733  0.0164 -0.0239 -0.0584
 8758W        W24832   2.669   3.678  13.129 -0.0052  0.1670 -0.1794
 8759W        W24833  12.813   0.955   2.235 -0.1225 -0.1848  0.2606
 8760W        W24834  18.441  13.534  11.395 -0.1906 -0.0658  0.0191
 8761W        W24835   2.017   3.739   3.470 -0.2632  0.2026 -0.2843
 8762W        W24836   1.645   6.261   3.676 -0.1965 -0.1362  0.1095
 8763W        W24837  15.345  12.608  13.648  0.3488  0.0225 -0.0595
 8764W        W24838   5.574   3.229  11.406 -0.0917  0.1851  0.0370
 8765W        W24839  14.741  16.307   2.654  0.1025 -0.0027 -0.0462
 8766W        W24840   1.213   6.455  13.417  0.1755  0.0627  0.0315
 8767W        W24841   6.541  11.493  12.681  0.1111  0.1817 -0.2534
 8768W        W24842  14.860   7.798  12.689 -0.1659  0.1577  0.2336
 8769W        W24843  15.405  12.900   4.444  0.1645 -0.2304 -0.1995
 8770W        W24844  14.918   1.803   0.906  0.1801 -0.3592  0.2513
 8771W        W24845  17.916   8.558  10.840 -0.0889  0.0439 -0.0177
 8772W        W24846  16.866  13.009   3.194  0.1061  0.0276 -0.2675
 8773W        W24847   6.340   5.394  13.683 -0.0185  0.1359  0.3192
 8774W        W24848  13.690  15.914   3.124  0.2737 -0.1190  0.3451
 8775W        W24849   1.029   9.725   5.762  0.2346 -0.1067 -0.4095
 8776W        W24850  13.536   6.295   4.060  0.1097  0.2622 -0.1622
 8777W        W24851   9.007   9.920   4.380 -0.1478 -0.0187 -0.1648
 8778W        W24852  17.346   9.492   5.060 -0.3100  0.2830 -0.1132
 8779W        W24853  14.742   2.082   4.557 -0.0283 -0.0114 -0.0489
 8780W        W24854   5.566  13.956   3.553  0.2786  0.1193  0.2089
 8781W        W24855  11.853   6.187   2.125 -0.2655 -0.3817  0.0553
 8782W        W24856  17.282  14.829  10.757  0.0504 -0.4362  0.1040
 8783W        W24857   9.380  11.482   9.705  0.1141 -0.2624  0.1645
 8784W        W24858   3.969   5.931   0.334  0.0155 -0.0373 -0.2824
 8785W        W24859   1.606  18.990   4.669  0.0816 -0.0714 -0.3047
 8786W        W24860   8.702   8.187   4.007  0.1234 -0.0905  0.0955
 8787W        W24861  10.550  12.056   2.030 -0.0915  0.1035 -0.1815
 8788W        W24862  15.562  15.517   3.451  0.0256 -0.0032  0.0477
 8789W        W24863   9.494   3.950   1.142  0.3056 -0.0916  0.0666
 8790W        W24864  18.882   6.594  13.937  0.0609  0.0616 -0.1098
 8791W        W24865   7.958  11.006   4.777  0.0142  0.0152 -0.2197
 8792W        W24866   3.757  10.887  14.779 -0.0451 -0.1368 -0.0877
 8793W        W24867   2.940  13.471   3.706 -0.4114 -0.0033  0.2513
 8794W        W24868   2.187  10.679  14.468  0.3436  0.1804  0.2010
 8795W        W24869  14.698   2.046   9.473 -0.2596 -0.2266  0.1079
 8796W        W24870  16.807   8.705  12.907 -0.1439 -0.0009  0.2590
 8797W        W24871   7.647   7.696   4.660  0.0966 -0.0431 -0.2408
 8798W        W24872  19.222  13.490  13.570  0.0055  0.0290 -0.1313
 8799W        W24873   9.450  19.036  13.031 -0.2568  0.1374 -0.1002
 8800W        W24874  13.086   3.444  13.768  0.0706  0.1656 -0.5221
 8801W        W24875   7.390  12.275   2.432 -0.4036 -0.2616  0.0522
 8802W        W24876   4.656   7.942   1.036 -0.1200 -0.4816 -0.0139
 8803W        W24877  14.143   9.399  11.831 -0.0920 -0.1326  0.0346
 8804W        W24878  15.777   5.834   3.720  0.0517  0.2600 -0.1394
 8805W        W24879  16.659   1.861  10.528 -0.1523 -0.5238 -0.0112
 8806W        W24880   6.853  11.517  11.767  0.1750  0.0159 -0.1271
 8807W        W24881  16.756  11.294   3.666 -0.0956 -0.1856  0.4505
 8808W        W24882   6.203   9.352   3.939  0.2919 -0.3631  0.0828
 8809W        W24883   6.895  16.799   4.120  0.0087 -0.1837  0.0783
 8810W        W24884  17.438   7.392   3.198 -0.0589 -0.1382 -0.1153
 8811W        W24885  15.488   8.567   2.418 -0.2789 -0.3170  0.2201
 8812W        W24886   5.388  13.408   3.486 -0.3499 -0.0948 -0.0017
 8813W        W24887  12.727   3.568  14.210  0.2118  0.1253  0.1189
 8814W        W24888   7.086   6.126  14.507 -0.0990  0.2970 -0.0991
 8815W        W24889   1.604   6.663   2.434  0.3493  0.0212  0.0876
 8816W        W24890  16.533   2.304   0.889 -0.2974  0.1220  0.1507
 8817W        W24891   3.822   8.252   4.172  0.1147 -0.0466 -0.0135
 8818W        W24892   9.832  10.755   2.800  0.1752  0.0594  0.4250
 8819W        W24893   5.699  17.042   1.895  0.0253  0.0733 -0.0985
 8820W        W24894  14.028   1.071  13.803  0.1982  0.1834 -0.0147
 8821W        W24895  13.649  17.113   4.503  0.2640  0.2027 -0.0497
 8822W        W24896   6.440   9.886  14.355  0.0163 -0.4713  0.2930
 8823W        W24897   3.107   1.569   5.327  0.1612 -0.1118  0.2616
 8824W        W24898  10.680   9.292   2.204 -0.0568 -0.1526  0.1094
 8825W        W24899  16.551  17.813   0.436 -0.0771  0.0791  0.1069
 8826W        W24900  16.984  16.322  12.187  0.1188 -0.5839 -0.1575
 8827W        W24901  18.580  18.200   3.006 -0.3279 -0.2712  0.0417
 8828W        W24902   5.628   4.212  10.345  0.0000 -0.0022 -0.2616
 8829W        W24903  16.855  10.164  11.880  0.2508 -0.3983  0.4461
 8830W        W24904   5.093  10.153   0.228 -0.0010 -0.1066 -0.2285
 8831W        W24905  17.923  10.605  10.921 -0.0928  0.0253 -0.0755
 8832W        W24906  13.252  18.763   0.034 -0.0819 -0.0586  0.0150
 8833W        W24907  11.015  11.986  10.740 -0.1206  0.0386 -0.2282
 8834W        W24908   5.579  15.153  13.007 -0.1067  0.0995 -0.2082
 8835W        W24909  16.730   8.024  14.312 -0.0050 -0.2907 -0.1665
 8836W        W24910  16.315   8.343   1.845 -0.1769  0.2549 -0.1511
 8837W        W24911   4.197  13.682  10.654  0.0765 -0.1234  0.0309
 8838W        W24912  14.919  15.272   4.902 -0.1142 -0.0138 -0.4013
 8839W        W24913  13.647   3.126   4.225  0.4425 -0.3858  0.0495
 8840W        W24914   9.352   7.679   4.132  0.0191 -0.0011 -0.1133
 8841W        W24915  10.325  12.415  14.674  0.1862  0.1296 -0.0829
 8842W        W24916   3.648   4.152   4.835  0.0865  0.1455  0.1498
 8843W        W24917  17.015  13.562  11.754 -0.0902 -0.1195 -0.1650
 8844W        W24918   9.679   3.276   2.295 -0.4942  0.0069 -0.1628
 8845W        W24919   8.912   0.612  14.275  0.1965  0.1261 -0.1948
 8846W        W24920  16.887   5.853   4.602 -0.2348 -0.1250 -0.4384
 8847W        W24921   4.290   0.608  13.643  0.1330  0.0790 -0.1462
 8848W        W24922   6.464   1.700   0.740  0.2743 -0.0723 -0.0879
 8849W        W24923  14.917  13.609   4.820  0.0122 -0.0781 -0.0463
 8850W        W24924  12.710   2.905   5.124  0.0188  0.0664  0.1770
 8851W        W24925  15.448   8.421   3.436 -0.4433  0.0422 -0.0885
 8852W        W24926   3.636  19.109   5.101 -0.3882  0.0138 -0.2820
 8853W        W24927  10.628  12.089   1.127 -0.4084 -0.1644  0.1893
 8854W        W24928   5.588  17.957  14.267  0.2839  0.1802  0.1524
 8855W        W24929   6.281  14.295   1.738 -0.4510 -0.1423  0.0106
 8856W        W24930  12.237   1.832   1.899  0.2664  0.0691 -0.2540
 8857W        W24931  10.008  16.108  10.903  0.0405  0.3342 -0.0477
 8858W        W24932  16.068   6.718   2.242  0.2940 -0.0236 -0.1763
 8859W        W24933   5.198   3.723  10.182 -0.2249 -0.0269 -0.1548
 8860W        W24934   7.517  14.093  13.130  0.4786  0.0208  0.0717
 8861W        W24935  14.810   1.053  10.181  0.2365 -0.0945  0.5247
 8862W        W24936   7.913   4.252  11.536 -0.0746 -0.2683  0.2483
 8863W        W24937  17.470   5.323  13.613 -0.0996 -0.1501 -0.0054
 8864W        W24938  18.013   4.642  11.225 -0.2281 -0.2027  0.1514
 8865W        W24939   3.072   1.364   9.709  0.1122  0.1216 -0.0288
 8866W        W24940  17.539  10.737  12.614  0.1303  0.0975 -0.0251
 8867W        W24941  16.040   4.065   1.566  0.2247 -0.0116  0.0404
 8868W        W24942  11.250  17.130  12.506 -0.1568  0.3198 -0.2269
 8869W        W24943   2.520   8.696   2.402 -0.2831  0.1402  0.1033
 8870W        W24944  11.376  14.408   4.863 -0.3594 -0.0368  0.1906
 8871W        W24945  19.028   1.138   2.053  0.1766  0.1643 -0.0023
 8872W        W24946  18.366   6.901   3.209 -0.2310 -0.0137  0.2385
 8873W        W24947  15.912  13.096  13.886  0.0615 -0.1375  0.0741
 8874W        W24948  14.466  15.569   0.625  0.3058 -0.0302 -0.1610
 8875W        W24949  16.591   2.991   2.626  0.2243  0.0718 -0.2218
 8876W        W24950   1.763  10.914  14.742  0.1797  0.1370 -0.1931
 8877W        W24951   6.146   1.447  11.147  0.2617  0.0264  0.3003
 8878W        W24952  11.923  16.179   1.147  0.0912 -0.2015  0.1097
 8879W        W24953   6.037  16.199   3.307  0.0532  0.2046  0.0428
 8880W        W24954  13.245  15.654  12.450  0.2349 -0.1068 -0.1985
 8881W        W24955   0.921  15.938   1.104  0.2602  0.0691 -0.3917
 8882W        W24956   5.827  11.543   5.434  0.0696 -0.1032  0.1638
 8883W        W24957   8.829   6.963  12.474 -0.2850 -0.1167  0.0903
 8884W        W24958   2.530  17.771  12.605 -0.2252 -0.1350 -0.1547
 8885W        W24959  12.313  14.218  11.743  0.1148  0.0591  0.0110
 8886W        W24960   7.073  14.621   0.304  0.0701 -0.0791  0.0076
 8887W        W24961  10.948  12.632   9.971  0.0185 -0.0224 -0.0096
 8888W        W24962  18.355   9.628   3.122 -0.0685 -0.0710 -0.1196
 8889W        W24963  12.055  14.685  11.194  0.0715  0.0896  0.3042
 8890W        W24964  14.669   6.940  12.839 -0.1107  0.0275  0.2786
 8891W        W24965  16.305   6.500   2.998 -0.1353 -0.4116  0.1614
 8892W        W24966   1.991  15.716   2.983  0.5566  0.2232  0.0215
 8893W        W24967  11.059  10.316  13.093  0.1391  0.3397  0.3288
 8894W        W24968  17.384  13.278  11.657  0.1793  0.0237  0.0044
 8895W        W24969   2.124   1.760  13.657 -0.1223 -0.1646 -0.3978
 8896W        W24970  15.666   3.145  11.884  0.3872 -0.1016  0.1331
 8897W        W24971   7.321  15.950  13.784  0.1288 -0.0651 -0.4952
 8898W        W24972   2.929   4.489   2.786  0.1270 -0.0674 -0.0283
 8899W        W24973   7.967   3.692  11.359  0.5630 -0.0107  0.1591
 8900W        W24974  10.392  10.687  14.050  0.1498 -0.3283 -0.2023
 8901W        W24975  17.805  15.184   2.805  0.2403 -0.1092 -0.5779
 8902W        W24976   0.891   1.540  12.687  0.1925 -0.2468  0.0421
 8903W        W24977  10.478  16.032  12.721 -0.1620  0.0736  0.0617
 8904W        W24978   0.617  12.417  13.684  0.0378  0.1078  0.0422
 8905W        W24979   5.702  17.019   3.495  0.2004 -0.0036 -0.1914
 8906W        W24980  18.509  11.015   5.044  0.1437  0.0058 -0.0401
 8907W        W24981  15.339  13.755  10.943  0.2128 -0.0881 -0.3751
 8908W        W24982  15.126  12.026  14.724  0.5012  0.1918  0.1302
 8909W        W24983   3.578  16.574  10.442  0.0695 -0.2257 -0.0754
 8910W        W24984  18.507   5.322   0.561  0.3134 -0.1141 -0.0689
 8911W        W24985   9.804  16.553  10.753 -0.1949  0.0406  0.1066
 8912W        W24986  17.789  16.188  14.140  0.1733  0.0153  0.0109
 8913W        W24987  10.779   5.911   1.099  0.1791  0.0008  0.0008
 8914W        W24988  10.793  12.056  12.785  0.1440  0.2203  0.1790
 8915W        W24989  13.222   5.904   0.866 -0.3021  0.2589  0.2042
 8916W        W24990  16.339  17.158   4.247  0.4052  0.4049  0.0607
 8917W        W24991   1.055  11.378   4.973 -0.0499  0.0763  0.4603
 8918W        W24992  19.302   4.103  11.498  0.0072  0.1607  0.1251
 8919W        W24993   2.331  10.767   0.578  0.2582  0.2075 -0.1813
 8920W        W24994  14.012   7.471   3.013 -0.0244  0.0696 -0.1519
 8921W        W24995  12.515  17.385   1.724  0.0452  0.0115  0.0940
 8922W        W24996   9.667   1.492   3.594  0.3084  0.2015 -0.1946
 8923W        W24997   2.815  18.308  10.636  0.1933 -0.1316 -0.0408
 8924W        W24998  16.854   2.538   4.146  0.3540 -0.0133 -0.3709
 8925W        W24999   9.836   3.195  11.926  0.0022 -0.1376  0.0023
 8926W        W25000   8.909   5.695  11.488  0.1334  0.3154 -0.1027
 8927W        W25001  13.170  10.141   3.529  0.0939  0.1860  0.3831
 8928W        W25002  17.019   4.322  11.730 -0.1252 -0.2402  0.0112
 8929W        W25003  19.128  12.368   0.606  0.1773 -0.2164 -0.0275
 8930W        W25004   5.165   0.722  11.191 -0.0668 -0.0146  0.1137
 8931W        W25005  17.957  10.420   1.228  0.2607 -0.1320  0.0966
 8932W        W25006  14.098  19.298  11.824 -0.2065 -0.2346 -0.3386
 8933W        W25007  16.455  14.992   3.572 -0.3750  0.1294 -0.3851
 8934W        W25008   5.024  10.112   5.625  0.2498 -0.0614  0.0590
 8935W        W25009  14.798  14.007  10.975  0.0857 -0.2250 -0.1923
 8936W        W25010  12.071  13.783  13.322  0.2413  0.0103 -0.0243
 8937W        W25011   0.165  18.906  13.305 -0.2254 -0.1600  0.0827
 8938W        W25012  14.092   4.416   5.092  0.0660  0.1015 -0.1451
 8939W        W25013  10.972   8.166   1.254  0.1131 -0.0128  0.2124
 8940W        W25014  17.118   8.132   3.881 -0.1048 -0.1954  0.1869
 8941W        W25015  16.389  19.190   1.799 -0.0903 -0.3104  0.1179
 8942W        W25016   7.762  14.643   5.176  0.0398 -0.2358  0.0195
 8943W        W25017  17.591  12.648   4.370  0.0112 -0.4509 -0.0800
 8944W        W25018   6.137   7.063  10.962  0.0053 -0.2018 -0.2232
 8945W        W25019   0.660  12.209   4.687 -0.1250  0.0632 -0.2771
 8946W        W25020  15.417   1.165  13.350 -0.2381  0.1460  0.0612
 8947W        W25021   4.431   1.007  13.855 -0.1486 -0.2384  0.0562
 8948W        W25022  17.561  13.742  11.763  0.3175  0.2559 -0.1443
 8949W        W25023  15.064   8.809  10.521 -0.4529 -0.1388  0.0458
 8950W        W25024  10.339   3.789   4.201 -0.0563  0.1238  0.0357
 8951W        W25025  19.225   6.131   1.874  0.0397  0.1227 -0.3350
 8952W        W25026  15.229  10.950  11.060  0.1947  0.3504  0.0056
 8953W        W25027  15.445   5.611   0.719 -0.0899  0.1033 -0.0993
 8954W        W25028  18.090   6.910  12.454 -0.2085 -0.1406 -0.1836
 8955W        W25029   8.736  18.931   3.917  0.0211 -0.1857 -0.1755
 8956W        W25030   6.565   6.852   1.520 -0.1033 -0.1316 -0.0539
 8957W        W25031  13.684  10.550  12.607 -0.0285 -0.4495  0.2792
 8958W        W25032   1.476   9.797   3.301  0.1266  0.3474 -0.1649
 8959W        W25033  12.980   5.641  13.830 -0.2289  0.3155 -0.0929
 8960W        W25034   5.134  10.607   5.561  0.0425  0.0772  0.1202
 8961W        W25035  13.818   0.029   4.240 -0.2221  0.0117  0.1900
 8962W        W25036   6.421  12.382   2.783 -0.0612 -0.1883 -0.0306
 8963W        W25037  19.174  17.260  14.892 -0.2798 -0.0473  0.2922
 8964W        W25038  17.522  16.474  12.150  0.2223 -0.0577  0.1160
 8965W        W25039  15.752   5.023   2.851 -0.1430 -0.2730  0.1909
 8966W        W25040   5.451   1.743   2.373  0.2780 -0.0133 -0.0185
 8967W        W25041   8.067  16.758   0.354  0.0609  0.1604 -0.1843
 8968W        W25042   9.817  18.390  11.790  0.0484 -0.0950 -0.0703
 8969W        W25043   1.863   5.469  11.451 -0.2232 -0.1904  0.0414
 8970W        W25044  12.247  11.180  14.933 -0.1947  0.0370 -0.3379
 8971W        W25045   4.913  16.521   1.649 -0.0003  0.1079 -0.1026
 8972W        W25046   3.840   6.382   4.390  0.0388 -0.3112  0.0395
 8973W        W25047   2.993  12.364  12.290 -0.1152  0.0486 -0.1546
 8974W        W25048   3.750   3.618   4.150  0.3947 -0.1634  0.3577
 8975W        W25049   5.129   3.792  10.974 -0.3231  0.2714 -0.0000
 8976W        W25050   5.577  11.550  13.320  0.1492  0.1241 -0.2296
 8977W        W25051   6.141   7.648  11.125  0.2024  0.0586 -0.3087
 8978W        W25052  10.678   9.448  12.170 -0.1202 -0.1043 -0.1376
 8979W        W25053  15.767   6.242   5.943  0.1538  0.3269 -0.0307
 8980W        W25054  11.034  11.817  13.913  0.1294  0.2684  0.3356
 8981W        W25055   4.405  18.505   0.625  0.1370 -0.0683  0.1592
 8982W        W25056   1.141   0.324  12.372  0.0559  0.1623  0.0500
 8983W        W25057   1.638   7.495  11.512  0.1084 -0.1551 -0.0592
 8984W        W25058   7.319  16.312   2.509  0.1740  0.1972  0.1788
 8985W        W25059   2.289   3.323  13.984 -0.0119 -0.1534  0.0293
 8986W        W25060   0.152   1.734   5.061  0.0552  0.1513 -0.0734
 8987W        W25061   8.139   9.658   3.249 -0.1790  0.1962 -0.2762
 8988W        W25062  15.108   5.971  11.685  0.1989  0.1632 -0.2573
 8989W        W25063  11.846  11.811  12.182  0.2997  0.2222  0.5610
 8990W        W25064   9.409  14.279  13.902  0.4223 -0.2249 -0.0128
 8991W        W25065  16.987   7.668   0.996  0.1835  0.2695  0.1828
 8992W        W25066  19.197  13.307   2.085 -0.1628 -0.2444  0.4483
 8993W        W25067  17.692   9.234  12.659  0.2403 -0.1833 -0.2337
 8994W        W25068   2.488   9.205  13.060  0.0130  0.1825  0.0638
 8995W        W25069   5.543   8.769   0.260  0.2077 -0.2579 -0.3336
 8996W        W25070  15.904  14.212   4.278 -0.0154 -0.1573 -0.2672
 8997W        W25071  16.089   9.312   1.468  0.0967  0.2846 -0.1211
 8998W        W25072   7.132   1.396   0.358  0.1926 -0.4735  0.2365
 8999W        W25073   6.927  15.146   4.387  0.0714 -0.1348 -0.1767
 9000W        W25074   2.269  14.490  11.383  0.4932  0.1494 -0.1373
 9001W        W25075   4.704  13.707  10.948  0.0386 -0.0787  0.2451
 9002W        W25076   1.034  14.963   4.778  0.0892 -0.1907 -0.5273
 9003W        W25077   5.246   4.624   2.369 -0.0247 -0.1959  0.0052
 9004W        W25078   3.277   1.482   0.026 -0.2603  0.3370  0.0024
 9005W        W25079  16.566   1.896  14.232 -0.3487 -0.0627  0.0967
 9006W        W25080  11.840  18.376   1.046  0.3680 -0.1917 -0.1723
 9007W        W25081  18.538  16.438   3.826  0.3911  0.0444  0.0643
 9008W        W25082   2.640  12.836   1.123  0.2695 -0.1767 -0.0804
 9009W        W25083  10.780   1.284  10.217  0.0496  0.1329  0.2215
 9010W        W25084  10.235   0.794  12.735  0.0513 -0.0363 -0.1708
 9011W        W25085   8.625  18.693  14.247  0.0480 -0.0051 -0.1669
 9012W        W25086  16.427   5.114   2.124 -0.2591  0.1748  0.0688
 9013W        W25087  16.174   9.700  14.241  0.2652 -0.2186  0.0668
 9014W        W25088  17.724   4.778   1.667  0.2329  0.1604  0.0045
 9015W        W25089  14.230   8.632  14.526 -0.0498 -0.0271 -0.2938
 9016W        W25090  12.912   1.217  13.100  0.1205  0.3616 -0.0180
 9017W        W25091   3.306  15.611   2.332 -0.2012  0.2133  0.2433
 9018W        W25092  12.448   5.386  13.049  0.0543 -0.2346  0.1802
 9019W        W25093   3.997   0.033   4.340  0.0223  0.1406  0.0701
 9020W        W25094   5.544  13.666   2.550 -0.0454  0.0313 -0.1483
 9021W        W25095  11.471  16.069  10.534 -0.2156 -0.1541 -0.3052
 9022W        W25096  16.833  17.153  12.089 -0.2126 -0.2185  0.3233
 9023W        W25097   0.098   8.479  12.040  0.4311  0.1280  0.2397
 9024W        W25098   6.675   5.822   3.281  0.0193  0.1956  0.2869
 9025W        W25099   0.111   8.788  14.324 -0.2510  0.2447  0.0588
 9026W        W25100   9.923   6.125   4.643 -0.1780 -0.1380 -0.0455
 9027W        W25101   1.937   5.107  11.077  0.0278 -0.2278 -0.1346
 9028W        W25102  16.370   6.253   5.249 -0.0013  0.1238 -0.2923
 9029W        W25103  10.762   3.482  11.646  0.1580  0.1867 -0.1886
 9030W        W25104  11.622  17.955   1.107 -0.2129 -0.1368  0.1638
 9031W        W25105  16.179   6.895  12.620 -0.2385 -0.1798  0.2447
 9032W        W25106  13.159  17.697   0.656 -0.0086 -0.0437 -0.1834
 9033W        W25107   0.085   1.145  10.219  0.1958 -0.1459 -0.1640
 9034W        W25108   0.027  16.361   4.049  0.0680 -0.2568 -0.1750
 9035W        W25109   9.316   4.226  13.434  0.2396  0.3522 -0.1506
 9036W        W25110  11.458   6.553   1.237 -0.0988  0.0446  0.1696
 9037W        W25111   3.199   6.265  11.968 -0.0336  0.1730  0.3917
 9038W        W25112   1.199   0.918   3.703 -0.0293  0.2410 -0.2853
 9039W        W25113  16.702  10.063  10.891  0.0266 -0.1960  0.2592
 9040W        W25114   7.065  15.253  13.139 -0.3248 -0.3566 -0.0417
 9041W        W25115  18.613  12.714  11.747  0.2301 -0.0395 -0.0409
 9042W        W25116   2.826  14.753  12.844  0.0454 -0.1292 -0.0830
 9043W        W25117   3.218  15.589   5.340 -0.2402 -0.1299  0.1914
 9044W        W25118  12.642   7.273  10.487 -0.0444 -0.0881  0.1761
 9045W        W25119  14.237   1.888   5.758 -0.1708  0.2246 -0.2343
 9046W        W25120  10.980   3.373  11.072  0.0458  0.1024 -0.2186
 9047W        W25121  12.603  10.148  10.289 -0.0093  0.3532 -0.1585
 9048W        W25122  18.672  14.631   3.349  0.2488  0.2187 -0.2465
 9049W        W25123  18.024   7.282   1.211  0.0649  0.0304  0.0351
 9050W        W25124   9.549  13.333  12.107 -0.2669 -0.0906 -0.2633
 9051W        W25125   0.763   3.189  13.233  0.2220 -0.0170  0.0729
 9052W        W25126   5.666  16.363   2.992  0.1532 -0.2983 -0.2010
 9053W        W25127   1.779   9.967  11.275 -0.3557  0.1851 -0.1362
 9054W        W25128  19.123  10.237  12.824  0.2718  0.0790  0.2556
 9055W        W25129   2.681   2.945   5.085  0.0466 -0.0929 -0.4550
 9056W        W25130   3.233  13.862  13.886  0.0088 -0.2595 -0.1577
 9057W        W25131  18.540  18.157  11.906  0.1436 -0.0076  0.3880
 9058W        W25132  17.057  16.776  11.868 -0.2123  0.0131 -0.0037
 9059W        W25133   9.932  18.623   2.428 -0.0909  0.1345  0.1594
 9060W        W25134   5.623  11.950   0.433  0.2578 -0.0815  0.1365
 9061W        W25135  13.625   5.761   3.229  0.1771 -0.0607  0.0654
 9062W        W25136   1.973  15.622  14.528  0.0331  0.2140 -0.2295
 9063W        W25137   2.877  17.396  13.101  0.0280  0.0437 -0.0922
 9064W        W25138   2.148   7.549   5.169 -0.1129  0.4203 -0.0143
 9065W        W25139   2.142  10.614   1.200  0.0143  0.0362 -0.1416
 9066W        W25140   7.335  13.837  10.231  0.1687  0.0790 -0.1527
 9067W        W25141   0.392   2.387  11.436 -0.2261 -0.1208 -0.0359
 9068W        W25142   8.828  18.931  11.184 -0.0155 -0.1692 -0.2029
 9069W        W25143  13.924   3.039  14.034 -0.1847 -0.1011  0.1837
 9070W        W25144   3.968   2.818   9.381  0.2133  0.2080 -0.3123
 9071W        W25145  11.097  11.551  11.463 -0.5166  0.3188  0.0829
 9072W        W25146   3.560   1.038   4.733  0.1466 -0.0117  0.1243
 9073W        W25147  13.592   3.828  14.703  0.1129 -0.0761  0.0724
 9074W        W25148  12.365  10.615   5.726  0.1413 -0.0430 -0.0518
 9075W        W25149   7.758  17.324  12.987 -0.1903  0.2925 -0.0678
 9076W        W25150   5.561  18.487  14.045  0.0788 -0.1374  0.1835
 9077W        W25151   9.594  11.041   0.620 -0.4532 -0.3417 -0.0841
 9078W        W25152   8.876   9.279  13.495 -0.1209 -0.1077  0.1287
 9079W        W25153   6.361  17.323  13.123 -0.2228 -0.0507  0.1677
 9080W        W25154   6.009  18.726  10.009  0.0081  0.1282 -0.1696
 9081W        W25155  17.090   8.858   3.944  0.0427  0.2092 -0.2467
 9082W        W25156  13.838   3.959   1.503  0.0448 -0.1330 -0.1592
 9083W        W25157  11.303  11.470   3.849 -0.4209 -0.2767  0.3375
 9084W        W25158   7.905  10.000   0.646 -0.2937  0.0067  0.3827
 9085W        W25159   4.427  16.734   2.748  0.0525  0.1141  0.0186
 9086W        W25160  13.022   3.431   4.790 -0.1871  0.2370 -0.0689
 9087W        W25161   7.568   7.248  11.730  0.1281 -0.0746 -0.1694
 9088W        W25162   3.396  15.480  12.343  0.2803 -0.0044  0.0863
 9089W        W25163   8.811   6.176  14.327 -0.0449 -0.0583  0.1584
 9090W        W25164  16.667  15.056   4.908 -0.2384 -0.0174  0.0333
 9091W        W25165   7.841   4.863  13.511 -0.0239  0.0530 -0.1673
 9092W        W25166  14.701   9.096  14.722  0.0567  0.0262 -0.1224
 9093W        W25167  17.721   0.028  11.136  0.0415 -0.0928  0.0444
 9094W        W25168   1.106   7.415   4.107 -0.1726 -0.0105 -0.0336
 9095W        W25169   1.536  15.142   3.717 -0.1968  0.2761  0.1203
 9096W        W25170   2.668  18.448   3.799  0.0672 -0.1660  0.1438
 9097W        W25171  11.778  17.700  10.845 -0.2048  0.1428 -0.0750
 9098W        W25172   4.460  12.297  14.709 -0.0750  0.5303 -0.2404
 9099W        W25173  17.023  11.417   2.003 -0.0162  0.1897 -0.2061
 9100W        W25174   1.337   0.077   1.439 -0.0383  0.1027  0.2215
 9101W        W25175  18.683  19.055   0.738 -0.0274 -0.1361 -0.0442
 9102W        W25176  12.006  12.917  12.956 -0.0106 -0.0274 -0.2858
 9103W        W25177  17.579   3.071  11.960  0.1206 -0.1947 -0.0208
 9104W        W25178  14.307   2.334   1.078  0.1399 -0.2843  0.0666
 9105W        W25179   7.121   5.942  10.958 -0.3080 -0.0668 -0.1821
 9106W        W25180  14.346   6.843  12.256  0.0089 -0.1394  0.1188
 9107W        W25181  11.303   7.683  10.522  0.0914 -0.0496 -0.0454
 9108W        W25182  16.105  11.861   0.835  0.1385 -0.0249 -0.0406
 9109W        W25183  18.036   7.774   3.702  0.0066 -0.1670 -0.0481
 9110W        W25184  10.055   0.034  14.706  0.2185  0.0033  0.0785
 9111W        W25185  17.238  14.589   0.060  0.0615 -0.1496  0.0489
 9112W        W25186   8.422   7.430   5.062  0.1312 -0.0709 -0.0824
 9113W        W25187   5.379   5.693   1.335 -0.2205 -0.3236 -0.0200
 9114W        W25188   3.171  16.616   5.604 -0.1818  0.2048  0.0784
 9115W        W25189  16.849  13.641   5.124  0.0888 -0.0444 -0.0832
 9116W        W25190   6.693   6.464   2.394 -0.1419 -0.3305  0.1629
 9117W        W25191  13.015   4.448  12.013 -0.0079  0.1140 -0.0515
 9118W        W25192   6.063  13.195   2.868 -0.1630 -0.1515 -0.1721
 9119W        W25193  13.481   5.506  10.681 -0.0341 -0.2047 -0.1018
 9120W        W25194  18.973   2.887   1.077  0.0458 -0.0462 -0.2363
 9121W        W25195  13.988  17.855   0.487  0.1198 -0.1093  0.0937
 9122W        W25196   4.384  10.182   4.540 -0.0181 -0.0108 -0.4156
 9123W        W25197   8.823  18.217  14.692  0.2340  0.0865  0.0642
 9124W        W25198  14.287  11.224  13.845 -0.0047 -0.2303 -0.0598
 9125W        W25199   5.144  17.955   0.206 -0.2823  0.5147  0.0153
 9126W        W25200   8.323   4.453  12.257  0.1750 -0.0612 -0.2059
 9127W        W25201  17.073   1.486  10.865 -0.2033  0.1035  0.2869
 9128W        W25202   4.122  10.982   5.281  0.0156 -0.1843 -0.0315
 9129W        W25203  16.470   5.502   3.118  0.0801  0.2310 -0.3702
 9130W        W25204  16.364   2.091   2.378 -0.0269  0.0156 -0.0367
 9131W        W25205   6.756   7.102   4.640  0.0192  0.1670  0.1456
 9132W        W25206   4.116   8.630   3.998  0.1459 -0.0868  0.0446
 9133W        W25207  12.270   4.999  13.390  0.0009  0.1339  0.2491
 9134W        W25208  10.085   0.092   2.670  0.3271 -0.2410  0.0939
 9135W        W25209  17.741  19.089   2.871 -0.0739 -0.2505 -0.0739
 9136W        W25210  16.836  17.347  13.423  0.0411 -0.0592 -0.1640
 9137W        W25211   5.162  13.229   0.610  0.0410  0.2480  0.0471
 9138W        W25212   9.107   2.673   0.577 -0.0598 -0.2057  0.3220
 9139W        W25213  12.752   2.623  13.666 -0.1495 -0.0962 -0.1029
 9140W        W25214  16.584  16.757   1.586 -0.0211 -0.1353  0.0395
 9141W        W25215  19.104   9.849   2.526 -0.3883  0.0197 -0.0419
 9142W        W25216  18.316  14.451   0.542  0.2293 -0.3796 -0.3030
 9143W        W25217  13.504  11.468  12.340 -0.1712  0.1622 -0.1172
 9144W        W25218   2.539   7.390  11.146  0.0138  0.1373  0.1575
 9145W        W25219   9.508  10.309  13.996  0.0119 -0.4912 -0.0671
 9146W        W25220  14.663   5.528   2.439 -0.1525 -0.3578 -0.2439
 9147W        W25221   1.384   3.833  13.732  0.1828  0.3444 -0.6357
 9148W        W25222   6.182   3.149   3.828 -0.1806 -0.1715 -0.0098
 9149W        W25223  13.927   3.015   0.017  0.0379  0.5346  0.1741
 9150W        W25224   1.339  18.710  12.328  0.2234 -0.2121  0.1654
 9151W        W25225   2.620  10.105  12.852  0.0489  0.2978  0.3047
 9152W        W25226   8.293  15.479   3.190 -0.0482 -0.1612 -0.2355
 9153W        W25227   9.170   6.377   5.075 -0.2441  0.1235  0.0860
 9154W        W25228  15.950  18.196  14.268 -0.0100 -0.1322 -0.1259
 9155W        W25229  12.486  18.744  10.629 -0.2045 -0.3213  0.2678
 9156W        W25230  17.843  16.105   2.244  0.0392  0.0786 -0.0145
 9157W        W25231   7.390  13.548  13.040  0.0114 -0.1464 -0.3091
 9158W        W25232  18.846  11.226  12.432 -0.0773 -0.1415 -0.0706
 9159W        W25233   5.227   8.125  12.775  0.1536  0.1226  0.2586
 9160W        W25234  11.644   6.494   3.981  0.0059  0.0210  0.1333
 9161W        W25235   4.091   5.705   5.725  0.0299 -0.1473 -0.0211
 9162W        W25236  16.109  15.065   1.095  0.1808 -0.0911  0.0901
 9163W        W25237   8.889  15.514  10.990  0.4168 -0.0993  0.3243
 9164W        W25238   4.753   2.160   1.757  0.3604 -0.1023  0.3666
 9165W        W25239   0.442  16.478  11.661  0.0557  0.0178  0.3728
 9166W        W25240   4.071  10.717  11.510  0.0454 -0.0659  0.1216
 9167W        W25241   0.299  13.684   4.900 -0.1163 -0.0711 -0.0503
 9168W        W25242  12.454  11.593   4.511  0.1180 -0.0520 -0.2472
 9169W        W25243   7.746   2.969   1.216  0.0322  0.0295  0.0002
 9170W        W25244   5.832   5.964   1.188  0.2071 -0.0844  0.1245
 9171W        W25245  15.727   9.644   1.406 -0.0698 -0.0097 -0.0425
 9172W        W25246  16.455  15.304  12.599 -0.0115 -0.2324  0.0066
 9173W        W25247   8.112   7.325  12.312  0.0527 -0.1453  0.2311
 9174W        W25248  14.365   3.947   0.332  0.2310 -0.2039 -0.0844
 9175W        W25249  13.947   0.748   3.286 -0.2758 -0.4224 -0.2686
 9176W        W25250  18.989  18.404  11.955  0.2751 -0.1100 -0.0024
 9177W        W25251   2.342   1.316  13.523 -0.2806  0.2992  0.0502
 9178W        W25252   0.991  16.562   4.459 -0.2298  0.0560 -0.0525
 9179W        W25253   5.454  10.330   2.268 -0.3550  0.1041  0.5610
 9180W        W25254   4.232   0.375  11.660  0.0977 -0.1349  0.1124
 9181W        W25255   7.392  10.875  12.866  0.1661 -0.0396 -0.2204
 9182W        W25256  18.574   7.980   2.369  0.1022  0.2883 -0.2808
 9183W        W25257  10.690  14.038  10.848  0.2111  0.3101  0.2591
 9184W        W25258   1.007  12.263   1.972 -0.0009 -0.1561 -0.1075
 9185W        W25259  18.423   1.070   1.064 -0.0244  0.0934  0.1246
 9186W        W25260   2.278   6.014  12.737  0.2971  0.0207  0.3329
 9187W        W25261   8.715  16.866   0.940  0.3034 -0.0432  0.2098
 9188W        W25262   8.349   1.359   9.562  0.2470 -0.3111  0.0686
 9189W        W25263  11.687  12.606  12.012 -0.1378  0.1201 -0.1753
 9190W        W25264  15.614  18.545  10.783  0.1096 -0.1917  0.0480
 9191W        W25265  16.890   1.413   2.590  0.1404  0.0926 -0.1607
 9192W        W25266  10.807   5.233   0.539 -0.1890 -0.0156 -0.0933
 9193W        W25267   3.712  15.127  13.239  0.0085 -0.4804 -0.1848
 9194W        W25268   5.666  12.482   4.326 -0.0315  0.2513  0.0337
 9195W        W25269  12.801  17.403  14.067  0.0345 -0.0283 -0.0196
 9196W        W25270   6.459   8.843   3.910 -0.1347 -0.2588 -0.1219
 9197W        W25271  11.709  17.678   0.689 -0.0017 -0.2669  0.0532
 9198W        W25272  18.054   2.095   0.448 -0.0614 -0.0887 -0.1837
 9199W        W25273  18.448   5.460   4.873  0.0762  0.4864 -0.0855
 9200W        W25274  17.578   8.509   0.824  0.2759 -0.1488  0.1298
 9201W        W25275   3.147   7.658  12.349 -0.3018  0.2749  0.0546
 9202W        W25276  13.393  10.681  13.427  0.2722  0.1305  0.0393
 9203W        W25277  11.082  10.814  13.413 -0.1539 -0.4431 -0.2377
 9204W        W25278   0.006   4.819  10.621 -0.1209  0.1155 -0.1590
 9205W        W25279  11.835   5.354  14.543  0.0016  0.4862 -0.0530
 9206W        W25280  18.688  14.421  11.994  0.1132  0.2884  0.0457
 9207W        W25281   7.659   3.787   2.187  0.1775 -0.0202  0.2738
 9208W        W25282  12.772   3.230  10.866  0.1009  0.0410  0.0849
 9209W        W25283  13.515   0.570  11.498  0.2047 -0.1420 -0.0667
 9210W        W25284   3.143   8.824   2.170  0.2266  0.0226  0.1790
 9211W        W25285  14.644   3.533  12.731 -0.1239 -0.1766 -0.2441
 9212W        W25286  18.003   6.040   3.706  0.1475 -0.1111  0.4091
 9213W        W25287   2.754   7.772  11.287  0.1282  0.2888  0.4206
 9214W        W25288   5.869  10.691  12.551 -0.1971 -0.0683  0.0714
 9215W        W25289   4.300   9.147  12.619  0.2817  0.1473  0.3038
 9216W        W25290   9.474   0.659   0.436  0.0217 -0.2530  0.0738
 9217W        W25291   9.061   1.244   1.999  0.0162  0.0647 -0.2008
 9218W        W25292   7.715  13.541   2.835 -0.0424  0.4486 -0.1015
 9219W        W25293  10.865  10.457  12.658 -0.0947  0.2040 -0.3512
 9220W        W25294   7.077   6.086   2.807 -0.2225 -0.2035  0.0813
 9221W        W25295   6.606   1.978  14.944 -0.0481 -0.0763  0.3044
 9222W        W25296   4.026   1.195  13.131 -0.0549 -0.0952  0.0207
 9223W        W25297  12.570  16.667  10.752  0.2364  0.0570 -0.1217
 9224W        W25298   4.741  16.956  11.095 -0.1697  0.2154  0.0346
 9225W        W25299  15.684  16.956   4.296  0.1998  0.3482 -0.0209
 9226W        W25300   8.289   1.852  10.863  0.2703 -0.1778  0.0580
 9227W        W25301  15.107  13.295  13.843 -0.1024 -0.1041  0.0353
 9228W        W25302  14.047   3.688  14.848 -0.0915  0.1102 -0.0347
 9229W        W25303   0.122  14.484  12.231  0.0763  0.2004 -0.1469
 9230W        W25304   2.045   7.458   1.813  0.3920 -0.0536  0.0150
 9231W        W25305  10.172   4.921   1.968  0.2983  0.0634 -0.0574
 9232W        W25306  10.770   2.944  14.651 -0.1721  0.0420 -0.0326
 9233W        W25307  13.776   9.558  10.584 -0.1612 -0.2117 -0.0173
 9234W        W25308   6.751   7.812  10.082 -0.4205  0.0272 -0.0983
 9235W        W25309   7.566  15.199   1.874  0.2582  0.3524  0.1891
 9236W        W25310   0.513   8.245   3.750  0.4854 -0.1154 -0.1263
 9237W        W25311   4.005   7.976   0.508  0.3242  0.1170 -0.1739
 9238W        W25312  14.659   5.954   1.781  0.3507  0.1310 -0.2433
 9239W        W25313   3.324   3.418   2.364  0.3428  0.0912 -0.3368
 9240W        W25314   3.871   8.314  13.750 -0.0344  0.2187  0.3670
 9241W        W25315   5.203   6.128  13.422  0.0331  0.1311  0.0380
 9242W        W25316   8.205  12.784  14.646  0.0799 -0.0049  0.2332
 9243W        W25317   3.415  17.369   3.662  0.0485 -0.1932 -0.1345
 9244W        W25318  15.537  16.808   2.333  0.2964  0.0945 -0.0852
 9245W        W25319  13.974   7.658   1.346  0.0716  0.1308  0.2149
 9246W        W25320   8.140  17.728  12.525  0.0509  0.1215  0.0881
 9247W        W25321   8.884   6.122  12.896 -0.0189 -0.1277  0.2102
 9248W        W25322  15.536   8.814   1.939 -0.0153 -0.1167 -0.0256
 9249W        W25323   7.614  18.516  12.855 -0.0089  0.0567 -0.1389
 9250W        W25324   5.357   1.207  13.758 -0.0312  0.1841  0.1688
 9251W        W25325   0.118   6.641   3.880 -0.0367  0.4115  0.2238
 9252W        W25326  19.117  18.256   4.071  0.0004  0.0291  0.3359
 9253W        W25327   9.927   3.636   1.391  0.0767 -0.0961 -0.1448
 9254W        W25328  14.262   5.825   6.187 -0.0146 -0.2897 -0.0129
 9255W        W25329  11.755   5.536  14.065 -0.0140 -0.0039  0.1614
 9256W        W25330  11.152   8.173  12.816  0.1280 -0.0197 -0.2496
 9257W        W25331   6.005   6.059   4.843  0.1023  0.1122  0.0055
 9258W        W25332   8.061  11.242  13.061 -0.1927  0.1375  0.3266
 9259W        W25333   5.202   7.286   4.420  0.0370 -0.2061  0.3131
 9260W        W25334  15.229   1.592  10.528  0.2550 -0.2110 -0.3147
 9261W        W25335  18.670   4.898   2.822 -0.2198 -0.1444  0.1762
 9262W        W25336   4.398   7.214   4.422  0.0348  0.3220 -0.0918
 9263W        W25337  19.089  14.081  10.884 -0.1844  0.0440  0.1135
 9264W        W25338  12.721  16.855  12.020  0.4766  0.0243 -0.2601
 9265W        W25339  14.802   3.974   0.556  0.2807  0.2517  0.2748
 9266W        W25340   0.582  13.544   3.936  0.0419  0.2671 -0.0202
 9267W        W25341  17.010  16.880  12.806 -0.2693  0.1518 -0.2448
 9268W        W25342   5.311   2.795   1.143 -0.0141  0.1914  0.0809
 9269W        W25343  16.171   9.606  14.796 -0.3430 -0.0716 -0.0472
 9270W        W25344   9.991  18.110  13.102  0.0911 -0.0471 -0.0061
 9271W        W25345   1.243  15.063  11.521 -0.2690 -0.2115  0.2821
 9272W        W25346  17.529   4.008   3.901 -0.2477  0.4291  0.0584
 9273W        W25347   6.855   3.916   0.325  0.2806 -0.1228  0.0807
 9274W        W25348   8.852   5.586   0.749 -0.0981  0.0671  0.2452
 9275W        W25349  16.548  12.866   2.685  0.0505  0.1021  0.1998
 9276W        W25350   4.005  12.205   4.308  0.4883  0.2565  0.1084
 9277W        W25351  19.021  10.700  13.797  0.1145  0.0225 -0.1209
 9278W        W25352  13.794   0.866  13.426  0.1921 -0.0172 -0.0717
 9279W        W25353   2.557   5.918  11.156  0.0122 -0.1541 -0.1379
 9280W        W25354   3.695   5.464  12.699 -0.1222  0.0311 -0.1394
 9281W        W25355  11.166  17.653  10.092 -0.1592 -0.0486 -0.2624
 9282W        W25356  15.440   9.677  13.069 -0.0623  0.1064 -0.3032
 9283W        W25357  18.327  15.899  11.598 -0.1222  0.0508  0.1290
 9284W        W25358  15.980   7.397   0.016 -0.3778 -0.3331  0.0297
 9285W        W25359   8.628  15.684  13.800 -0.0582  0.0047 -0.2435
 9286W        W25360  14.946   1.126   1.480 -0.1320  0.2203  0.1297
 9287W        W25361  14.457   9.709  13.437 -0.1412  0.0464 -0.1127
 9288W        W25362  16.985   7.237   3.460 -0.0742 -0.1483 -0.0520
 9289W        W25363   9.633   6.675  14.612  0.0200 -0.0247  0.0995
 9290W        W25364   4.835  11.828   4.660 -0.0370  0.0164 -0.1140
 9291W        W25365  18.775  12.010   3.231  0.0485  0.0766  0.0092
 9292W        W25366  17.141  10.383   3.897 -0.3232  0.0044 -0.1568
 9293W        W25367  16.950   5.703   0.467  0.1943  0.1449  0.0142
 9294W        W25368   1.083   1.384   3.563 -0.0785  0.1601  0.1394
 9295W        W25369  14.883   1.513  14.998  0.2651  0.1579  0.1652
 9296W        W25370  17.806   4.483   3.033  0.3016 -0.0336  0.0483
 9297W        W25371  13.509   0.161  14.676 -0.0199 -0.1705  0.1394
 9298W        W25372   3.143  15.845   4.758  0.2570  0.1552 -0.1386
 9299W        W25373  14.131  12.725  13.274  0.0894 -0.0829  0.1052
 9300W        W25374  10.340  16.958  14.708 -0.2129  0.3319 -0.3209
 9301W        W25375  15.277  12.230   2.658  0.2801  0.1457  0.2668
 9302W        W25376  14.340   8.001  12.026 -0.0414  0.1572 -0.0098
 9303W        W25377  11.468  10.468  11.062  0.2462 -0.1690  0.1863
 9304W        W25378   8.226   0.300   5.494 -0.2118  0.3145  0.0306
 9305W        W25379  13.254  14.561   4.891  0.0735  0.3049 -0.1083
 9306W        W25380  16.214  10.022   3.709 -0.0969 -0.1025  0.1081
 9307W        W25381   7.790  12.127  10.581  0.0679  0.2541 -0.4786
 9308W        W25382  17.044  18.578   5.931 -0.0216 -0.0712 -0.0401
 9309W        W25383  11.515  12.319  12.604 -0.2643  0.4191 -0.0183
 9310W        W25384  11.591   7.487   2.715 -0.0433  0.1655 -0.1838
 9311W        W25385  11.037   3.817  14.958 -0.0397 -0.0159  0.3712
 9312W        W25386  16.965  18.916   4.228  0.1621  0.2969 -0.2256
 9313W        W25387  19.029  10.029   0.924 -0.1229  0.2663  0.1602
 9314W        W25388   1.959   9.713  13.879  0.2833  0.0628  0.1732
 9315W        W25389  18.342   1.727   0.194 -0.0779  0.0637  0.1504
 9316W        W25390  17.212  18.777   2.620 -0.0444  0.2961 -0.0333
 9317W        W25391  10.344  11.407   3.097 -0.3431 -0.5347  0.1482
 9318W        W25392   8.033   6.595  14.248  0.2567  0.0808  0.2096
 9319W        W25393  18.009  11.976   2.157  0.2651 -0.0428 -0.0255
 9320W        W25394  11.436  13.586  14.463 -0.1518 -0.0026  0.1850
 9321W        W25395  18.599   0.036  10.946 -0.1757 -0.0628 -0.0305
 9322W        W25396   0.221   0.207  12.041 -0.0024 -0.2336  0.4153
 9323W        W25397   4.411   8.179   1.899 -0.2786 -0.1660 -0.2367
 9324W        W25398  17.819   8.675   4.292 -0.2012 -0.1711  0.0059
 9325W        W25399   8.090  18.779  12.145 -0.2166  0.0644 -0.1368
 9326W        W25400  13.433   3.688  13.467 -0.0267  0.1734  0.2252
 9327W        W25401  10.998  17.974   2.131  0.3749 -0.0794 -0.2599
 9328W        W25402   7.322  15.064  14.635 -0.1775 -0.1285 -0.1595
 9329W        W25403  15.794  13.367  10.957  0.0299 -0.0569  0.1403
 9330W        W25404  11.453   4.472  13.315  0.2265  0.0729  0.3646
 9331W        W25405  13.734  14.764   2.475 -0.0525  0.4008  0.0654
 9332W        W25406   4.363   1.813   1.681  0.0537  0.0093  0.1423
 9333W        W25407  11.599   6.282  10.626  0.2481  0.4176  0.1300
 9334W        W25408   5.189   9.080  11.551  0.4380 -0.0198  0.2965
 9335W        W25409   7.831   5.157   0.211 -0.0903  0.4511 -0.1435
 9336W        W25410   6.619  10.279   3.647  0.3281 -0.0723 -0.0789
 9337W        W25411  11.928   9.276   0.750 -0.2004 -0.5016 -0.2589
 9338W        W25412  11.820   1.812  10.588 -0.2567  0.0556  0.0337
 9339W        W25413   1.894  16.273  13.578 -0.1766 -0.0345 -0.0952
 9340W        W25414   1.837  10.656   4.028 -0.3461  0.7427  0.0671
 9341W        W25415   3.529   1.751   3.922  0.1411  0.2967  0.0475
 9342W        W25416  11.120   8.924  10.560  0.0733  0.2019 -0.0720
 9343W        W25417  13.903  18.265   4.042  0.1295 -0.0394  0.1614
 9344W        W25418   9.326   8.708  10.991 -0.2557 -0.2514 -0.3289
 9345W        W25419  12.215  15.909  13.620 -0.1210 -0.1365 -0.1221
 9346W        W25420   1.578  18.352   3.996  0.0525  0.1067  0.2242
 9347W        W25421  13.598   1.824  14.885  0.1783  0.1893  0.0155
 9348W        W25422  10.376   0.136  12.067 -0.1750 -0.0561 -0.0235
 9349W        W25423   7.299  18.899   2.901 -0.3594 -0.0158 -0.1443
 9350W        W25424   2.691  10.100   5.622  0.1188 -0.2082  0.2442
 9351W        W25425  11.823  17.552  14.379 -0.1079 -0.0482 -0.1947
 9352W        W25426   1.463   3.909   5.708 -0.1013  0.2831 -0.1593
 9353W        W25427  18.963   6.086   3.811  0.5489  0.1385  0.3311
 9354W        W25428   0.949  19.265   2.847  0.3033 -0.2860  0.3347
 9355W        W25429  13.198   1.961   0.150 -0.1022 -0.2641 -0.0568
 9356W        W25430  17.626   7.412  13.933  0.1276 -0.3379 -0.2300
 9357W        W25431  12.869  13.583   0.885 -0.4455  0.0323  0.0145
 9358W        W25432  17.720  12.478   0.131 -0.1274 -0.0103  0.0445
 9359W        W25433   8.936  12.065   3.453 -0.3887  0.2495 -0.2932
 9360W        W25434  16.939  17.027  14.864 -0.0286  0.0220  0.0109
 9361W        W25435   3.031  12.779   5.348  0.2517 -0.0988  0.0364
 9362W        W25436   5.332   1.114  11.584 -0.0275  0.1904 -0.0973
 9363W        W25437  10.310   5.184   3.812  0.0074  0.1244 -0.0738
 9364W        W25438   4.579   5.009   3.022 -0.1127  0.1349 -0.2054
 9365W        W25439   5.448   0.683  12.008  0.3010  0.3962  0.1053
 9366W        W25440   4.256   4.313  13.925  0.0197 -0.0476 -0.0112
 9367W        W25441  16.977  16.969   1.410 -0.1192  0.0683  0.0277
 9368W        W25442   4.136   1.781  11.971  0.3593 -0.1138  0.4087
 9369W        W25443   1.838  15.736   1.960 -0.0830 -0.0562 -0.2722
 9370W        W25444  13.237   9.667  14.587  0.0070  0.4891  0.3168
 9371W        W25445   1.180  10.137  12.228  0.0509 -0.1508 -0.3423
 9372W        W25446  10.712  15.289  10.848 -0.0732 -0.1118  0.2795
 9373W        W25447  11.319   8.098   5.067 -0.1915 -0.0819 -0.0002
 9374W        W25448  12.384  15.468  10.777  0.0055  0.5112  0.3534
 9375W        W25449  11.152  11.246  10.650  0.1583 -0.2806 -0.2114
 9376W        W25450  16.913  15.497   0.031  0.1510  0.3057 -0.0650
 9377W        W25451   6.289  12.689   1.848  0.0951 -0.0670  0.0827
 9378W        W25452   2.253   6.320   2.561 -0.0800 -0.1743  0.3060
 9379W        W25453  17.700   9.869   5.761 -0.0418 -0.0660 -0.2308
 9380W        W25454   5.822   4.776   4.010 -0.0082  0.1149  0.0171
 9381W        W25455  10.649   8.051  12.292  0.1860 -0.0718  0.1499
 9382W        W25456  11.536  12.017  10.815 -0.0715 -0.0626 -0.1229
 9383W        W25457   1.374  15.266   5.268  0.0676  0.0294  0.0251
 9384W        W25458   2.416   1.480   4.332  0.2560 -0.0667 -0.2995
 9385W        W25459   5.637   4.187   0.255 -0.2924  0.2263 -0.2461
 9386W        W25460  14.449  10.490  11.526 -0.0797  0.0901  0.0261
 9387W        W25461   5.075  12.887  14.624 -0.1922  0.2572 -0.2083
 9388W        W25462  18.122   4.686  10.701 -0.0693 -0.2782 -0.0209
 9389W        W25463  10.536   0.695   2.129 -0.1089  0.1572 -0.0516
 9390W        W25464   9.421   5.635   0.353 -0.1376  0.1493  0.0381
 9391W        W25465   5.015  16.869  12.797 -0.3622 -0.0673  0.2574
 9392W        W25466   3.520   0.454  12.495 -0.0136 -0.1430  0.2350
 9393W        W25467   7.842   8.416   0.979  0.1761  0.2101  0.2075
 9394W        W25468  11.204   3.744  13.480  0.0231  0.2371  0.0623
 9395W        W25469   4.740   4.827  10.626  0.1603  0.1006  0.1345
 9396W        W25470  12.498  10.073   3.926 -0.1351 -0.0653  0.3380
 9397W        W25471   2.668  16.031  10.070 -0.3568 -0.0448  0.5002
 9398W        W25472   8.271   8.634  11.852  0.1660  0.2130  0.0235
 9399W        W25473  14.649  17.845   4.224 -0.3065  0.1391  0.0345
 9400W        W25474  14.987  13.699  12.818  0.0666 -0.3247 -0.0353
 9401W        W25475   9.851  18.366  12.635  0.0020  0.0105 -0.4456
 9402W        W25476   8.431   1.131  12.066  0.1130 -0.0552 -0.1866
 9403W        W25477  13.013  14.980  13.530  0.1248 -0.4487  0.0999
 9404W        W25478  13.126   0.890  10.212  0.0736  0.0365  0.1940
 9405W        W25479  15.428   2.349   3.555  0.1073  0.0643 -0.2580
 9406W        W25480   2.105  10.234  10.630  0.0227 -0.2446  0.1706
 9407W        W25481  10.903  17.787  11.964 -0.0462 -0.3392 -0.1672
 9408W        W25482  10.356   4.472   1.908  0.4308 -0.2012 -0.3292
 9409W        W25483  10.566  11.743  13.185  0.0672 -0.4159  0.0750
 9410W        W25484  17.502   8.074   5.605  0.0136  0.2199 -0.0756
 9411W        W25485   6.669   4.173   3.087  0.0383 -0.2336  0.1257
 9412W        W25486   0.672   0.032   5.738 -0.2123 -0.0503 -0.1424
 9413W        W25487  19.267  17.395  12.911  0.1173  0.0938  0.2119
 9414W        W25488  19.071   7.845   1.888  0.1755  0.0698  0.0044
 9415W        W25489   1.381   6.786  14.774  0.2409 -0.0473  0.1575
 9416W        W25490   7.657   9.074  13.145  0.1939 -0.1220 -0.0840
 9417W        W25491   4.493   7.506  12.953  0.1772  0.0549 -0.0348
 9418W        W25492  16.006  17.160   3.930  0.0305 -0.5381  0.4248
 9419W        W25493   2.939   3.925  12.774 -0.1911 -0.0221 -0.0145
 9420W        W25494   6.901  12.753   2.274  0.3691 -0.1123 -0.0582
 9421W        W25495   3.845  12.944  13.027 -0.0781  0.3302  0.2564
 9422W        W25496  10.384   6.316  14.453  0.1541  0.3542 -0.1279
 9423W        W25497   7.647  18.058  14.986 -0.1028  0.2370 -0.1302
 9424W        W25498  12.416  18.976   4.175  0.0880 -0.2302  0.0656
 9425W        W25499   3.890  17.656  14.104  0.1057  0.0664 -0.1585
 9426W        W25500   9.786   5.685  14.990  0.2047  0.2856 -0.0020
 9427W        W25501  12.238  15.691   3.262 -0.1217  0.3244  0.0168
 9428W        W25502   6.032  10.130   9.918  0.1041  0.0724  0.1360
 9429W        W25503   2.938  13.158   3.310 -0.1507 -0.1870  0.2201
 9430W        W25504   9.044   9.453   2.298 -0.0893 -0.0532 -0.3162
 9431W        W25505   5.696  16.903   1.350 -0.2381  0.1422  0.3059
 9432W        W25506  10.777   5.908  13.835  0.0020  0.0903  0.0690
 9433W        W25507   4.353  14.789   0.762 -0.4210  0.4980  0.1836
 9434W        W25508  18.911   7.100  11.948 -0.0418  0.0069  0.0324
 9435W        W25509   0.323  12.704   1.447 -0.2386 -0.0404  0.1904
 9436W        W25510   3.148  15.590   4.332 -0.0812  0.1455  0.1777
 9437W        W25511  13.920   1.288   2.528  0.0131 -0.0164 -0.1389
 9438W        W25512  15.775   8.481   1.338  0.1120 -0.2231  0.0549
 9439W        W25513   3.181  18.140  13.656  0.0475  0.0901  0.0630
 9440W        W25514   8.340   0.870   3.828 -0.2230  0.3119 -0.0671
 9441W        W25515  11.204   9.162  13.683 -0.4154  0.1015  0.2112
 9442W        W25516   1.620  17.879  12.023  0.1431 -0.3505 -0.0376
 9443W        W25517  14.326   1.977   0.784  0.0767  0.1181  0.4691
 9444W        W25518   9.802   1.112  14.614  0.0494  0.2133 -0.1975
 9445W        W25519   3.738   1.175   3.096  0.0546  0.0192 -0.1905
 9446W        W25520   7.815  12.682  12.714  0.0211  0.0063 -0.3596
 9447W        W25521   8.888  15.207  14.963 -0.0950 -0.2338 -0.0656
 9448W        W25522   5.707   0.925  14.023  0.1776  0.2487  0.1318
 9449W        W25523   4.003   4.589  10.270 -0.1032 -0.1133  0.0055
 9450W        W25524   8.787  11.604  12.027  0.0115 -0.2363  0.0095
 9451W        W25525   4.929   5.932   0.474  0.0628 -0.0876 -0.1406
 9452W        W25526  12.225   3.004   0.045  0.1995  0.0460 -0.0839
 9453W        W25527  19.259  15.312  11.441  0.4220  0.0381 -0.0306
 9454W        W25528   1.169  11.712   9.699  0.2047  0.2342 -0.0593
 9455W        W25529   6.654  14.993  11.961  0.0521  0.1242 -0.3310
 9456W        W25530  11.089   8.814   4.275 -0.0534  0.1753 -0.3675
 9457W        W25531  17.350   5.110   1.108 -0.1427  0.1483  0.0529
 9458W        W25532  18.324  10.307   2.560  0.3329  0.0089  0.2023
 9459W        W25533   2.824   2.874  12.884 -0.3632  0.1493  0.1330
 9460W        W25534   9.190  11.352  12.235 -0.0799  0.0419 -0.1433
 9461W        W25535   8.721  18.035   2.930  0.1732  0.1890 -0.0209
 9462W        W25536   9.464  12.076   0.539 -0.0597  0.0383 -0.2268
 9463W        W25537  15.044  16.156  13.161 -0.2260 -0.2324  0.0846
 9464W        W25538  15.478   7.913   6.191  0.0029  0.3898 -0.1338
 9465W        W25539   0.710  11.938  13.823  0.0661 -0.0630 -0.2717
 9466W        W25540  17.119   1.151  14.061  0.0878 -0.2120 -0.1818
 9467W        W25541  10.277  11.554  10.890  0.1460 -0.1499  0.0591
 9468W        W25542  18.776   1.613   9.403  0.2242  0.1595  0.1161
 9469W        W25543   0.827  19.025   0.871 -0.1127 -0.0923  0.0203
 9470W        W25544   4.897  11.256   1.336  0.1684 -0.0621 -0.0722
 9471W        W25545  13.546  14.741  12.587 -0.2085 -0.1406  0.0448
 9472W        W25546   0.869  10.441  12.542  0.0514  0.0932  0.4110
 9473W        W25547   7.514   7.104  12.231  0.0559 -0.1618  0.1478
 9474W        W25548  15.826  17.620  14.589 -0.2067  0.0984 -0.0038
 9475W        W25549   0.135  14.662   5.022  0.2499  0.1507  0.5243
 9476W        W25550   6.463  13.429   1.412 -0.1473 -0.2843  0.1469
 9477W        W25551   5.500  16.887  14.502 -0.0046 -0.1733 -0.1396
 9478W        W25552  17.667   7.389  11.339  0.1168 -0.2240  0.1486
 9479W        W25553   8.309   4.179  11.200 -0.0317  0.1761  0.0231
 9480W        W25554   8.576   5.881  11.214 -0.1112 -0.2208  0.1915
 9481W        W25555  14.941  10.835  10.687 -0.2547 -0.3089  0.0864
 9482W        W25556   2.099   1.439   3.751 -0.1905 -0.0153  0.0211
 9483W        W25557   8.788  14.246  12.257  0.1460  0.1315  0.2105
 9484W        W25558   9.439   6.497  10.767  0.0077 -0.0847  0.2455
 9485W        W25559   3.900  13.307   4.751  0.0720  0.0588 -0.2931
 9486W        W25560   0.381   2.238  13.222  0.2777  0.0144  0.0891
 9487W        W25561  12.945  15.116   2.830 -0.1209  0.3397  0.4288
 9488W        W25562  17.496  19.014   1.676  0.1158  0.1727  0.1754
 9489W        W25563   1.490  17.250  10.769 -0.3131 -0.2184 -0.0062
 9490W        W25564   4.063  14.081   4.283  0.0796  0.0703 -0.0353
 9491W        W25565   1.113  11.352  11.425  0.1196  0.2231 -0.3700
 9492W        W25566  14.531  12.714  10.709 -0.1452 -0.1614 -0.1697
 9493W        W25567  18.243   9.906   5.620 -0.0494 -0.2861  0.1182
 9494W        W25568   0.560  14.648   3.681  0.1358  0.0674  0.0708
 9495W        W25569   2.799   7.357  11.518 -0.1053 -0.0042  0.0391
 9496W        W25570  16.427   9.246   3.335  0.0496 -0.1259  0.2066
 9497W        W25571   1.244  11.629   1.972 -0.3765  0.0270  0.1378
 9498W        W25572  16.398   8.303   3.259  0.0419  0.0426 -0.0909
 9499W        W25573   1.525   6.126  13.757 -0.0231  0.0395 -0.2657
 9500W        W25574   6.486  13.264  13.251 -0.0460  0.2429  0.0133
 9501W        W25575  13.518   4.490   0.217 -0.2025  0.1101  0.0342
 9502W        W25576  18.069   6.202   5.265  0.0312  0.1013 -0.1794
 9503W        W25577   5.507  17.752   4.048 -0.1031 -0.0698 -0.1898
 9504W        W25578   6.635   4.334  14.592  0.1133 -0.0735  0.0587
 9505W        W25579   4.433  11.047   4.634 -0.1232  0.0339 -0.0172
 9506W        W25580  12.565   2.831   1.926 -0.2564  0.0886  0.1621
 9507W        W25581   6.817  10.009   2.884  0.2195 -0.0288 -0.1001
 9508W        W25582   3.109   1.329  14.524  0.0594  0.1196  0.4299
 9509W        W25583  10.030   8.163  12.391 -0.2158  0.1178  0.1827
 9510W        W25584  18.044   3.896   1.691 -0.0002  0.1052  0.1012
 9511W        W25585   5.681  15.696  12.263  0.2218  0.2511 -0.2114
 9512W        W25586  10.423  10.714  10.081 -0.7091 -0.4601  0.0448
 9513W        W25587  17.183   0.025   1.398  0.1566  0.3126 -0.0565
 9514W        W25588   0.042   9.614  11.745 -0.0986 -0.1957  0.1759
 9515W        W25589  11.937   5.371   3.922 -0.0519 -0.0029 -0.0920
 9516W        W25590   3.280  10.929   1.765 -0.1906 -0.2923  0.0912
 9517W        W25591  10.491   4.031  10.808  0.2462  0.2100 -0.0744
 9518W        W25592  15.797  17.248  12.179 -0.0552  0.1188  0.0978
 9519W        W25593  15.924  15.567  13.522  0.0848 -0.0633 -0.0729
 9520W        W25594  10.643  18.696  10.887 -0.1826 -0.3670 -0.0969
 9521W        W25595   5.577  15.382  10.511  0.0797 -0.1591  0.0148
 9522W        W25596   8.663  13.824  11.976 -0.1349 -0.1149 -0.1644
 9523W        W25597  17.097  13.082   5.020 -0.1669  0.3591 -0.2042
 9524W        W25598   7.064  10.762   9.893  0.2052 -0.1785  0.2636
 9525W        W25599   4.903   2.514   1.259  0.1388 -0.0822  0.4257
 9526W        W25600   8.691   9.600   0.847  0.1742  0.0944 -0.0827
 9527W        W25601  16.211  13.661   3.117 -0.4272 -0.0621  0.1707
 9528W        W25602   4.861   7.489  14.902  0.1997 -0.0248 -0.1902
 9529W        W25603   1.845  17.053   1.647 -0.1409 -0.1862  0.1200
 9530W        W25604   8.107   5.319   2.947 -0.0249 -0.2853  0.0562
 9531W        W25605  13.791  13.267  11.450 -0.1955  0.1220  0.1755
 9532W        W25606  18.363   7.404  12.317 -0.0471 -0.0617  0.1780
 9533W        W25607   2.131  16.792   0.672  0.0607  0.0308 -0.0274
 9534W        W25608   1.189   5.440   4.828  0.0507  0.0727  0.1413
 9535W        W25609   4.630   2.628  12.895 -0.0093 -0.0160  0.1073
 9536W        W25610  15.407  16.849   1.872 -0.1915  0.0400 -0.0280
 9537W        W25611  18.117   0.818  12.156 -0.2756 -0.2893 -0.1020
 9538W        W25612  12.525  14.854   2.562  0.0655 -0.3855  0.1364
 9539W        W25613  18.385  19.118  12.131 -0.1550  0.3602 -0.0113
 9540W        W25614  10.030   4.226  10.569 -0.1511 -0.2264  0.2833
 9541W        W25615   1.431   6.173   6.005  0.2289  0.1470  0.1287
 9542W        W25616  12.710   2.355   1.573  0.0393 -0.3614  0.1508
 9543W        W25617  15.811   2.217   4.438  0.1502 -0.2189 -0.2803
 9544W        W25618  10.064   1.735   2.316  0.2238  0.3061  0.1318
 9545W        W25619  10.783  14.829  11.087 -0.0400  0.0381  0.1049
 9546W        W25620  16.114  11.409  12.999 -0.0711 -0.3322  0.0461
 9547W        W25621   7.589  14.207   1.223  0.1454 -0.2750 -0.4631
 9548W        W25622   6.615  15.554  12.501 -0.3173 -0.0825 -0.3321
 9549W        W25623  15.005  18.927   0.000  0.1670  0.1597 -0.1330
 9550W        W25624  10.727  18.837  13.317 -0.0996  0.0774 -0.0325
 9551W        W25625  11.478  10.000   0.164  0.2398 -0.2281  0.1769
 9552W        W25626   8.521   6.141   0.339 -0.6029  0.1636 -0.0923
 9553W        W25627   1.753  18.808  12.600  0.4397 -0.0882 -0.0033
 9554W        W25628  12.414  13.628  14.664 -0.0286  0.1299  0.1427
 9555W        W25629   7.867  18.245  10.830  0.0039  0.2284 -0.1327
 9556W        W25630   1.689   0.694   1.384  0.2950  0.0379 -0.1197
 9557W        W25631   2.801  10.081   1.526 -0.1806 -0.1146  0.2334
 9558W        W25632   1.462   4.614  13.987 -0.2094  0.2280 -0.1423
 9559W        W25633   0.833   1.968  14.678  0.1375 -0.1839 -0.2541
 9560W        W25634  11.023   5.788   2.739 -0.0243 -0.4115 -0.0023
 9561W        W25635   6.886   4.323  14.192  0.0645 -0.1766 -0.1588
 9562W        W25636  11.596   2.341   3.424 -0.2544 -0.1080 -0.1474
 9563W        W25637   1.840   3.188   0.497 -0.0617  0.1737  0.2126
 9564W        W25638  13.151   1.019   5.411  0.1887 -0.0539 -0.1402
 9565W        W25639   2.445  12.554   4.684 -0.1154 -0.3407  0.0186
 9566W        W25640   3.332  12.079  13.899 -0.1200  0.0357  0.0363
 9567W        W25641  16.752  13.974   9.768 -0.2238 -0.0521  0.1963
 9568W        W25642   6.202  17.755   3.680  0.2125 -0.0691  0.0315
 9569W        W25643  18.206   1.540  13.531  0.0004 -0.0212  0.1940
 9570W        W25644  16.071   4.697  12.735  0.2402 -0.3372  0.0755
 9571W        W25645   0.499   4.636  12.446  0.2350 -0.2682 -0.2729
 9572W        W25646   3.969   6.486  11.565 -0.0958 -0.0535  0.0695
 9573W        W25647   7.072  19.014   4.617  0.2859  0.1133 -0.0456
 9574W        W25648   0.079  16.932  13.035  0.1029 -0.1314 -0.2386
 9575W        W25649  15.695   2.708  12.393  0.1471 -0.1430 -0.1631
 9576W        W25650  16.729   9.668   3.679 -0.2948  0.1054 -0.3618
 9577W        W25651  18.108   7.477  11.063 -0.2145 -0.0653 -0.0221
 9578W        W25652   2.168   0.377  11.251  0.0193 -0.1018 -0.1622
 9579W        W25653   4.538   8.471   3.732 -0.0027 -0.1720  0.2119
 9580W        W25654   8.506  17.608   9.415 -0.1152 -0.0917 -0.0888
 9581W        W25655  17.336  13.716   1.574  0.1870  0.2054 -0.1081
 9582W        W25656  18.522  13.162   4.179  0.0745  0.1322 -0.0844
 9583W        W25657  11.480  12.944   1.534 -0.0657 -0.0637 -0.3741
 9584W        W25658  11.887  16.683  10.614 -0.1152  0.1709 -0.0603
 9585W        W25659  11.516  16.096  14.109 -0.0186 -0.2785  0.1965
 9586W        W25660   1.837   5.246  13.024 -0.0437 -0.1484 -0.1752
 9587W        W25661  12.140  13.826   5.084  0.0002  0.0364 -0.1383
 9588W        W25662   9.394  16.096   2.778  0.3648 -0.3476  0.3258
 9589W        W25663  13.133   9.466   0.295 -0.0721 -0.4101  0.2501
 9590W        W25664   4.888  18.597  12.229 -0.0119  0.0649  0.0391
 9591W        W25665   7.725   0.104   0.043  0.1754  0.4311  0.1849
 9592W        W25666  17.254   5.875  10.623  0.0769  0.0353 -0.0310
 9593W        W25667   8.360  16.604  12.398 -0.2906  0.0400 -0.1776
 9594W        W25668  16.080   9.243  12.809 -0.3180  0.1293  0.4123
 9595W        W25669  12.428   9.753   1.027 -0.3078  0.0247 -0.1549
 9596W        W25670  12.970   7.868  11.880 -0.0712  0.2891 -0.0492
 9597W        W25671   3.374  12.964  14.211 -0.0609 -0.1776  0.2141
 9598W        W25672   2.109   3.626  11.054  0.1496 -0.1799  0.1067
 9599W        W25673   9.529  13.507  13.008  0.1346 -0.0440 -0.1706
 9600W        W25674  12.424  15.476  14.062  0.2637 -0.0310 -0.0063
 9601W        W25675  16.243  11.744   0.334 -0.0110 -0.0652 -0.3859
 9602W        W25676   8.938  14.889   2.677 -0.1474  0.2571 -0.1343
 9603W        W25677  17.658  15.727   3.517  0.0821 -0.0380 -0.3136
 9604W        W25678  10.460  11.560  13.634 -0.0357  0.1699  0.0756
 9605W        W25679  18.993   3.028  14.122 -0.0978  0.0840 -0.0416
 9606W        W25680   6.782  17.190   0.615 -0.1482  0.1787  0.0057
 9607W        W25681  18.411   8.773   3.695  0.0144  0.2133 -0.0622
 9608W        W25682  16.208  17.166   4.807  0.0136  0.1983 -0.1647
 9609W        W25683  12.003  18.020   2.228  0.2405 -0.1072 -0.0378
 9610W        W25684  16.571  12.237  11.234  0.2761 -0.1896 -0.2904
 9611W        W25685  16.404   1.887  12.226 -0.1791  0.3287 -0.1470
 9612W        W25686  18.237  18.755   0.698  0.1038  0.2232  0.2052
 9613W        W25687  12.729  11.274   3.236 -0.4034 -0.0763  0.0345
 9614W        W25688   9.727  18.637   1.042 -0.4467 -0.1717  0.1235
 9615W        W25689   9.236  17.983  14.335  0.0272 -0.3039 -0.0296
 9616W        W25690   7.111   1.069   1.228 -0.3026  0.0324  0.0307
 9617W        W25691  17.451   0.886  14.833  0.3135 -0.0380 -0.0064
 9618W        W25692  10.910   6.397  12.832  0.1260  0.0597 -0.2228
 9619W        W25693  12.627  14.250   4.399 -0.1764  0.0813 -0.0117
 9620W        W25694   6.781  14.910   3.066 -0.0480 -0.1152  0.0546
 9621W        W25695  17.872   9.521   3.219  0.0559 -0.2616 -0.1367
 9622W        W25696   8.452   3.459   0.243  0.1879  0.0778  0.1287
 9623W        W25697   3.530  16.234   2.143  0.3081  0.1096 -0.1041
 9624W        W25698  12.566  18.514   4.256  0.0805 -0.1286  0.2844
 9625W        W25699  17.017   7.233   4.565  0.0680 -0.2308 -0.0622
 9626W        W25700  14.425  13.129  14.323 -0.2186 -0.0067 -0.0388
 9627W        W25701  17.750   3.054   1.943 -0.1076 -0.1877  0.1394
 9628W        W25702   8.995   8.446   3.511  0.1969  0.1760  0.2690
 9629W        W25703  16.331   7.918  11.601 -0.2093 -0.0852  0.0690
 9630W        W25704  13.501   4.979   1.421  0.1415  0.1550  0.2290
 9631W        W25705  11.455  16.210  10.044  0.3056  0.0259  0.2123
 9632W        W25706  19.188   5.854  13.544  0.0577 -0.1383 -0.1644
 9633W        W25707   0.367  10.635   1.825 -0.0714  0.1597 -0.0101
 9634W        W25708   2.898   1.759  13.149 -0.1333  0.4742  0.1198
 9635W        W25709  10.516  14.929  10.511  0.4554  0.2435  0.0610
 9636W        W25710  13.101  14.197   2.667 -0.1246  0.1604  0.0708
 9637W        W25711   3.805  17.181   1.423 -0.2867  0.1930  0.1164
 9638W        W25712   4.146   2.912   2.222 -0.0493 -0.0547  0.2785
 9639W        W25713  14.117   7.545  12.376  0.0341 -0.0184  0.0107
 9640W        W25714   3.182  16.446  12.736 -0.1099 -0.2040  0.0857
 9641W        W25715   6.299  10.708   0.605 -0.3443 -0.1891  0.1005
 9642W        W25716   7.722  18.068   2.728  0.0653 -0.3823  0.1710
 9643W        W25717  10.144  17.603   0.900 -0.0013 -0.1992  0.1542
 9644W        W25718   0.419  15.301   0.442 -0.2492 -0.0953  0.0025
 9645W        W25719  12.622   1.794   4.229 -0.1418 -0.3790  0.0101
 9646W        W25720  13.696  18.814   4.286 -0.2524 -0.1121 -0.1539
 9647W        W25721   4.493   2.435  10.400 -0.2558  0.0583  0.1620
 9648W        W25722   8.286   5.768  14.570 -0.1696  0.1158 -0.1222
 9649W        W25723  14.843  19.254  11.194 -0.1921 -0.1353 -0.0694
 9650W        W25724   4.022  16.999   1.870 -0.0321 -0.0526  0.2664
 9651W        W25725   6.043  14.825  14.320 -0.1850  0.1567 -0.3919
 9652W        W25726  18.765   7.334   2.040  0.0920 -0.1520 -0.4059
 9653W        W25727   4.908   0.687   1.695  0.1299 -0.1922 -0.2986
 9654W        W25728   5.138   2.868   2.834  0.1799 -0.1026  0.0866
 9655W        W25729  13.042  19.008   0.886  0.3307  0.1435 -0.0277
 9656W        W25730   5.492  11.552  14.667  0.3932  0.0140 -0.2895
 9657W        W25731  17.394  17.769  11.115 -0.0708 -0.1317  0.1973
 9658W        W25732  14.204  12.524  11.031  0.0824  0.2366 -0.2446
 9659W        W25733  17.697   2.616   3.562  0.0782 -0.0479  0.4432
 9660W        W25734   3.255   2.753  12.211  0.0122  0.4065 -0.2290
 9661W        W25735  10.297  13.837  13.016 -0.1194 -0.2715 -0.1591
 9662W        W25736  13.813   6.098   0.224  0.2187  0.0536  0.1465
 9663W        W25737  16.992  17.659  11.444  0.2427  0.0195  0.1406
 9664W        W25738  13.923   7.355  11.494  0.2339  0.0870 -0.1599
 9665W        W25739  17.506  15.996  12.012 -0.0361 -0.0974 -0.3324
 9666W        W25740   8.316  17.160   3.450  0.1001 -0.1490 -0.1620
 9667W        W25741   4.408  14.531  11.196 -0.0392 -0.0128 -0.0516
 9668W        W25742   6.291   4.645  11.828 -0.0521  0.0292  0.3434
 9669W        W25743  16.359   3.829  12.687 -0.3881 -0.1452  0.3999
 9670W        W25744   1.937  12.259  13.154 -0.3892  0.0475  0.1529
 9671W        W25745   8.764   8.521  11.716  0.0822 -0.2305  0.0096
 9672W        W25746   9.789  10.347   3.176  0.1371  0.1931 -0.1519
 9673W        W25747  11.686   8.932   0.185  0.0892  0.0213 -0.2231
 9674W        W25748  12.232   1.236   0.541 -0.0963 -0.0147 -0.3044
 9675W        W25749  18.423  10.374   4.213  0.4475 -0.3045 -0.1907
 9676W        W25750  12.820  12.847  12.884 -0.1570 -0.0267 -0.2218
 9677W        W25751  11.151   6.766  13.532  0.3026  0.0763  0.1036
 9678W        W25752  12.642   4.451  14.639 -0.0208  0.1774  0.3891
 9679W        W25753   6.986  12.297  11.415  0.2329 -0.0376  0.3713
 9680W        W25754   4.827   5.350  13.227  0.0892 -0.0378 -0.5587
 9681W        W25755   7.102  14.639  11.575 -0.0388 -0.1760 -0.0060
 9682W        W25756  10.858   3.035   3.759 -0.0225 -0.4421 -0.0135
 9683W        W25757   3.050  10.218  12.577 -0.0848 -0.2930 -0.3437
 9684W        W25758  16.868   6.356   4.286 -0.3612  0.2218 -0.2036
 9685W        W25759   5.463   8.566  12.945  0.3485  0.0158 -0.0752
 9686W        W25760   4.368  14.300   1.914  0.1145 -0.2166  0.1876
 9687W        W25761  13.105   4.164   1.232  0.2908 -0.0441  0.3845
 9688W        W25762   0.451   2.043   5.354 -0.0585 -0.0163  0.1197
 9689W        W25763   0.717   8.295  11.110 -0.0833  0.3278  0.1172
 9690W        W25764  13.091  19.284  11.103  0.3401  0.0293  0.1796
 9691W        W25765   8.716  15.240  10.546  0.1099 -0.1265  0.1113
 9692W        W25766   4.848  12.855   4.257  0.4125  0.2744  0.2308
 9693W        W25767   8.472  15.117   1.503 -0.0400 -0.0810  0.2204
 9694W        W25768  16.245   2.995   0.129  0.0732  0.2663 -0.1256
 9695W        W25769  12.456  11.180  13.204 -0.0957 -0.0821 -0.1684
 9696W        W25770  16.774   9.183  12.214  0.1268  0.1108 -0.4986
 9697W        W25771   2.757   7.531  13.970  0.3170  0.3273  0.1176
 9698W        W25772  15.034   0.210   0.126  0.1804 -0.0411  0.0543
 9699W        W25773   4.516   7.184   2.371  0.3175  0.0828  0.0471
 9700W        W25774   2.743  15.192  13.171 -0.2186 -0.0634 -0.0208
 9701W        W25775  17.488  17.596  12.753  0.1158  0.1338  0.0695
 9702W        W25776  19.046  18.856   4.121  0.2513  0.1100 -0.2167
 9703W        W25777   9.230   5.886   3.835  0.0203 -0.1574 -0.5727
 9704W        W25778  16.421  19.127   4.223 -0.0449 -0.1355  0.0052
 9705W        W25779   8.498   8.256  13.707 -0.1958  0.3502  0.3634
 9706W        W25780  14.614   8.922   2.522 -0.0448  0.1895 -0.0485
 9707W        W25781   3.960   1.291   4.667 -0.0817 -0.2288  0.1042
 9708W        W25782  12.953   1.011   3.284  0.1096  0.0554 -0.4333
 9709W        W25783  17.697   0.210  14.189 -0.2068 -0.2143 -0.2574
 9710W        W25784   7.303   2.157   2.248 -0.0930  0.1628 -0.1639
 9711W        W25785  15.957   2.504  11.492  0.0096 -0.2715  0.0185
 9712W        W25786  12.451   5.603   1.598  0.1941  0.4267  0.1553
 9713W        W25787   5.143  12.498  11.954  0.0664  0.2143  0.1153
 9714W        W25788  11.244  11.496   2.870 -0.2889  0.2535  0.1678
 9715W        W25789   0.214   3.743   1.328 -0.0717 -0.4842  0.1102
 9716W        W25790   4.294  11.362  11.432 -0.1299 -0.0312 -0.2341
 9717W        W25791   3.105   2.963   0.982 -0.0100  0.0002 -0.2531
 9718W        W25792  13.205  13.491   2.948 -0.2198  0.1603 -0.0379
 9719W        W25793  15.950   0.785  10.438  0.0429  0.0234 -0.3062
 9720W        W25794  12.609  11.053   2.659 -0.1246  0.0000  0.1574
 9721W        W25795   0.720  15.016  11.147  0.0435 -0.0055  0.3053
 9722W        W25796   9.938   3.769  14.787 -0.1545  0.2275 -0.2116
 9723W        W25797   2.575   5.712   0.335  0.0883  0.1054 -0.0212
 9724W        W25798  15.015  16.546  12.158  0.1788  0.4372  0.0351
 9725W        W25799  18.852   4.005  14.896  0.0917 -0.1758  0.0777
 9726W        W25800   6.650   9.602  14.765 -0.2379  0.4795 -0.2980
 9727W        W25801   5.147   0.167   2.505  0.1826  0.3096  0.3756
 9728W        W25802  13.612   7.682   0.317 -0.0665  0.0938 -0.1814
 9729W        W25803  15.379  11.643  11.204 -0.2453  0.1423 -0.0228
 9730W        W25804  15.107   1.774   2.015  0.0828  0.3320  0.4789
 9731W        W25805   8.964  19.240  12.697  0.1883  0.1146 -0.1649
 9732W        W25806  14.232  10.224  13.775  0.2149 -0.1636 -0.0871
 9733W        W25807  17.883  14.748   0.622  0.1183  0.1576 -0.0028
 9734W        W25808   4.306  18.584   1.450  0.3788 -0.2049 -0.0323
 9735W        W25809   2.558  17.892   3.607  0.4352  0.1808  0.0949
 9736W        W25810  15.780   9.358   0.526 -0.2389  0.3459 -0.3033
 9737W        W25811   9.710   2.698  12.657  0.1129 -0.3644 -0.1162
 9738W        W25812  11.142  17.613  14.814 -0.1374 -0.0484 -0.2757
 9739W        W25813   5.724  17.147  13.172  0.3774  0.1833 -0.0299
 9740W        W25814   1.994   9.060   1.849 -0.1212 -0.2998  0.2498
 9741W        W25815  16.338  16.274   4.418  0.3197 -0.1990  0.0667
 9742W        W25816   9.718  12.161   4.545 -0.1326  0.1920  0.0678
 9743W        W25817   1.004   9.724   2.397 -0.1790 -0.2062  0.1559
 9744W        W25818   3.186  13.500  12.961 -0.0765  0.0928  0.1673
 9745W        W25819  17.468   9.491   9.984  0.0970 -0.1263 -0.1958
 9746W        W25820   0.128  18.618  11.762  0.1945 -0.1169 -0.0622
 9747W        W25821   7.239   2.836  13.907 -0.2321 -0.2860  0.1040
 9748W        W25822   6.991  10.751  12.585  0.0041  0.1470  0.2101
 9749W        W25823   4.356   7.643   2.131 -0.0864  0.0830 -0.2174
 9750W        W25824  10.161  18.974   1.007 -0.0394 -0.0528  0.0182
 9751W        W25825  10.054   4.192   0.058 -0.0123 -0.0355 -0.0825
 9752W        W25826   4.387   6.718   2.142  0.0299 -0.0154  0.2335
 9753W        W25827  15.855  18.456  10.360 -0.0981  0.0254 -0.3749
 9754W        W25828  11.997   4.129  10.618 -0.2403 -0.0617 -0.1549
 9755W        W25829   9.973  11.258  10.578 -0.3644 -0.3404 -0.3292
 9756W        W25830  17.060   7.181   5.616  0.0928 -0.0434 -0.0209
 9757W        W25831  17.292  14.970  11.299  0.1911  0.3305 -0.0837
 9758W        W25832  17.065   4.375  13.621 -0.2056  0.0025 -0.2600
 9759W        W25833  13.499   5.401   1.685 -0.0738 -0.1519  0.2164
 9760W        W25834  18.747  11.958  12.996 -0.0417  0.0363 -0.3680
 9761W        W25835   3.115   6.354  14.927  0.1825 -0.1975 -0.2158
 9762W        W25836  14.336  16.431   3.564 -0.2277 -0.1763  0.1175
 9763W        W25837  14.131   0.666  13.080 -0.1068  0.0367  0.1226
 9764W        W25838   6.723  11.726  10.200 -0.1197  0.1847 -0.1531
 9765W        W25839  16.328  10.949  13.196 -0.0776  0.1213 -0.1551
 9766W        W25840   8.276   3.237   2.452  0.1057  0.0408  0.2932
 9767W        W25841   7.485   8.374  13.837 -0.0008  0.1381  0.3669
 9768W        W25842  12.750  10.293  13.849 -0.0010 -0.0638  0.1680
 9769W        W25843  17.515   9.882  12.874  0.2580  0.1726  0.0080
 9770W        W25844   3.189   6.101   1.049 -0.0767 -0.1277  0.2246
 9771W        W25845  15.944   3.264   2.122 -0.1284  0.2015 -0.1348
 9772W        W25846  18.678   3.688  13.631  0.1097  0.0886 -0.0685
 9773W        W25847  13.613   3.327  14.548  0.1205  0.3120 -0.2798
 9774W        W25848   3.843   3.947  14.543  0.2580 -0.0117 -0.0528
 9775W        W25849  15.633  12.022   0.530  0.2494  0.0739 -0.0476
 9776W        W25850   7.394   9.647  13.412  0.0125  0.2644 -0.1899
 9777W        W25851   8.064   9.079  11.736  0.4593  0.3830  0.2462
 9778W        W25852  11.419  10.654  13.090  0.1169 -0.3899 -0.1398
 9779W        W25853  16.283   3.586  10.964 -0.1320 -0.0302  0.1048
 9780W        W25854  18.422   5.446   3.058  0.0596  0.2267 -0.2518
 9781W        W25855   3.168   0.491  14.389 -0.0611  0.0451 -0.1533
 9782W        W25856  17.447  13.945  12.370 -0.0506 -0.0423  0.4177
 9783W        W25857   1.706   3.626  11.822  0.1440  0.0363 -0.0934
 9784W        W25858  11.555  18.997  14.524 -0.0694 -0.4050  0.3556
 9785W        W25859   1.883  19.079  13.754  0.1964 -0.1157 -0.1730
 9786W        W25860  14.898   0.954  12.992  0.0217 -0.0721 -0.0284
 9787W        W25861   1.548  10.415   2.538 -0.4147  0.0248 -0.0835
 9788W        W25862   7.608  14.182   1.838  0.0150 -0.3471 -0.0497
 9789W        W25863   5.905  17.564  11.162  0.3124  0.1206  0.2771
 9790W        W25864   7.907  12.555  10.891 -0.2599  0.0576 -0.1672
 9791W        W25865   4.007   8.967  13.417  0.0564 -0.1649  0.1052
 9792W        W25866  18.591  10.058  13.355 -0.0488  0.2218 -0.0981
 9793W        W25867   9.319   4.378  12.781 -0.1666 -0.0723  0.0415
 9794W        W25868  17.738  14.022   2.811 -0.0951 -0.1562  0.0967
 9795W        W25869   1.467  18.234   5.763  0.1802 -0.0526  0.0528
 9796W        W25870  12.935  12.159  14.676  0.1969  0.2854 -0.1350
 9797W        W25871  14.457  18.160   1.294 -0.3989 -0.2322 -0.0322
 9798W        W25872   8.777  18.522   9.041 -0.0343  0.3870  0.2439
 9799W        W25873   4.247  10.170  11.289  0.1368  0.1102  0.0445
 9800W        W25874   6.039  11.104  13.909  0.5146  0.2801  0.3555
 9801W        W25875  16.816  18.926  13.231 -0.2635 -0.4359 -0.1633
 9802W        W25876  13.286  18.809   2.559 -0.3137 -0.1011 -0.3594
 9803W        W25877  13.475  12.224  10.511 -0.0165 -0.0121  0.3827
 9804W        W25878  17.674  11.630   4.072 -0.1004 -0.0854 -0.0131
 9805W        W25879  13.250   5.472  11.207  0.1087  0.3612 -0.3103
 9806W        W25880  10.445  18.556   3.854  0.1872 -0.0220  0.3159
 9807W        W25881  10.467   9.842   0.934 -0.0230 -0.0366 -0.0764
 9808W        W25882   4.867  18.455  10.954  0.2060 -0.1405  0.2663
 9809W        W25883   3.933  10.579  12.055  0.0941  0.1999  0.0162
 9810W        W25884  10.174  12.330   4.749 -0.2532 -0.1197  0.0191
 9811W        W25885  13.416   5.170   0.709  0.4819  0.2281  0.0617
 9812W        W25886   3.079   3.747   0.557 -0.2672 -0.1763 -0.1698
 9813W        W25887   6.261   1.031   2.702 -0.3165 -0.0424 -0.1325
 9814W        W25888  17.206  12.811  13.428 -0.2299  0.0434 -0.2061
 9815W        W25889  17.041  16.176  11.201 -0.2447 -0.4332 -0.2045
 9816W        W25890   4.411   7.729   1.565  0.2601 -0.0774 -0.0556
 9817W        W25891  14.662  11.796   2.477  0.2945 -0.0933  0.2397
 9818W        W25892   8.005  18.523   3.626  0.1166  0.1647  0.0706
 9819W        W25893  17.267   7.333   0.723  0.1683 -0.1454 -0.3184
 9820W        W25894   4.097   6.472   4.016  0.2884 -0.1042  0.0613
 9821W        W25895   9.665  18.518   3.722  0.2455 -0.1448 -0.2923
 9822W        W25896  12.020  18.537   2.358  0.3685  0.3351 -0.0918
 9823W        W25897  18.170  13.468  13.788  0.2143  0.0942 -0.1816
 9824W        W25898  12.511  10.933  14.638 -0.1542  0.0815  0.1034
 9825W        W25899   3.547  11.846  12.011  0.1979 -0.2528  0.0965
 9826W        W25900  16.428  14.471   3.213  0.0162 -0.2042 -0.0889
 9827W        W25901  11.703   7.317   1.947 -0.0537  0.2921  0.3082
 9828W        W25902  15.688   4.447   5.856 -0.1032 -0.1336 -0.0654
 9829W        W25903  11.468  19.299   0.282 -0.2748 -0.2049 -0.0993
 9830W        W25904  12.551  18.556  13.598  0.1779 -0.2929 -0.1740
 9831W        W25905   3.518   7.357   2.127  0.2511  0.0765 -0.0729
 9832W        W25906  16.367   2.336   4.346 -0.0278  0.0782  0.4115
 9833W        W25907   4.110   1.765   2.555 -0.3453  0.1848 -0.1564
 9834W        W25908   1.293  14.113   2.867 -0.1482  0.1862 -0.0130
 9835W        W25909   3.998   3.677  10.832  0.3306  0.3041  0.1291
 9836W        W25910   8.726  15.794   3.420  0.1364 -0.0521 -0.1077
 9837W        W25911   8.603  18.374  13.058  0.3181 -0.0376  0.1275
 9838W        W25912  17.604   1.178   5.023 -0.0026  0.0921 -0.0483
 9839W        W25913   1.503   1.059   3.332 -0.3965  0.2270  0.0031
 9840W        W25914  13.228   3.743  11.410  0.2220  0.0809  0.0349
 9841W        W25915  17.861  17.564  11.150 -0.0461  0.1114  0.0408
 9842W        W25916  18.145  17.440   2.090 -0.1106  0.3406  0.2392
 9843W        W25917   6.718  17.446   1.436 -0.4035 -0.2042  0.2263
 9844W        W25918   9.084   6.956  12.966 -0.0862  0.0376 -0.3123
 9845W        W25919   7.931   9.028   1.756 -0.1927 -0.2298 -0.1140
 9846W        W25920   5.223   7.884  14.960 -0.0944 -0.2342  0.0062
 9847W        W25921  12.819  12.239   0.748 -0.0754  0.0325  0.4191
 9848W        W25922  18.446  14.952  14.426  0.1544 -0.2440 -0.3998
 9849W        W25923  15.864   4.840   4.294 -0.1033 -0.0273  0.2086
 9850W        W25924   6.945  15.867  10.877 -0.2367 -0.2294  0.0788
 9851W        W25925   2.327   1.790  12.431 -0.1875  0.1358 -0.4453
 9852W        W25926  13.280   8.827  12.019  0.3038 -0.0233  0.1590
 9853W        W25927  18.872  16.504   4.193 -0.2083 -0.0726  0.2327
 9854W        W25928   3.704   0.444  11.616 -0.0569 -0.0187  0.1777
 9855W        W25929  18.544  13.163  13.068 -0.2068 -0.0867 -0.0997
 9856W        W25930  10.577   6.746   3.118 -0.0276  0.1318 -0.2206
 9857W        W25931   5.415  12.103  11.924 -0.4026  0.0141 -0.1340
 9858W        W25932   9.044   0.970   0.601 -0.3847 -0.1811 -0.1775
 9859W        W25933   8.994  17.237   4.048  0.1204 -0.0432 -0.3427
 9860W        W25934   3.353  11.570   2.489  0.1294 -0.0180 -0.0847
 9861W        W25935  17.648   3.527   0.986  0.0502 -0.3091  0.4433
 9862W        W25936   0.085  14.735   4.517 -0.2066  0.2821 -0.0782
 9863W        W25937   0.056  12.144  10.990  0.3540 -0.2791  0.1983
 9864W        W25938   6.396  15.108   4.332 -0.3071  0.0277  0.0219
 9865W        W25939  16.668  14.318  14.610 -0.0091 -0.4288  0.1601
 9866W        W25940   3.904   6.072  11.082 -0.0263  0.1740 -0.2687
 9867W        W25941  17.283  12.306   0.356 -0.1011 -0.1154 -0.1280
 9868W        W25942  10.605  12.846  12.512 -0.0311 -0.2896 -0.3080
 9869W        W25943   3.739   9.445   4.254 -0.1753 -0.3816 -0.1659
 9870W        W25944  14.143  11.793  14.975 -0.2845  0.1344  0.0896
 9871W        W25945   8.547  12.366  14.676 -0.2858 -0.3659 -0.0843
 9872W        W25946   0.129   6.247  11.689 -0.3347  0.4043 -0.0820
 9873W        W25947   1.792  16.507   0.371 -0.1474 -0.0805 -0.0290
 9874W        W25948  11.764   9.342   4.981 -0.2262  0.1767 -0.1110
 9875W        W25949  11.506  10.872  11.406 -0.0310 -0.0422 -0.1722
 9876W        W25950  15.866   7.319  13.338  0.4729 -0.2192  0.2542
 9877W        W25951   0.790  16.657   0.325 -0.1392 -0.0258  0.0549
 9878W        W25952  10.158  14.631   0.604  0.3326 -0.1750 -0.1189
 9879W        W25953   9.583  13.732   3.227  0.1052  0.0407  0.0115
 9880W        W25954  13.504  13.997   5.150  0.0572 -0.0298  0.0216
 9881W        W25955  11.165   9.071   2.024  0.4973 -0.2837  0.0562
 9882W        W25956   0.840   2.517  10.693  0.0731 -0.2246 -0.1795
 9883W        W25957  11.275  17.178  11.906 -0.1553  0.1327 -0.1685
 9884W        W25958   9.011   6.584   4.509  0.0741  0.2921 -0.1294
 9885W        W25959   8.913  11.856   4.086  0.1425  0.0054 -0.1007
 9886W        W25960   4.196   7.128   3.345 -0.0348 -0.0659  0.0629
 9887W        W25961  12.383   4.057  10.937 -0.3307 -0.1253 -0.1000
 9888W        W25962   6.777   5.450  13.209 -0.0309  0.2134 -0.2439
 9889W        W25963  10.259  15.766  14.284  0.0539  0.0023 -0.2671
 9890W        W25964   0.032   5.419   5.913 -0.0466  0.3538  0.0260
 9891W        W25965   3.294   9.288  12.432 -0.0458 -0.0680 -0.0288
 9892W        W25966   0.718   5.708   4.754  0.2316  0.1561  0.1356
 9893W        W25967  17.514   4.522   0.193 -0.0753  0.0358 -0.0939
 9894W        W25968   4.555   7.774   3.570  0.0007 -0.0349 -0.0541
 9895W        W25969  15.852   0.605  12.819 -0.2106 -0.1450 -0.1634
 9896W        W25970   7.914   4.316   4.922  0.0207  0.0512 -0.3327
 9897W        W25971  13.250   2.824   2.357 -0.3649  0.1689 -0.1898
 9898W        W25972   0.900  15.524   3.922  0.2655  0.0308 -0.0687
 9899W        W25973   5.762  11.146  14.821 -0.0028 -0.1091  0.1007
 9900W        W25974  17.302   6.102   2.834  0.1035  0.4809 -0.1179
 9901W        W25975   6.767   7.794   3.924 -0.0972 -0.3729  0.0998
 9902W        W25976   9.729   3.912  10.973 -0.3240  0.0323 -0.0455
 9903W        W25977   0.349   0.560  13.501 -0.1403 -0.1257 -0.0306
 9904W        W25978   5.423   3.379   9.886  0.2674  0.4502  0.3570
 9905W        W25979  12.744   5.393  13.443 -0.4084  0.1676  0.0435
 9906W        W25980   2.269   8.021   1.469  0.2650 -0.0986 -0.1795
 9907W        W25981  10.029   1.668   0.901  0.1951 -0.0441 -0.0929
 9908W        W25982  17.600   8.518  11.557 -0.2485 -0.3203 -0.0323
 9909W        W25983   5.061   7.227  12.297  0.4744 -0.1938 -0.1515
 9910W        W25984  14.617  18.178   3.307  0.2854  0.0994 -0.2381
 9911W        W25985   0.043  11.236   1.225 -0.0254 -0.1673 -0.1033
 9912W        W25986   4.737  18.851   0.239  0.3582 -0.1206 -0.0016
 9913W        W25987   1.097   0.445   5.850 -0.1841 -0.2721  0.2830
 9914W        W25988  14.557  16.169   4.952 -0.0124  0.3146 -0.2311
 9915W        W25989   6.787   5.009  10.028 -0.2366 -0.0825  0.0753
 9916W        W25990  14.438  10.062   0.763  0.0980 -0.3160 -0.1344
 9917W        W25991   4.867   1.973   0.661  0.0372  0.1274  0.1856
 9918W        W25992   3.989   4.737   0.355 -0.3882 -0.3046 -0.0280
 9919W        W25993   7.890   6.882   0.930  0.2366  0.0398 -0.0914
 9920W        W25994  10.839  18.614   4.261 -0.1127 -0.2152  0.3803
 9921W        W25995  14.004   7.615  14.452 -0.0339  0.3119  0.0356
 9922W        W25996   5.502   5.764  12.264 -0.0059 -0.1877 -0.0869
 9923W        W25997   6.328   4.869  13.706  0.3039 -0.1716  0.0866
 9924W        W25998  17.860   1.435   0.201 -0.1735  0.0263  0.1469
 9925W        W25999  13.475  18.040   4.107  0.1172  0.2589  0.0683
 9926W        W26000   9.346   3.711   4.207 -0.0245 -0.0860 -0.0125
 9927W        W26001   2.324   7.643   2.753  0.0131  0.0343 -0.1880
 9928W        W26002  14.792  13.917   4.468  0.2802  0.0760  0.0047
 9929W        W26003   9.833  16.799   1.206  0.3310 -0.1945  0.0944
 9930W        W26004  17.854  10.523   2.430 -0.0528  0.0746 -0.0676
 9931W        W26005   1.115  10.255   5.054 -0.0452 -0.0803  0.1476
 9932W        W26006   1.300   8.786   0.664  0.2098  0.0184  0.6095
 9933W        W26007   5.205   6.758  11.910  0.2213 -0.0639  0.1497
 9934W        W26008  18.148   5.281  10.805  0.1735  0.1080  0.0047
 9935W        W26009   7.930  10.987   9.869 -0.1848  0.0843  0.1117
 9936W        W26010   8.637   7.157   3.441  0.2687 -0.2508  0.0661
 9937W        W26011   8.135   7.851   1.560 -0.0834  0.3090  0.1629
 9938W        W26012  15.793   1.427  10.568  0.2095  0.0423 -0.2418
 9939W        W26013  13.412   1.004   0.746 -0.2809 -0.2046 -0.1013
 9940W        W26014   3.177  16.168   2.536 -0.4018 -0.1753  0.1794
 9941W        W26015  16.755  17.266   1.061  0.1447 -0.0679 -0.0028
 9942W        W26016   6.580  15.045  13.449 -0.2159 -0.1118  0.0264
 9943W        W26017  14.525   8.847   1.369 -0.0398 -0.0289  0.0675
 9944W        W26018  13.244  14.438  14.431  0.0681 -0.5893  0.1298
 9945W        W26019  18.293  18.231   3.538  0.0885 -0.0059 -0.0941
 9946W        W26020  17.252   1.005   0.591 -0.0342  0.1917 -0.2621
 9947W        W26021  14.271  15.402  11.301 -0.3737 -0.2072  0.0143
 9948W        W26022  18.638  14.866  10.303  0.0810  0.2922 -0.3156
 9949W        W26023   7.906   2.006   3.393  0.0059 -0.4048  0.1984
 9950W        W26024  11.324   7.875   1.057  0.1767 -0.3533  0.0475
 9951W        W26025  15.777   1.073   2.804 -0.2489 -0.0492 -0.1863
 9952W        W26026  17.089  15.346  12.552  0.2258  0.2024  0.0562
 9953W        W26027  19.184  13.807   2.001  0.5251  0.0571  0.4302
 9954W        W26028   7.678   4.492   2.944 -0.0136 -0.0023  0.0213
 9955W        W26029  12.389  16.808   0.459 -0.1072  0.4430 -0.0204
 9956W        W26030  12.995  17.159   0.842  0.2915 -0.1310 -0.2041
 9957W        W26031   0.496   7.198  11.810  0.1146  0.1897 -0.1924
 9958W        W26032  14.923   8.925  14.289  0.0721  0.2404  0.2349
 9959W        W26033   1.923   2.683  13.318 -0.1439  0.2012 -0.1683
 9960W        W26034  13.189  18.768   9.166 -0.2109  0.0463 -0.1606
 9961W        W26035   5.256   6.551  14.591 -0.1255 -0.1156  0.0203
 9962W        W26036   4.034   5.979  13.607 -0.3796  0.3644  0.2095
 9963W        W26037   6.919  15.497  14.803  0.0118  0.2230 -0.0712
 9964W        W26038  10.212   2.150  11.532 -0.0276 -0.3699  0.1612
 9965W        W26039   8.196   5.729  12.395 -0.0670  0.0018  0.1009
 9966W        W26040  13.884  15.220  14.794 -0.0918 -0.0939  0.0417
 9967W        W26041   8.781  16.341  12.249  0.2848  0.0261  0.3060
 9968W        W26042   6.692   6.049  11.796  0.4682  0.1685  0.2831
 9969W        W26043  10.955  18.327  13.195  0.0498 -0.0572 -0.2278
 9970W        W26044   9.718  19.108   2.409 -0.1494  0.0430  0.2280
 9971W        W26045  11.344  12.730  10.330  0.1452 -0.1028  0.0113
 9972W        W26046  17.583   7.068   3.564 -0.0631  0.5265  0.1020
 9973W        W26047   8.005   8.207  10.776 -0.3761  0.2700 -0.2034
 9974W        W26048   5.129  15.570  11.521 -0.1299  0.0827  0.2001
 9975W        W26049  10.119  16.973  10.817 -0.0045 -0.1715 -0.0191
 9976W        W26050   8.204  14.657   1.426  0.4690 -0.0284  0.1136
 9977W        W26051  16.132   2.813   5.181 -0.1097  0.0257 -0.2120
 9978W        W26052  12.613   9.649   5.233 -0.2584  0.2835 -0.0704
 9979W        W26053  14.101  16.660   2.148  0.0501 -0.1755 -0.1738
 9980W        W26054   4.299   1.950  14.628  0.0287 -0.3539  0.0677
 9981W        W26055   6.655  15.693   3.572 -0.0655 -0.2905 -0.1269
 9982W        W26056  11.575   5.399   4.308  0.1706 -0.1667  0.1783
 9983W        W26057  12.300  16.431  12.274 -0.0267 -0.0192 -0.0457
 9984W        W26058  15.770  11.746   9.994 -0.3012  0.2734  0.2617
 9985W        W26059  17.488  11.441   0.600 -0.0395 -0.2625  0.0794
 9986W        W26060  14.976   8.056  11.331  0.0523 -0.1759  0.3388
 9987W        W26061   7.662   0.480   0.595 -0.1141  0.1264  0.1638
 9988W        W26062  13.574   4.102  13.834  0.1060  0.0051 -0.0192
 9989W        W26063   5.677  17.469   1.236 -0.0798 -0.2373  0.3981
 9990W        W26064  18.379   6.503  12.705 -0.1533 -0.1638 -0.2622
 9991W        W26065  13.923   9.469   1.740 -0.2288 -0.3365  0.1968
 9992W        W26066   3.915   8.874  11.779  0.1870 -0.2617 -0.2697
 9993W        W26067   7.173  13.041  13.905  0.2589 -0.1457  0.1851
 9994W        W26068   1.235   1.976  13.359 -0.0894 -0.1181  0.2255
 9995W        W26069  10.844   5.441  13.507  0.0624 -0.2377 -0.0295
 9996W        W26070   6.156   4.853   9.996 -0.1569  0.3680 -0.1541
 9997W        W26071   9.910   5.848   1.520  0.0169 -0.2867 -0.0127
 9998W        W26072   3.163  11.443  12.598  0.1269  0.0779 -0.2623
 9999W        W26073  16.688   7.158   0.706 -0.2826  0.0914  0.3366
10000W        W26074   7.132  12.114  12.256 -0.3445 -0.2331  0.0582
10001W        W26075   8.379  17.547   2.235 -0.1019 -0.3738  0.2800
10002W        W26076   5.495  13.966  14.317 -0.1546 -0.1950 -0.2054
10003W        W26077  18.742   9.669   0.615  0.1228 -0.3893 -0.1490
10004W        W26078  17.036  11.866  13.570  0.0358 -0.0611 -0.1982
10005W        W26079  15.769   4.124  14.168 -0.0329 -0.0165  0.0546
10006W        W26080  15.994   1.455   0.636  0.0240 -0.2068  0.2297
10007W        W26081  12.818   7.862  14.887 -0.0451 -0.1816  0.2136
10008W        W26082  18.117  15.483   4.875  0.1979 -0.1492 -0.3558
10009W        W26083   9.081  16.582   2.723 -0.0538  0.2716  0.1441
10010W        W26084   2.465   3.740   2.269 -0.0538 -0.2027  0.0652
10011W        W26085  18.821   4.932  14.447 -0.1044 -0.1191 -0.0792
10012W        W26086  10.913   0.984   2.027  0.0260 -0.0103  0.4837
10013W        W26087   9.244   2.359  13.013 -0.0985 -0.1480  0.2022
10014W        W26088   0.863  14.889  14.803 -0.1174 -0.2268  0.0776
10015W        W26089   4.086  19.071  13.997 -0.0037 -0.0757 -0.3257
10016W        W26090  10.911  14.708   3.563 -0.1472 -0.0694 -0.0558
10017W        W26091  13.268   2.335   5.083  0.0218  0.3147 -0.0637
10018W        W26092  17.475   2.919   5.439  0.0512 -0.0816  0.2024
10019W        W26093  10.562   1.868  11.736 -0.0862 -0.1960  0.0053
10020W        W26094   7.571   5.586  10.780  0.2510 -0.0246  0.2400
10021W        W26095   1.362  11.167  14.742  0.0443 -0.0114 -0.2177
10022W        W26096  18.154  17.610   3.541 -0.1052  0.2631  0.0030
10023W        W26097   8.275  12.507  12.790  0.2108  0.1510 -0.0460
10024W        W26098   7.746  10.047  11.836  0.3426 -0.4670 -0.0339
10025W        W26099  14.981   9.159   5.564 -0.1274 -0.0060  0.0437
10026W        W26100  16.978   6.873  11.012  0.1587 -0.0008  0.0576
10027W        W26101   1.896  13.393   3.293  0.0661  0.0384  0.3981
10028W        W26102   1.812   6.003   3.262 -0.0574 -0.0101  0.1452
10029W        W26103   6.746  18.411   3.692  0.1841  0.0505 -0.2848
10030W        W26104   1.109   7.507   6.159  0.0461 -0.0565 -0.2161
10031W        W26105  18.914   8.322   4.801  0.0251  0.1193 -0.1801
10032W        W26106  16.795  16.398   1.906 -0.0923  0.0915  0.0657
10033W        W26107   6.958   9.851   1.448 -0.0894  0.3594  0.0850
10034W        W26108  13.109  12.898  12.095  0.0071  0.0390 -0.2605
10035W        W26109   9.933  11.430  11.293 -0.1051 -0.0750 -0.1418
10036W        W26110   8.725   5.338   2.081 -0.0791 -0.1505 -0.0081
10037W        W26111   3.992  13.098  13.896  0.4249  0.2441  0.1624
10038W        W26112   1.085  18.294  11.510  0.2738  0.0807  0.3584
10039W        W26113  13.660  17.679   1.297 -0.5919  0.0947  0.1409
10040W        W26114  17.275   8.360   1.645 -0.0570  0.1991 -0.1391
10041W        W26115   6.297  18.411  13.640  0.0092 -0.0849  0.2715
10042W        W26116   0.987   5.568   2.838  0.2038 -0.1942 -0.1292
10043W        W26117   1.059   7.038   6.108 -0.1423  0.0515 -0.4964
10044W        W26118   3.153   1.497   3.910 -0.1982  0.1958  0.0833
10045W        W26119   6.850  13.717  14.688 -0.0711  0.0794  0.2562
10046W        W26120   2.696   1.726  14.907 -0.0052  0.2969  0.2310
10047W        W26121  11.152   0.339  10.118  0.1258 -0.0014 -0.4969
10048W        W26122   5.987   7.203   3.911  0.1069 -0.1418 -0.0730
10049W        W26123   3.573  16.704  14.632 -0.2515 -0.0768  0.0070
10050W        W26124  12.303   2.026  12.466 -0.1816 -0.2154 -0.0769
10051W        W26125   1.477   9.280   1.120  0.0598  0.1289 -0.0776
10052W        W26126   1.942  17.963   1.540  0.2877 -0.2228  0.1717
10053W        W26127   6.388   7.471   4.815 -0.0242 -0.2343  0.3096
10054W        W26128  16.742   8.323  13.639 -0.2280  0.0855 -0.0512
10055W        W26129   1.129  10.840  13.482 -0.3189  0.0140  0.0071
10056W        W26130   2.062   7.841  12.684 -0.1778  0.3912  0.1623
10057W        W26131   2.660  15.335   2.136  0.2245 -0.0899  0.0689
10058W        W26132  10.818   0.730   8.854 -0.2324  0.1633 -0.1075
10059W        W26133   1.084  17.621   0.114  0.1970  0.2158 -0.1173
10060W        W26134   1.596   2.740   3.396 -0.0994  0.2856 -0.2511
10061W        W26135   0.691  16.924   4.742 -0.1631 -0.2839 -0.0523
10062W        W26136   1.962   9.538   2.433 -0.1734  0.1037 -0.0077
10063W        W26137  15.840  18.844  12.349 -0.0828  0.2963 -0.1211
10064W        W26138   3.115   4.397  11.499  0.3068  0.1746  0.1279
10065W        W26139  11.832   4.266  13.694  0.2983 -0.0832  0.2007
10066W        W26140  13.012  17.057  12.529  0.0871  0.1980  0.1592
10067W        W26141   2.694  16.777  14.908 -0.0594 -0.0053 -0.1298
10068W        W26142  15.683  16.723   3.309  0.0989  0.2307  0.2089
10069W        W26143  14.104  17.893   1.020  0.0096 -0.1590 -0.1469
10070W        W26144  15.293  16.937  14.901 -0.0439 -0.1742  0.2037
10071W        W26145   7.789  13.804  13.424 -0.0620  0.0600  0.0742
10072W        W26146  12.188  11.529  11.210 -0.2258 -0.0898  0.0560
10073W        W26147  11.572   9.980   1.935 -0.1006  0.1929 -0.0140
10074W        W26148   5.344   9.135   1.975 -0.0171 -0.1462  0.0069
10075W        W26149   9.055   5.882   4.340 -0.2108 -0.1598 -0.0377
10076W        W26150   5.032   0.689  11.709  0.1231 -0.0154  0.1326
10077W        W26151  13.357   4.440   0.795  0.1201 -0.1167 -0.5148
10078W        W26152  11.591   0.962  10.201  0.0086 -0.0526 -0.0457
10079W        W26153  17.905  13.740   2.339 -0.1609  0.1623 -0.2178
10080W        W26154   1.700   1.486   2.067 -0.0683  0.1962 -0.1947
10081W        W26155   0.474   7.134  14.105  0.2288  0.1554 -0.1185
10082W        W26156   9.950   6.439  10.821 -0.0988  0.1166 -0.3649
10083W        W26157  11.555   1.233   3.268 -0.0774  0.3517  0.5338
10084W        W26158   1.125  19.215   4.718  0.0641 -0.1049  0.1668
10085W        W26159   1.112   3.975   3.729 -0.3914 -0.1508 -0.2685
10086W        W26160   3.325   8.165  14.972 -0.5650  0.0561 -0.0407
10087W        W26161  13.576  17.657  10.498 -0.2861 -0.1206  0.2436
10088W        W26162   9.638   8.309  12.027 -0.1127  0.0050 -0.1681
10089W        W26163   9.281   5.166  13.722 -0.0478  0.3197 -0.0687
10090W        W26164   0.317  14.839   0.559 -0.1787 -0.1944 -0.1177
10091W        W26165   1.672  18.550  10.808 -0.0147  0.2063 -0.1887
10092W        W26166   6.530   9.210   3.082  0.0546 -0.2393 -0.2075
10093W        W26167   3.098   5.525  14.098  0.1335  0.2202  0.1404
10094W        W26168   3.309  14.624  11.519 -0.2756  0.0772 -0.1037
10095W        W26169  16.282   7.559   5.228 -0.1534  0.1654 -0.1925
10096W        W26170  19.081  10.456  11.367 -0.0827 -0.1441  0.1056
10097W        W26171  11.526  12.030   2.905 -0.0063  0.2567  0.2717
10098W        W26172   0.777  14.307   3.009  0.3702  0.1827 -0.1814
10099W        W26173   3.731  14.306  12.291  0.1083  0.1232 -0.0599
10100W        W26174   0.987   6.441  14.862 -0.1401 -0.0118 -0.1184
10101W        W26175  18.581   4.888   0.324  0.0394 -0.4707  0.1639
10102W        W26176  11.761  10.724   2.462  0.1953 -0.0424  0.4820
10103W        W26177  13.359  16.630   1.593 -0.2315 -0.3600  0.0067
10104W        W26178   4.145  16.211   2.719 -0.0133  0.0012 -0.0492
10105W        W26179   7.594   0.611  10.760 -0.0570 -0.2429 -0.0416
10106W        W26180   9.808   5.977  13.580  0.1623 -0.2528 -0.0655
10107W        W26181  15.442  11.070   0.482 -0.1286  0.2029  0.0046
10108W        W26182  19.071   2.261  12.173  0.0046 -0.3268  0.3629
10109W        W26183  14.519   4.369   3.652 -0.0680 -0.0280 -0.0851
10110W        W26184  17.636   9.500   2.374 -0.0149 -0.1003 -0.2441
10111W        W26185  15.880  11.391   0.807  0.1201  0.2656  0.0985
10112W        W26186  10.823  14.425  14.161  0.0561 -0.1968 -0.1382
10113W        W26187  17.147   7.351  11.072 -0.1859  0.3229 -0.1047
10114W        W26188  13.477   6.207  10.653 -0.2139  0.0619  0.1212
10115W        W26189  14.995   6.395   1.730 -0.0424  0.2078  0.0338
10116W        W26190   4.898   3.923   4.895 -0.2141 -0.0815  0.0905
10117W        W26191  16.408   6.265  13.690  0.1661  0.0429 -0.1721
10118W        W26192  18.970  14.011   3.939 -0.3838  0.5396  0.2383
10119W        W26193  15.058   6.081  10.963 -0.0086  0.2695 -0.0388
10120W        W26194  17.396  12.457   2.393  0.0731  0.0362  0.2391
10121W        W26195  16.188  10.823   4.308  0.2939 -0.4087 -0.3264
10122W        W26196  11.341  14.796   4.373  0.3197 -0.3289 -0.2381
10123W        W26197  11.687  11.238  12.932 -0.1091  0.0554  0.0995
10124W        W26198   0.856   0.454  10.852 -0.0002 -0.4381  0.1516
10125W        W26199   3.688   1.763  12.330 -0.3318 -0.1721 -0.0209
10126W        W26200  10.307   2.285  10.439  0.2196  0.1723  0.2946
10127W        W26201  14.716  10.380  14.663 -0.3453 -0.0018  0.1239
10128W        W26202   1.727  17.909   4.693  0.3027  0.2362 -0.2081
10129W        W26203   1.535  15.493  11.675  0.1895 -0.0476 -0.2022
10130W        W26204  15.905  11.466   1.314  0.1512 -0.2262  0.1997
10131W        W26205   8.328   6.172  14.157 -0.0613  0.0493  0.0462
10132W        W26206  11.323   4.299  10.627 -0.1694  0.0922 -0.0051
10133W        W26207  10.961  16.619   4.530  0.3258  0.0278  0.1204
10134W        W26208   1.830  14.842  13.908 -0.2813 -0.1096  0.0968
10135W        W26209  15.953   4.021   5.482 -0.1082 -0.0378 -0.1041
10136W        W26210  11.875   8.963   3.050  0.2743 -0.7149 -0.0809
10137W        W26211   5.844   5.274   4.219 -0.1571  0.0292 -0.1836
10138W        W26212  14.847  13.519  12.326 -0.1371  0.1308  0.1401
10139W        W26213   1.018   0.812   0.974 -0.2836 -0.2096 -0.2245
10140W        W26214   2.632  13.032   0.654 -0.0409  0.3494  0.0595
10141W        W26215  12.847  10.798   3.372  0.0196 -0.1812  0.2880
10142W        W26216  14.815   6.665  14.661  0.0428  0.0286 -0.0238
10143W        W26217   6.508   7.542   2.545 -0.0297  0.2413 -0.2551
10144W        W26218  18.301  12.740  13.898  0.1780 -0.0313  0.1574
10145W        W26219   8.396   1.497  14.391 -0.0868  0.0331 -0.1353
10146W        W26220  17.483   0.413   0.603  0.1998 -0.1075  0.2813
10147W        W26221  16.247   8.722  14.632  0.2718 -0.1264  0.0760
10148W        W26222   9.614  12.828  12.428 -0.1640 -0.0275 -0.0599
10149W        W26223  10.301  12.508   0.276  0.0387  0.0974 -0.1748
10150W        W26224  19.013  18.889  11.848  0.0116  0.0793 -0.1413
10151W        W26225   8.952  12.683  12.344 -0.1989 -0.1757  0.0781
10152W        W26226  17.066   3.824   4.081  0.0101 -0.1175  0.3373
10153W        W26227   2.585  17.872   3.102 -0.0388  0.1877 -0.0419
10154W        W26228   8.159  17.231   1.759 -0.2512  0.0726  0.1076
10155W        W26229   5.381   8.032  13.695 -0.3628 -0.0522  0.4871
10156W        W26230   3.144  18.769   0.862  0.4329 -0.4404  0.1381
10157W        W26231   9.303   3.712  11.467 -0.0005  0.0272  0.2558
10158W        W26232  10.642  14.651  11.598 -0.0281 -0.4749  0.2022
10159W        W26233   5.906  12.887   3.188  0.1210 -0.1479  0.3010
10160W        W26234   7.924  13.068  13.577 -0.1079  0.2783  0.2358
10161W        W26235  15.058   0.322  13.352  0.3463 -0.0125 -0.2195
10162W        W26236   3.851   4.732  14.204 -0.1393 -0.2290  0.0036
10163W        W26237  17.937  14.971   1.952  0.0728  0.1657 -0.0240
10164W        W26238  18.996   9.557   6.060 -0.1921 -0.2205 -0.0925
10165W        W26239   2.083   1.503   1.558 -0.3785  0.1384 -0.1927
10166W        W26240   4.860  12.290   1.906  0.2329  0.0480 -0.2022
10167W        W26241  16.565   8.463  14.127  0.0686 -0.0104  0.1504
10168W        W26242   7.392   6.670   5.991  0.0551 -0.0602 -0.1731
10169W        W26243  15.817   4.191   2.073 -0.3637 -0.1089 -0.0788
10170W        W26244   8.098   4.633   2.110 -0.0406 -0.2052 -0.0919
10171W        W26245   6.642  13.286   3.795 -0.1279  0.0760  0.2641
10172W        W26246  10.923   1.620  11.936  0.1699  0.2792 -0.1776
10173W        W26247   2.324  19.065  13.844 -0.5245 -0.0462 -0.3757
10174W        W26248   5.043   8.658   1.268 -0.0095 -0.0359  0.1506
10175W        W26249   7.193   0.623   0.878  0.0605  0.2323  0.2580
10176W        W26250  16.300   5.228   2.767 -0.1968  0.0935  0.2991
10177W        W26251  14.604   3.496   0.355  0.2903 -0.3320  0.1508
10178W        W26252  11.625   3.891   4.911 -0.1097  0.0437  0.0210
10179W        W26253  12.813   8.517  11.174  0.0061 -0.0138  0.2763
10180W        W26254  15.047   3.678  14.653 -0.1052 -0.0819  0.2344
10181W        W26255   3.188   6.038   2.043  0.1905  0.2801  0.1431
10182W        W26256  18.044  18.580  11.431 -0.3148  0.0908  0.0571
10183W        W26257  15.595  18.164   2.944 -0.0189  0.0009  0.1607
10184W        W26258  17.041  18.509  11.598  0.2391  0.1837 -0.0323
10185W        W26259  17.471  13.016  11.155 -0.3049  0.0721 -0.0719
10186W        W26260   6.454  17.568  14.637 -0.1170  0.1312 -0.1152
10187W        W26261   5.889  10.026   3.160 -0.1155  0.1655  0.1444
10188W        W26262   7.141   6.566  13.763  0.2753 -0.2957 -0.0665
10189W        W26263  11.006  11.217   2.376 -0.1327  0.1252  0.0221
10190W        W26264  14.794  17.162   4.825  0.2486 -0.1432 -0.1298
10191W        W26265  10.576   7.568  13.213  0.2390 -0.2392  0.4724
10192W        W26266  18.349   7.935   1.286 -0.0243  0.1650 -0.2239
10193W        W26267  16.127  12.732  12.298  0.1035 -0.1674  0.0952
10194W        W26268  12.431  12.227   3.205 -0.0594 -0.1249  0.0646
10195W        W26269  15.072  12.534   5.074 -0.0841 -0.0224 -0.2507
10196W        W26270   0.433   7.896   5.204 -0.0913  0.0114  0.0974
10197W        W26271   8.743  13.223   0.862  0.2259 -0.2678 -0.0641
10198W        W26272  17.741   2.075   4.125  0.0579  0.1209  0.1188
10199W        W26273  17.157  17.157   0.288 -0.2408 -0.0980 -0.1675
10200W        W26274   2.703   2.957   1.989  0.0852  0.0113 -0.1409
10201W        W26275  16.347  19.141  14.758  0.0190 -0.2147  0.0838
10202W        W26276   8.087  18.595   3.148 -0.4218  0.2335 -0.2392
10203W        W26277   6.919   7.477   0.910  0.0749 -0.0776  0.0776
10204W        W26278   9.037   7.494   0.362 -0.0883 -0.2183  0.1533
10205W        W26279   5.452  14.696  12.680  0.4021  0.0736  0.2444
10206W        W26280   7.882  10.468   0.780 -0.1116  0.1378  0.1008
10207W        W26281  13.678   1.317  14.975  0.2400  0.2084  0.2536
10208W        W26282   5.904   0.742   3.461 -0.1929 -0.4096  0.1636
10209W        W26283  10.198   7.883  12.881 -0.1812 -0.0714 -0.4287
10210W        W26284  10.313   0.127  13.263  0.2560  0.0030 -0.0982
10211W        W26285   1.816  13.699   1.296 -0.1162 -0.3065 -0.1389
10212W        W26286   0.917   7.286  13.184 -0.1459 -0.0558  0.2307
10213W        W26287   5.753  15.051  10.882  0.2504  0.3621 -0.2201
10214W        W26288  15.039  14.963  12.405 -0.2845  0.2497 -0.0087
10215W        W26289  13.260   4.515  13.853  0.0698  0.1340  0.1418
10216W        W26290   9.461  14.280   1.182  0.0589 -0.0867 -0.2799
10217W        W26291   0.607   2.015   1.336 -0.5246 -0.0865 -0.1131
10218W        W26292   4.668   3.126   4.165  0.0960 -0.1089  0.1721
10219W        W26293   3.995   5.156   4.606 -0.1353 -0.0429 -0.1642
10220W        W26294   5.277  13.906  10.917  0.0233  0.3391 -0.0887
10221W        W26295  17.639   0.384  12.117 -0.1701  0.1190 -0.1958
10222W        W26296  16.461  12.545  11.803  0.0548 -0.1572 -0.0317
10223W        W26297  15.880   8.941  13.685  0.0708 -0.0090  0.0090
10224W        W26298  14.350  12.189  10.680 -0.3142  0.1053 -0.1205
10225W        W26299   2.530   4.286  14.869  0.1150  0.0031 -0.1798
10226W        W26300  17.840   8.317  13.373  0.2049  0.1086 -0.0387
10227W        W26301   4.592   5.846   0.799  0.4191  0.3134  0.4026
10228W        W26302  17.530   6.973   4.187  0.3422 -0.0583  0.3718
10229W        W26303   5.948  15.508   4.234 -0.1500 -0.0410 -0.2678
10230W        W26304   5.317   6.428  11.591  0.0545  0.0767  0.0716
10231W        W26305  14.105  11.617   1.139 -0.1809 -0.0580  0.3399
10232W        W26306  18.124  12.920  11.027  0.2698 -0.0449  0.0635
10233W        W26307   3.769  14.853  12.831  0.2899 -0.2701  0.2691
10234W        W26308   2.745   8.776   2.935  0.0970 -0.0131  0.0053
10235W        W26309  16.558   6.636  13.331 -0.2484  0.0600  0.1560
10236W        W26310   0.713  11.615  13.096  0.0102  0.5446 -0.1669
10237W        W26311  15.848  15.584   1.094 -0.2010  0.0933  0.1985
10238W        W26312  17.505   8.843   2.711  0.3598 -0.1430 -0.0885
10239W        W26313  15.154   7.423  10.951  0.0898  0.0505  0.0879
10240W        W26314   1.389  11.378  13.764 -0.1377  0.4361  0.1526
10241W        W26315   7.762  14.055   2.981  0.2155  0.2638 -0.0847
10242W        W26316   6.209   5.955   1.601 -0.0224  0.1456  0.2545
10243W        W26317  11.278   7.334   0.895  0.1259 -0.0686 -0.0084
10244W        W26318  18.618   6.524  14.680  0.0027 -0.3277  0.1582
10245W        W26319   9.269  17.740   4.127 -0.0835  0.6211 -0.0616
10246W        W26320  14.703  11.622   1.580 -0.1311 -0.0204 -0.3052
10247W        W26321   4.924  17.597  13.085 -0.0328  0.1981 -0.1850
10248W        W26322  13.716  18.001   9.258  0.0869  0.0283  0.2393
10249W        W26323   7.779   2.442   1.270  0.0279 -0.0377  0.1394
10250W        W26324  18.511   9.279   1.912 -0.0780 -0.2786  0.2251
10251W        W26325  12.593  16.886   1.903  0.0452  0.1425  0.3206
10252W        W26326   3.166  13.334   5.452  0.2028  0.1608 -0.1712
10253W        W26327  17.771  10.133  13.410  0.1816 -0.1814 -0.0341
10254W        W26328   9.434   1.606  11.051 -0.2463  0.1383 -0.0995
10255W        W26329   0.684  14.365  14.674 -0.0825 -0.1634 -0.2754
10256W        W26330  11.664  18.730   3.947 -0.0038  0.1066  0.0485
10257W        W26331  11.875  16.428   9.666  0.0052 -0.2107  0.0807
10258W        W26332   5.882  12.040  13.199  0.0483  0.2301  0.1081
10259W        W26333  17.504   5.595   5.151 -0.1969 -0.0634 -0.0302
10260W        W26334   5.565  15.821   0.019  0.1431 -0.0083 -0.0104
10261W        W26335  13.729  16.576   0.417  0.1314 -0.1465  0.1808
10262W        W26336   1.482  16.098  11.400  0.0694 -0.0743  0.2091
10263W        W26337   7.571  11.665   0.674 -0.0164  0.1279  0.0485
10264W        W26338   1.736  13.580  12.061 -0.1212 -0.0208 -0.2307
10265W        W26339   2.531   9.534   2.383  0.0738 -0.2352 -0.3739
10266W        W26340   8.484   8.488   1.064  0.0291 -0.1774  0.0397
10267W        W26341  18.750  15.282   1.506  0.2407  0.0373 -0.1273
10268W        W26342   9.454  14.305   0.316 -0.1046  0.0469  0.2706
10269W        W26343   8.804   2.152   1.748 -0.0684 -0.1066 -0.2074
10270W        W26344   6.887  18.471   0.601  0.0004  0.2327  0.3204
10271W        W26345  12.304   8.480  11.110  0.2131 -0.0104 -0.3348
10272W        W26346   3.141   2.652  14.029 -0.2929  0.4774 -0.2454
10273W        W26347   4.620   5.768  13.885  0.4692 -0.2650  0.2090
10274W        W26348  11.970  11.365   4.697  0.2054 -0.0813  0.4699
10275W        W26349  12.165   9.246   0.229 -0.2454  0.0991  0.4646
10276W        W26350  12.207   4.003  12.795  0.2009 -0.3192 -0.0721
10277W        W26351  17.444  11.243   1.548 -0.2188  0.0222  0.2278
10278W        W26352   6.656   9.715   3.684  0.0111 -0.1295 -0.1717
10279W        W26353  18.995  10.036   3.523  0.0898 -0.4892  0.1932
10280W        W26354  12.113   7.792  14.199 -0.2020 -0.4216 -0.0484
10281W        W26355  19.015   2.430   1.285 -0.0511 -0.1850 -0.0013
10282W        W26356   3.331   6.331   2.433 -0.2399  0.0488  0.4139
10283W        W26357  12.992  16.346   4.566 -0.0686 -0.2103 -0.1929
10284W        W26358   7.791   8.646   2.886 -0.2000 -0.1455  0.0845
10285W        W26359  10.825  16.889  11.656 -0.0300 -0.2218  0.1478
10286W        W26360   1.471  12.790   5.356  0.4428  0.6546 -0.0861
10287W        W26361  15.301  18.851   9.906 -0.1448 -0.1655  0.0262
10288W        W26362  12.197   1.673  14.644  0.2757  0.1917  0.1192
10289W        W26363   1.435   7.305   1.922  0.3006  0.3280 -0.4185
10290W        W26364  18.438   8.480  11.198  0.0539  0.1486  0.2300
10291W        W26365   7.304  17.069   9.316 -0.0586  0.0702 -0.2883
10292W        W26366  18.050   6.727   1.597  0.1388  0.1140  0.2433
10293W        W26367  19.213   3.856  12.421  0.4286 -0.0098  0.1021
10294W        W26368  17.028   3.699  12.352  0.0366 -0.1641 -0.0278
10295W        W26369  10.590   8.459  13.654  0.1458 -0.2353 -0.3748
10296W        W26370  18.657  15.866  11.211 -0.1662 -0.3666 -0.0816
10297W        W26371   8.164   0.255  13.884 -0.2618 -0.0756 -0.5319
10298W        W26372   1.620   4.948  14.980 -0.2067 -0.1991  0.0699
10299W        W26373   3.080   6.021  14.032 -0.1813 -0.0766 -0.1214
10300W        W26374   2.333  18.297  14.325 -0.0309  0.4016 -0.1598
10301W        W26375   4.667   3.019  12.522  0.1926 -0.1373 -0.3645
10302W        W26376  16.802  16.060   3.265 -0.0643  0.0851  0.1545
10303W        W26377  14.204   4.534   4.091 -0.2099 -0.2764  0.2730
10304W        W26378  18.732   2.713   2.705 -0.1544 -0.2465 -0.1987
10305W        W26379  15.562   5.893   3.059  0.1422 -0.1492  0.1053
10306W        W26380   1.885   8.048  13.582  0.0331  0.0068  0.0730
10307W        W26381   5.701   8.952   0.769  0.2635 -0.0382  0.0290
10308W        W26382   6.216   0.182   2.412  0.0809  0.0271  0.2036
10309W        W26383   8.696   4.989   3.825  0.2484 -0.1728  0.2016
10310W        W26384   8.362  12.105   1.521  0.0944 -0.5193  0.0450
10311W        W26385   3.429  12.042  14.735 -0.2072 -0.0790 -0.2605
10312W        W26386  14.530  18.796   5.711  0.1938 -0.2847 -0.1138
10313W        W26387  18.409   7.995  11.542 -0.0935  0.0479  0.4683
10314W        W26388  12.716   9.563  14.657  0.3064 -0.0704 -0.1667
10315W        W26389  11.534   9.137  11.484 -0.2493 -0.1871  0.0424
10316W        W26390  15.840   1.459  13.451 -0.0169 -0.2938  0.2226
10317W        W26391  19.203  17.963  11.084 -0.1970 -0.0583  0.2195
10318W        W26392  10.051  18.775   1.476 -0.2277  0.4711 -0.0117
10319W        W26393  16.676  15.959   1.585 -0.2344  0.2471  0.0156
10320W        W26394   1.350  10.895  12.672  0.1036  0.1946 -0.2808
10321W        W26395   7.285  19.280   2.284  0.1832 -0.0422 -0.0244
10322W        W26396   1.923   8.447   1.683  0.0147  0.1002  0.1886
10323W        W26397   8.549   4.111   0.567 -0.1822  0.5511 -0.1330
10324W        W26398  11.161  12.581   3.699  0.0557 -0.2778 -0.1755
10325W        W26399   7.202  18.906   0.653  0.0777 -0.0406  0.0143
10326W        W26400   1.260  15.962  14.080  0.3944 -0.0762  0.1153
10327W        W26401  10.402  14.500   3.200  0.0137  0.4031  0.0773
10328W        W26402   1.067  10.276  13.085 -0.0613 -0.2288 -0.0363
10329W        W26403  11.606   8.854  13.841  0.1093  0.0650 -0.2365
10330W        W26404   9.470   9.947  12.590  0.6560 -0.0896 -0.3159
10331W        W26405  12.634   4.715  11.648 -0.0481  0.3533 -0.1773
10332W        W26406   2.481  19.006   0.224  0.2182  0.0372 -0.2873
10333W        W26407  12.196  10.651  10.752  0.1642  0.4009 -0.0622
10334W        W26408   2.251   1.863   2.935 -0.0419 -0.1171 -0.3781
10335W        W26409   3.126   9.250   1.239 -0.0179  0.0234  0.1663
10336W        W26410   8.026  15.651  10.188 -0.2518  0.1138 -0.0186
10337W        W26411   2.918  10.216   4.501 -0.0033 -0.2040  0.0936
10338W        W26412   7.504  15.660   4.434  0.1272 -0.2556  0.3234
10339W        W26413  17.992  18.778   4.932 -0.0426  0.1823 -0.1708
10340W        W26414   5.689  15.963   3.663  0.1529  0.1999  0.0272
10341W        W26415  17.658  19.168  10.636  0.1363  0.1101  0.1544
10342W        W26416  12.054  13.033   2.199 -0.3162 -0.0177 -0.3213
10343W        W26417  12.859   2.164  11.138  0.3690 -0.2673 -0.1015
10344W        W26418   5.738   4.747  10.448 -0.3204  0.1484 -0.3371
10345W        W26419   0.315  17.907  14.033  0.0768 -0.3846  0.3307
10346W        W26420   1.885   9.611  12.330  0.1548  0.0024 -0.1014
10347W        W26421  10.480   0.395   2.505 -0.0259 -0.1381  0.0942
10348W        W26422  16.499  10.039   5.499  0.0720 -0.0150 -0.0450
10349W        W26423  19.068  18.763   1.728  0.0610  0.0893  0.0394
10350W        W26424  15.589  15.450   0.388 -0.0327 -0.3956  0.0133
10351W        W26425   0.619  12.747   5.036  0.2071  0.1226 -0.0435
10352W        W26426   5.455  18.115   2.882 -0.0579  0.1473  0.0295
10353W        W26427   9.387  18.131  13.866  0.0462  0.2451 -0.0387
10354W        W26428  14.383   5.214   1.101  0.1589  0.0865 -0.0182
10355W        W26429   6.460   3.309  11.495 -0.4427 -0.0193 -0.0459
10356W        W26430  16.057   1.052   4.651  0.1573 -0.0902  0.0085
10357W        W26431  16.964  10.375   0.118  0.2446  0.0866  0.1114
10358W        W26432   1.803  13.682  11.420  0.0245  0.0980 -0.0668
10359W        W26433   0.100   9.399   4.856 -0.2336 -0.2116 -0.1299
10360W        W26434  14.260  16.098   3.118  0.2194 -0.0520  0.1307
10361W        W26435   8.699  15.354  12.057  0.0615 -0.1018 -0.1109
10362W        W26436   5.715   3.216   1.020  0.2193  0.0266  0.4772
10363W        W26437   6.516   7.122   1.083  0.0930 -0.0023  0.1088
10364W        W26438  12.350   1.257   5.210 -0.0009 -0.1020 -0.0691
10365W        W26439  12.660   7.162   5.581  0.1931 -0.1851 -0.0292
10366W        W26440  12.942  14.000  13.686  0.2676 -0.0555  0.5255
10367W        W26441   1.844  13.798   4.635  0.2693 -0.0684 -0.0007
10368W        W26442  11.676   9.494  13.772  0.1358  0.0209  0.1974
10369W        W26443  17.799   0.953   3.470  0.0678 -0.1290  0.1701
10370W        W26444   1.840  14.260  11.392 -0.1563 -0.0009 -0.0537
10371W        W26445   1.477  12.741   0.563 -0.3655 -0.0389  0.0023
10372W        W26446   0.724   6.940   3.261 -0.1352  0.1489  0.1574
10373W        W26447   2.258  16.564   2.306 -0.1192 -0.1009  0.0019
10374W        W26448  15.060  10.053   3.071 -0.0836  0.2448  0.1578
10375W        W26449  11.747  15.390   0.251 -0.1652  0.0299  0.1063
10376W        W26450  14.271  14.403  14.538  0.4981 -0.0065  0.1468
10377W        W26451   6.173  12.024  11.316 -0.0975  0.0375 -0.1942
10378W        W26452  16.272   7.721   3.922  0.0617  0.0839 -0.3729
10379W        W26453   4.956   6.443   1.406 -0.2767  0.3773  0.0850
10380W        W26454   8.656  11.685  11.499  0.1953 -0.2033  0.1028
10381W        W26455   5.440  10.327   1.680 -0.1080 -0.0744  0.0179
10382W        W26456  18.909  16.812  14.715  0.0012  0.1900  0.3311
10383W        W26457  19.010   9.567   5.080 -0.0603  0.0574 -0.1078
10384W        W26458   4.818   9.437  12.607 -0.4034  0.1520  0.0146
10385W        W26459  15.956   7.576   4.881  0.0206  0.0451 -0.1842
10386W        W26460  16.586   4.584   4.775  0.2030 -0.1506  0.1975
10387W        W26461   3.408   6.475   1.839 -0.2461  0.2318  0.0715
10388W        W26462  16.578  13.362  12.977 -0.3202  0.0878  0.0845
10389W        W26463   1.287   8.018   2.264 -0.2667 -0.1767  0.1372
10390W        W26464  14.480   3.246   4.146 -0.1233 -0.3009 -0.1629
10391W        W26465  11.918   7.742   3.502 -0.2296  0.0305 -0.0076
10392W        W26466   4.257  10.720  13.019 -0.3693 -0.0491  0.1866
10393W        W26467  18.976   7.453  11.634  0.2972 -0.0633  0.0589
10394W        W26468   6.178  11.596   1.722  0.0378  0.1635  0.1720
10395W        W26469  10.767  12.037  11.230 -0.2685  0.0224  0.0270
10396W        W26470   0.812   5.384  12.001 -0.0041 -0.0059  0.0738
10397W        W26471  17.886  13.664   0.724 -0.1266 -0.3173  0.1176
10398W        W26472   4.314   2.264  11.365  0.1622 -0.1040 -0.0555
10399W        W26473   6.418   0.816   0.406 -0.0427  0.0300 -0.0181
10400W        W26474  13.038   8.390  13.476  0.1653  0.0842 -0.0725
10401W        W26475   3.093   0.174   2.373  0.1294 -0.0157 -0.2358
10402W        W26476  11.203   2.716   3.559  0.0910 -0.0025  0.0376
10403W        W26477   3.146  18.366   3.858  0.1862  0.2473 -0.2049
10404W        W26478  18.175   1.908   1.325 -0.0663 -0.0485  0.2042
10405W        W26479  19.164   8.787   6.035  0.1208 -0.1017  0.1484
10406W        W26480  11.417  15.423   1.360 -0.0942  0.1178 -0.0041
10407W        W26481   6.596   5.200  10.458 -0.0987 -0.2142  0.1530
10408W        W26482  14.006  11.258   3.938 -0.2043 -0.1035  0.0750
10409W        W26483   5.188  10.961   0.813 -0.1278 -0.0537  0.1327
10410W        W26484  15.834   3.447   3.961  0.2819 -0.1050 -0.0019
10411W        W26485  13.368   5.788   4.923  0.1092  0.2539  0.1548
10412W        W26486  10.567   6.120   9.988 -0.0159  0.1686  0.2616
10413W        W26487   8.764  18.467   3.795  0.0889 -0.0637 -0.1830
10414W        W26488  12.438  15.894   9.970  0.1366 -0.0915 -0.1212
10415W        W26489   4.741  12.977   1.328  0.1960  0.1035  0.2550
10416W        W26490  18.837   9.476   5.576  0.0173  0.1387 -0.2416
10417W        W26491   2.012  11.507   3.671 -0.3640 -0.0705 -0.1938
10418W        W26492  10.478  16.558  11.492  0.0883  0.0283  0.0423
10419W        W26493  13.347   1.540   0.870 -0.0643 -0.0624  0.3509
10420W        W26494   6.367  17.445   0.517  0.2942  0.0149  0.1018
10421W        W26495   2.519  19.255   3.275 -0.0496  0.0092  0.1940
10422W        W26496  16.537   1.130   4.810  0.2320  0.0533  0.0782
10423W        W26497   2.118  18.056  13.904 -0.2214 -0.0268 -0.0775
10424W        W26498   5.270   1.558   0.085  0.0740  0.2683 -0.2010
10425W        W26499  17.750  17.551  13.709 -0.0448  0.0019  0.1083
10426W        W26500   8.816   8.077  11.466 -0.2363  0.0555 -0.0735
10427W        W26501  15.353  18.947  12.466 -0.1022 -0.0303  0.0559
10428W        W26502  15.191  18.091   4.836  0.0858 -0.0840  0.2506
10429W        W26503   3.359   5.285  11.825 -0.4101  0.1283  0.0326
10430W        W26504  16.474  10.850   0.599 -0.1022  0.2032 -0.2223
10431W        W26505   1.737   8.336  12.694 -0.0401  0.2962  0.0092
10432W        W26506   1.775  18.393  12.029 -0.3079 -0.1353 -0.2989
10433W        W26507  10.655   0.278   3.428  0.1315 -0.1024  0.1240
10434W        W26508   3.813   8.002   0.054  0.3612 -0.2464 -0.1600
10435W        W26509   9.542  13.031  13.769 -0.2359 -0.0689 -0.1334
10436W        W26510   9.923   3.165  12.510  0.0791  0.0757  0.1451
10437W        W26511   0.139   1.689  12.721 -0.0980 -0.1107  0.2492
10438W        W26512  14.710   2.103  10.552 -0.0247  0.0105  0.0635
10439W        W26513  15.037  17.315   2.860  0.1078 -0.0385  0.0065
10440W        W26514   1.197  16.812   9.565  0.2466  0.0593 -0.4948
10441W        W26515   5.515   8.630   1.137  0.0363  0.0335  0.3526
10442W        W26516   5.384   6.198  10.810 -0.1578  0.2014 -0.1122
10443W        W26517  14.829  18.285   4.031 -0.0799 -0.1761  0.2342
10444W        W26518   5.807   7.581  13.254 -0.1684  0.1276  0.0084
10445W        W26519   9.575   1.037   1.387 -0.4066 -0.0994 -0.0921
10446W        W26520   3.513   5.948  13.373 -0.2543  0.2114 -0.2031
10447W        W26521   8.061   6.177   2.506  0.0038  0.1056  0.1193
10448W        W26522   2.122  17.797   3.373  0.0402  0.0557  0.1126
10449W        W26523   0.455   7.053  13.508 -0.0203 -0.3547 -0.3955
10450W        W26524   0.015  14.886   0.099 -0.1031  0.0541  0.0390
10451W        W26525  11.600   8.145   9.844  0.0585 -0.1480 -0.1835
10452W        W26526   8.099  14.656   4.780 -0.3249 -0.0246 -0.6006
10453W        W26527  17.124   9.616  11.532 -0.2184  0.0627 -0.0035
10454W        W26528  17.720   4.958   0.309 -0.1140  0.3929 -0.2088
10455W        W26529  13.295  11.431   2.487  0.2272 -0.3951 -0.2471
10456W        W26530   6.248   4.471   3.975 -0.1114 -0.2343  0.3088
10457W        W26531  11.473   8.494  14.954 -0.0258  0.1014 -0.2894
10458W        W26532  10.831  17.523   1.410  0.1358 -0.0166 -0.0804
10459W        W26533   6.031  18.831   0.434 -0.3594 -0.0309 -0.1227
10460W        W26534  15.936  19.019   1.981 -0.1421 -0.1959  0.0245
10461W        W26535   7.250  18.401  14.893 -0.0537  0.1219  0.2225
10462W        W26536  14.221  19.056  13.368 -0.0706 -0.2225  0.1611
10463W        W26537  14.033   5.262  12.445 -0.0040  0.1961 -0.0787
10464W        W26538   5.519   2.434   9.085  0.2583  0.1675  0.2587
10465W        W26539  11.682   1.552   1.864  0.0869 -0.3531  0.0827
10466W        W26540  17.320   7.200  12.117  0.0118 -0.0180  0.0132
10467W        W26541  11.243   6.225   4.715 -0.2348 -0.1057 -0.0634
10468W        W26542   8.391  13.506  14.878  0.1057 -0.0966 -0.0621
10469W        W26543  13.050  18.694  11.630 -0.2381  0.0051 -0.0942
10470W        W26544   5.926   5.888   0.077 -0.0374  0.2049  0.2506
10471W        W26545   6.550   8.570   5.067  0.1382 -0.3676 -0.2656
10472W        W26546  15.130  11.970   4.351  0.0534 -0.3091  0.0281
10473W        W26547  18.374  18.064   5.680  0.0608 -0.0654  0.0621
10474W        W26548   9.808  12.427  11.029  0.0794  0.0099 -0.4075
10475W        W26549   0.391   8.626   1.188 -0.1822 -0.1278  0.0064
10476W        W26550   9.724   9.344  10.965 -0.0370 -0.0734 -0.0737
10477W        W26551  14.682   5.549  14.236 -0.1382  0.0011  0.2996
10478W        W26552  18.196  15.011  12.642 -0.1417 -0.1364  0.1504
10479W        W26553  14.593   2.847   0.110  0.2136 -0.2198 -0.0421
10480W        W26554   2.690  16.546  11.776 -0.1998 -0.1778  0.0750
10481W        W26555   0.612   4.687  11.558 -0.0224  0.2682 -0.0504
10482W        W26556   8.211  17.215  12.801 -0.2755 -0.1083 -0.2384
10483W        W26557  17.115   1.493   0.595  0.0408  0.1007  0.0728
10484W        W26558  15.807  15.564   4.956  0.1663 -0.1834 -0.2538
10485W        W26559   9.772   8.896  13.820 -0.1175 -0.0568 -0.4697
10486W        W26560  11.908  13.115   3.559  0.2748 -0.0106  0.1357
10487W        W26561  14.659  11.620   3.774  0.2341  0.0182 -0.1455
10488W        W26562   2.830   5.618   4.768  0.0813  0.0811  0.0205
10489W        W26563   0.854  16.200  11.399  0.0388  0.1858 -0.1975
10490W        W26564  14.139   7.705   0.467  0.1542  0.1899  0.0815
10491W        W26565  10.599   8.035  11.809  0.0575 -0.3098  0.1794
10492W        W26566   1.293   6.460   4.248 -0.3939 -0.0517  0.1019
10493W        W26567   4.873  12.698   0.011  0.3059 -0.2672  0.0190
10494W        W26568  19.254   5.413   2.408  0.1585  0.1228  0.1711
10495W        W26569  13.913   5.792   1.584 -0.0938  0.2446 -0.1497
10496W        W26570  14.529  16.078   0.442  0.0578  0.0501 -0.0046
10497W        W26571   6.884   2.591  13.683 -0.0137 -0.1969  0.1545
10498W        W26572  14.471  17.833  12.034  0.0689  0.2466 -0.1710
10499W        W26573  12.788   4.378  13.591 -0.1150  0.0669  0.1547
10500W        W26574  16.815   8.952   5.706 -0.0386  0.2441 -0.2847
10501W        W26575   9.805  19.171  11.110 -0.0959  0.1294  0.0919
10502W        W26576   7.045   5.679   0.402 -0.0941  0.1007  0.0903
10503W        W26577   6.703   8.710  13.445 -0.1196 -0.0004  0.0046
10504W        W26578  16.034  15.851   4.609  0.0831 -0.1957  0.0808
10505W        W26579   6.949  13.476   1.194  0.0233  0.0204 -0.1673
10506W        W26580   3.798   8.356  13.011  0.4375  0.2553 -0.1299
10507W        W26581  15.520   3.955   0.484  0.1334 -0.0353  0.1051
10508W        W26582  18.900  12.976   2.301 -0.1003  0.0538 -0.1589
10509W        W26583   0.074   9.624  13.053 -0.1676 -0.0550 -0.2902
10510W        W26584   5.368   1.983   9.814 -0.2384 -0.1104  0.0467
10511W        W26585  18.734   9.635   1.136  0.1560  0.2189 -0.1565
10512W        W26586   2.165  14.007   3.053  0.1549 -0.0071  0.0834
10513W        W26587   9.185   4.755  10.741 -0.2062  0.3118 -0.1861
10514W        W26588   1.690  11.035   4.759 -0.0069 -0.0139 -0.2281
10515W        W26589   3.421   8.409   1.332 -0.0371 -0.2434 -0.0791
10516W        W26590  15.534   1.515  12.401  0.1872  0.0889  0.0224
10517W        W26591   3.201  18.487  14.015 -0.2131 -0.2335  0.4035
10518W        W26592  11.378  13.025   3.580  0.1524  0.2837  0.0244
10519W        W26593  11.095   1.464   1.822  0.1885  0.0090  0.2262
10520W        W26594  13.545  11.989   0.281  0.1330  0.0564 -0.0523
10521W        W26595  18.713   7.612   4.271 -0.0315  0.0856 -0.1667
10522W        W26596  13.707  11.106   9.570 -0.3158  0.0509  0.1046
10523W        W26597   5.114  18.881  12.550  0.1596 -0.0272 -0.1989
10524W        W26598   8.883   4.400   2.008 -0.2346  0.2060 -0.0897
10525W        W26599  16.205   2.033  12.649  0.1098  0.0523 -0.1109
10526W        W26600   8.709  17.368  12.038  0.0114 -0.1061 -0.0518
10527W        W26601  18.155   4.368   3.798 -0.2017  0.2721 -0.0261
10528W        W26602  14.468   1.006   4.676 -0.3293  0.4201 -0.0654
10529W        W26603  12.612   4.856  14.879  0.2003 -0.2872 -0.0380
10530W        W26604   4.870   5.035   1.647  0.0101  0.0114  0.2871
10531W        W26605  19.054   2.116  11.410 -0.1143  0.2286  0.1721
10532W        W26606  11.680  18.096  14.850  0.0313  0.1740  0.2739
10533W        W26607  15.049  14.070   5.101  0.1695 -0.0979 -0.0431
10534W        W26608   8.416  18.417  12.535  0.1530  0.2814  0.0017
10535W        W26609   7.246  17.607   1.994  0.0699  0.4417 -0.0069
10536W        W26610   8.834   0.791  11.492 -0.3626 -0.1120 -0.0188
10537W        W26611  19.330   3.183   4.533 -0.0062 -0.1441 -0.2250
10538W        W26612   1.859  15.047  12.502 -0.3838 -0.1164  0.2681
10539W        W26613   3.459  18.786   4.757  0.0265  0.2362 -0.2163
10540W        W26614  10.725   6.624   1.241  0.0668 -0.3391  0.2105
10541W        W26615   3.066   6.181   9.687 -0.2688 -0.4860 -0.2414
10542W        W26616   5.718   4.525   2.291  0.0759 -0.0212 -0.3069
10543W        W26617   8.997   1.951   0.571  0.1393  0.3246 -0.1475
10544W        W26618  10.614   0.487  14.344 -0.3451  0.0701 -0.1663
10545W        W26619  11.212   0.332  13.194  0.4088 -0.1098  0.3270
10546W        W26620   8.324   2.844   3.754  0.0238  0.3429 -0.0900
10547W        W26621   3.547  12.210   4.888  0.0986 -0.0917  0.0976
10548W        W26622   0.073  10.577   4.042 -0.0334  0.1138 -0.3290
10549W        W26623  12.895   9.206  11.880 -0.1336 -0.1625  0.2209
10550W        W26624  16.524  11.613  14.384  0.3015  0.1654  0.2800
10551W        W26625  15.533   6.642  13.360  0.0615 -0.0006 -0.0770
10552W        W26626   8.433   2.008   3.331 -0.3748 -0.1331 -0.1214
10553W        W26627   1.938  14.782  11.002  0.2978 -0.2893 -0.2549
10554W        W26628  10.607   9.593   4.420  0.1932 -0.1167  0.0779
10555W        W26629   7.957   6.738   3.121  0.3175  0.0092  0.0717
10556W        W26630   2.744   6.350   5.868  0.1880 -0.1322  0.1177
10557W        W26631   2.556  14.756   4.571  0.0782 -0.1858  0.3719
10558W        W26632  14.494   1.582   3.379  0.3595  0.0807  0.1141
10559W        W26633   9.552  10.172  11.662 -0.2696  0.2292 -0.1049
10560W        W26634   8.264  17.838   4.213 -0.1506  0.0655 -0.3168
10561W        W26635  16.336  13.608   1.427  0.2198  0.3394  0.1697
10562W        W26636   8.644   4.101   4.301  0.1803  0.0901 -0.0296
10563W        W26637  13.403   5.884   0.377  0.1219 -0.0264  0.0049
10564W        W26638  16.748   6.122  14.546  0.2303  0.1620 -0.0497
10565W        W26639   2.055  12.644  11.533  0.0362  0.0315 -0.0846
10566W        W26640  18.285  18.096  12.555 -0.1378 -0.2097  0.0898
10567W        W26641   7.888  10.336   2.140 -0.1879  0.0081 -0.1439
10568W        W26642   0.420  19.274  14.513 -0.2878  0.1067  0.0186
10569W        W26643   3.700  17.764   2.817 -0.0531  0.0160 -0.2028
10570W        W26644  18.894   7.545   3.795 -0.2180 -0.3144  0.1563
10571W        W26645  11.414   2.385   3.977  0.0407 -0.3598 -0.2356
10572W        W26646  18.302   8.636   4.123 -0.0698 -0.1760 -0.2641
10573W        W26647   7.727   5.641  15.000  0.0166 -0.0468 -0.0639
10574W        W26648  15.738  18.870  11.133  0.1684  0.0027  0.0693
10575W        W26649   2.300  18.289  12.015 -0.2375 -0.1504 -0.0233
10576W        W26650   5.108   8.221   1.083 -0.0082 -0.0324 -0.0398
10577W        W26651   9.505   2.325   4.428  0.0709 -0.1499  0.2402
10578W        W26652   7.229  17.140  14.332  0.1984 -0.2734  0.0588
10579W        W26653  11.971   5.042   2.018 -0.0249 -0.1400  0.3812
10580W        W26654  18.586  18.570   0.327 -0.0970 -0.0561 -0.2431
10581W        W26655  18.598   8.408   1.428  0.3316 -0.1153  0.1022
10582W        W26656  16.946  12.322   5.017  0.1483  0.2694  0.2707
10583W        W26657  15.477   2.761   4.392  0.3748 -0.0036 -0.1404
10584W        W26658  10.899   7.922   0.737  0.3082 -0.0899  0.0369
10585W        W26659  14.200  12.577   4.710 -0.0599 -0.0850  0.4205
10586W        W26660  11.528   0.057  12.871  0.0180  0.0049 -0.2052
10587W        W26661   2.312   0.814   1.543  0.0970  0.0684 -0.3277
10588W        W26662  17.047   0.632  11.893  0.0128 -0.0226 -0.0196
10589W        W26663   6.789  17.749   1.888  0.0639 -0.2728  0.0217
10590W        W26664   2.700  18.267   2.292  0.1490 -0.0715  0.2116
10591W        W26665   7.617   6.669  12.926 -0.0885 -0.2299 -0.0845
10592W        W26666  11.954  16.624  14.786 -0.1868  0.0838  0.2479
10593W        W26667  13.849  19.024  12.178  0.0987  0.4613 -0.2234
10594W        W26668  10.257   2.518  12.953 -0.0773 -0.1570 -0.0850
10595W        W26669   6.994   9.486  10.383 -0.0237  0.0703  0.4299
10596W        W26670   3.815  11.632  11.676  0.0720  0.1092 -0.0741
10597W        W26671  11.408   3.211   0.860  0.1413 -0.1878 -0.1822
10598W        W26672  10.871  10.564   0.367  0.3034  0.0438 -0.0060
10599W        W26673  10.457  15.258  11.316 -0.1547  0.0065  0.0772
10600W        W26674   1.713  15.617  10.346 -0.1043 -0.0486 -0.0546
10601W        W26675  13.101   4.963   5.125  0.0671 -0.2138 -0.0425
10602W        W26676  10.027  14.648  12.981  0.0031 -0.0162 -0.1706
10603W        W26677   8.390   7.680   4.643  0.1907  0.0607  0.1783
10604W        W26678  13.904   6.128   6.297  0.1336  0.1008 -0.2712
10605W        W26679  19.246   0.419   3.614 -0.3564 -0.0763  0.0906
10606W        W26680   9.976  15.804  10.163  0.0685  0.1760 -0.3505
10607W        W26681   1.535  11.035  14.302  0.2309  0.1933  0.1482
10608W        W26682  15.247   1.548  12.832  0.0924  0.2345 -0.1887
10609W        W26683   4.976  12.034  12.162 -0.1975 -0.0676 -0.1783
10610W        W26684   5.934   3.782   3.128  0.1319 -0.3027  0.1640
10611W        W26685  11.543   3.993  12.082  0.3190  0.0647  0.0686
10612W        W26686   8.808  13.699  14.463 -0.1242  0.1128  0.0313
10613W        W26687  18.445  15.311   0.081 -0.0042 -0.1184 -0.2320
10614W        W26688  10.660   1.150   4.618 -0.1706 -0.0938 -0.2484
10615W        W26689  18.550   8.535   5.104  0.1551  0.3348  0.0936
10616W        W26690   0.635   9.903  14.568  0.2196 -0.0343 -0.0151
10617W        W26691   8.792   4.990  13.914  0.1313 -0.0128 -0.2122
10618W        W26692  18.087  11.398  11.445 -0.1448 -0.1783  0.1133
10619W        W26693   0.352  13.497   0.807  0.0494 -0.0450  0.1810
10620W        W26694  11.102   7.201   2.819 -0.1191 -0.0666 -0.3359
10621W        W26695  12.292  17.583   5.320  0.1155  0.1393 -0.2534
10622W        W26696  18.117   3.159   2.816 -0.2228 -0.1431  0.2381
10623W        W26697   8.918   4.958   4.350  0.1136  0.1890 -0.3929
10624W        W26698  14.114  12.140   1.927  0.0442  0.1215  0.1020
10625W        W26699  13.557   2.660  13.934  0.0568 -0.2561  0.1871
10626W        W26700   1.717  10.885  11.165 -0.2290 -0.0464  0.3126
10627W        W26701  11.698   6.780  13.449  0.1019  0.1430 -0.1382
10628W        W26702   5.513   0.078   2.931  0.1247 -0.0704  0.0467
10629W        W26703  11.981   6.558  12.539  0.1424 -0.2597 -0.1445
10630W        W26704  12.335  15.065  13.214 -0.2065  0.0811 -0.2445
10631W        W26705  18.563   6.663  13.426 -0.0947 -0.2156 -0.1944
10632W        W26706   9.639  14.143  14.329  0.1950 -0.0674  0.1113
10633W        W26707   5.243   0.323  10.886 -0.0227 -0.1506  0.0886
10634W        W26708  12.856  12.272  14.164  0.1430 -0.2868  0.1236
10635W        W26709   6.852  17.676  13.256  0.0524 -0.2015 -0.0735
10636W        W26710  17.958  15.899  11.270 -0.1651 -0.2036  0.2595
10637W        W26711  10.936   5.224  10.503  0.0499  0.3333  0.2752
10638W        W26712   3.531  11.812   3.094 -0.0522  0.0064  0.0768
10639W        W26713  19.011   0.923   0.459  0.4140  0.0168  0.2703
10640W        W26714  17.834   3.386  12.340  0.1490  0.1051  0.2630
10641W        W26715  12.007  19.158   2.106 -0.0541  0.5785  0.0390
10642W        W26716  12.624   8.231   1.068  0.2619  0.0658  0.0979
10643W        W26717  14.231  15.096   0.710 -0.0513  0.3182  0.1009
10644W        W26718   1.072  12.331  14.052 -0.0345 -0.3140 -0.3819
10645W        W26719   0.988   7.742  12.228 -0.1239  0.1092 -0.0349
10646W        W26720   4.421   9.588  11.864 -0.0542 -0.4006  0.2911
10647W        W26721  13.029   6.176  10.319  0.0501 -0.0363  0.2263
10648W        W26722   5.580   7.009   3.694 -0.0927 -0.2095 -0.0607
10649W        W26723  13.480   7.811   2.457  0.1362  0.1709  0.0396
10650W        W26724  10.908   9.631   2.501  0.0041  0.1754  0.0424
10651W        W26725   0.793  19.274   2.355  0.0221  0.0254 -0.0511
10652W        W26726  15.595  17.839   4.602 -0.0420 -0.2357  0.0120
10653W        W26727  15.224  12.885   1.934 -0.2496 -0.0594  0.3135
10654W        W26728  17.321  16.387  13.976  0.1409 -0.4353 -0.1669
10655W        W26729   6.621   9.848   4.877 -0.2122 -0.1745  0.1688
10656W        W26730   4.372  15.556   3.320  0.0720 -0.1647  0.1152
10657W        W26731  16.289  16.646  13.431 -0.6853 -0.3330  0.0239
10658W        W26732   2.909  11.937  11.248 -0.2398 -0.0625  0.0852
10659W        W26733   5.122  10.580  10.783  0.0292  0.0339 -0.0341
10660W        W26734   5.249   8.561   1.683 -0.3791 -0.0920  0.0759
10661W        W26735   5.062   8.449   3.098  0.2614  0.1833 -0.0499
10662W        W26736   7.093   8.322  12.543  0.0500 -0.0518  0.0637
10663W        W26737  14.640   7.124  11.567  0.1106  0.0923 -0.0172
10664W        W26738  13.561   5.068  11.022  0.2610 -0.0687  0.3461
10665W        W26739  13.285   6.800   2.586 -0.1832  0.2432  0.0413
10666W        W26740  16.597  14.887   4.085  0.2938 -0.0850 -0.4124
10667W        W26741  16.364  14.571   0.834  0.1537 -0.0505  0.1467
10668W        W26742  13.337   5.868   1.382  0.0758  0.0695  0.0201
10669W        W26743  15.565   5.118  14.976  0.0729  0.1228  0.0907
10670W        W26744   2.006  10.624   2.997 -0.1008  0.1575  0.1260
10671W        W26745   7.350  15.196  11.189 -0.0520 -0.2224  0.1124
10672W        W26746   5.883   5.340   4.714  0.2595  0.2135  0.0295
10673W        W26747   2.234  12.469   0.549 -0.1605 -0.2758  0.2366
10674W        W26748   1.543   6.880   6.000  0.2632  0.2002  0.0572
10675W        W26749   0.653   3.020  14.605 -0.0643  0.2254 -0.0717
10676W        W26750  15.806  15.669   1.854  0.0662 -0.1605 -0.0026
10677W        W26751  14.434   8.724  13.669  0.1548 -0.1333 -0.0872
10678W        W26752  10.856   4.822   0.985 -0.2443  0.0509 -0.0226
10679W        W26753   6.524  18.497  12.526  0.1060  0.0337  0.3006
10680W        W26754  19.006   6.361   5.405 -0.0201  0.4621 -0.2539
10681W        W26755  18.766  14.941   4.390  0.1174 -0.1711  0.0757
10682W        W26756  11.701  14.102   2.034  0.0632 -0.1738  0.0495
10683W        W26757   5.860   7.809   5.729  0.0166 -0.3417  0.3163
10684W        W26758  18.148   7.580   9.872 -0.1584 -0.1471 -0.0849
10685W        W26759  11.909   4.541  12.470 -0.1166  0.2774 -0.0312
10686W        W26760   3.040   8.672  11.400 -0.1190  0.0620  0.0898
10687W        W26761   4.128  10.246  12.819  0.3330  0.0968  0.2391
10688W        W26762  12.550  14.841   3.628 -0.1192 -0.0378 -0.2282
10689W        W26763   8.093   4.138  12.957  0.2836  0.3459 -0.0881
10690W        W26764   0.333   2.932   3.859  0.0027  0.0610  0.0430
10691W        W26765  17.717  18.158   2.682 -0.3467 -0.3308 -0.0946
10692W        W26766  18.885   1.520   2.355 -0.3240 -0.0068  0.3436
10693W        W26767  15.910  16.928   2.933 -0.1831  0.1727  0.0556
10694W        W26768   8.663   3.826  14.996  0.0442  0.0672  0.0694
10695W        W26769   0.421   7.133   1.675  0.0094  0.0116  0.0120
10696W        W26770  16.840   4.180   3.276  0.0874  0.2706  0.4517
10697W        W26771  11.715  11.291   1.625  0.1125  0.0562  0.3415
10698W        W26772   3.469  18.521   1.228 -0.2807 -0.2242  0.2542
10699W        W26773   7.509  11.593   2.809  0.0459 -0.1750  0.0304
10700W        W26774   7.719   0.175  11.974  0.1873 -0.1455 -0.5313
10701W        W26775  10.120  13.343  11.554 -0.0704  0.5804 -0.0434
10702W        W26776  13.979  11.494   6.174 -0.0783 -0.1612  0.2152
10703W        W26777  10.763  12.570   1.246 -0.0917 -0.0137 -0.0960
10704W        W26778  10.654  18.759  14.182 -0.2030  0.1734 -0.0258
10705W        W26779  16.184   1.675   2.069  0.5284  0.3158  0.0123
10706W        W26780  10.950   1.032  13.574 -0.2051  0.1473  0.0331
10707W        W26781  17.752   1.461  14.754 -0.1898 -0.0930  0.0200
10708W        W26782   4.044  16.979  14.667  0.3135 -0.1132 -0.0174
10709W        W26783  10.031   7.463   4.019  0.1647  0.0759 -0.1016
10710W        W26784  17.625  14.663   4.065 -0.0393 -0.3000 -0.0738
10711W        W26785  17.457   5.166  11.309  0.1876  0.0914 -0.1660
10712W        W26786  14.844   5.982   9.648  0.1153  0.1416  0.0376
10713W        W26787   2.533  12.226   1.510 -0.6403 -0.4337  0.1525
10714W        W26788  16.833  18.051   2.428  0.2373  0.2373  0.0733
10715W        W26789  14.915  14.410   4.510 -0.0071 -0.2825 -0.6352
10716W        W26790   1.122  12.843  14.363 -0.1406  0.0643 -0.3925
10717W        W26791   5.604   6.146   2.226 -0.2613  0.0231  0.2852
10718W        W26792   1.501  16.499  14.699  0.1904 -0.3579 -0.2389
10719W        W26793  16.409  14.881   4.533  0.3804  0.1339 -0.1281
10720W        W26794   5.106   5.834  13.789  0.1055  0.0119  0.0711
10721W        W26795  18.350   2.201   3.076  0.0244  0.0145  0.2393
10722W        W26796  15.478  12.454   1.465 -0.0236 -0.2781  0.0826
10723W        W26797   7.449   6.978   1.222  0.0956  0.2902  0.1501
10724W        W26798   5.739   6.592   2.110  0.0344 -0.2479  0.2343
10725W        W26799  10.423  18.111  10.971 -0.4362 -0.2316  0.4551
10726W        W26800   3.378  19.133  13.442  0.4395  0.0908  0.0311
10727W        W26801   6.542  13.641  12.872 -0.1484  0.0761  0.2321
10728W        W26802  11.183  18.632   2.377  0.1732  0.0133  0.3757
10729W        W26803   7.022  10.578   4.632 -0.1165  0.1388 -0.0774
10730W        W26804  16.708   2.930   1.673  0.1860  0.2891  0.1767
10731W        W26805   1.358   1.694   9.528  0.0932  0.0846  0.0059
10732W        W26806  19.068  17.049   1.978  0.1365  0.2392 -0.2077
10733W        W26807  16.563   3.987   2.416 -0.0984  0.3498 -0.0163
10734W        W26808   0.804   2.047   2.287  0.0439  0.2476 -0.0034
10735W        W26809  17.340  14.982   0.902 -0.0867  0.0311 -0.0315
10736W        W26810  13.430  12.484   2.105  0.2145 -0.2588 -0.0411
10737W        W26811  12.451   3.120   2.795 -0.2959  0.4279  0.0627
10738W        W26812   7.761   3.061  10.282 -0.1174 -0.1302 -0.1945
10739W        W26813  15.937   5.584  14.300  0.1711  0.3928 -0.4309
10740W        W26814  10.709   9.530  14.103 -0.0409 -0.2271  0.2426
10741W        W26815  18.302  10.013   1.217  0.0976 -0.2153 -0.1281
10742W        W26816  17.063  11.464   0.099 -0.0210 -0.0822  0.0163
10743W        W26817  12.071   9.467  13.455 -0.2062  0.1899 -0.1556
10744W        W26818   2.503  19.213  14.621  0.2093 -0.1210  0.1209
10745W        W26819   7.409   5.792  12.242 -0.2240 -0.1385 -0.0321
10746W        W26820   6.278  12.139   0.894 -0.3214  0.0909  0.3017
10747W        W26821   0.030  13.279   5.436 -0.0300 -0.1978  0.1235
10748W        W26822  10.401  10.143  11.398  0.1427  0.1037 -0.1273
10749W        W26823   1.014  16.485  13.209  0.3237 -0.0038  0.4597
10750W        W26824   2.898   1.457  12.235 -0.2517  0.0246 -0.1956
10751W        W26825  19.051   4.613   4.482 -0.2030  0.3851 -0.0842
10752W        W26826   0.979  14.742   1.912  0.0785  0.1979 -0.1142
10753W        W26827  12.410  10.342   2.033 -0.0596  0.0755 -0.1496
10754W        W26828   9.510   5.022   1.501 -0.0808 -0.0401 -0.0924
10755W        W26829  15.433  12.870  14.081 -0.2485  0.1019 -0.1107
10756W        W26830  14.107   6.046  14.362  0.2428  0.3198 -0.3661
10757W        W26831   1.909  11.260  10.701 -0.1830  0.0652 -0.1006
10758W        W26832   6.384  14.166   0.867 -0.1047  0.1000  0.3445
10759W        W26833   9.104  18.044   2.150  0.3701  0.2372 -0.0609
10760W        W26834  11.614   9.931   3.141 -0.1293  0.0813 -0.2125
10761W        W26835  18.781  12.783   3.547 -0.0432 -0.1201 -0.0910
10762W        W26836  10.394  13.777  11.253  0.1925  0.0035  0.0724
10763W        W26837  10.616  12.781   3.466 -0.0912 -0.1941  0.0344
10764W        W26838   2.327   7.116   1.428  0.0596 -0.0717 -0.0564
10765W        W26839  15.867  14.887   1.741 -0.0068  0.2570 -0.1985
10766W        W26840   8.108   2.625  10.263 -0.0634 -0.1269 -0.1902
10767W        W26841  19.087   8.227   3.085 -0.1177  0.1163  0.2441
10768W        W26842   9.536   5.820   4.382  0.0644 -0.0017  0.2744
10769W        W26843  18.138  16.441  14.528 -0.0175 -0.0995  0.1431
10770W        W26844   6.435   0.770   1.373  0.0663 -0.3094 -0.3550
10771W        W26845   7.477   5.247  13.497 -0.1683 -0.5767 -0.3483
10772W        W26846   4.183  12.502  11.585  0.3121 -0.2679 -0.1110
10773W        W26847  19.301  18.546   5.067  0.1250  0.0594 -0.4821
10774W        W26848   3.931  14.651  11.451  0.0407 -0.2243 -0.1569
10775W        W26849   7.904   0.818   1.510 -0.0397  0.0113  0.1621
10776W        W26850  19.128  14.819  12.999  0.2961  0.0099  0.2068
10777W        W26851   6.919   0.681  11.019 -0.2466  0.0551  0.0109
10778W        W26852   7.600   6.838   0.556  0.1719  0.1747 -0.2038
10779W        W26853  14.648   0.073  14.184  0.2034  0.0354  0.6315
10780W        W26854   0.590  14.956  12.045  0.1501 -0.1331  0.0868
10781W        W26855  17.607   2.923  14.132 -0.2108 -0.0523  0.0059
10782W        W26856  16.205   8.418   0.896 -0.1733  0.2144  0.2584
10783W        W26857  10.565   4.327  11.332  0.1776  0.1255  0.1676
10784W        W26858   2.376  10.365   0.852  0.0141  0.2761  0.1057
10785W        W26859   8.575   6.594   0.592  0.2154  0.0031 -0.1041
10786W        W26860   2.636   5.467  12.602 -0.0684  0.1755 -0.0511
10787W        W26861  13.679  12.448  12.706  0.0665  0.1099  0.2688
10788W        W26862   6.065  11.549   4.092 -0.1233  0.2190  0.2038
10789W        W26863  15.093   5.793  12.714  0.0052  0.1242 -0.0896
10790W        W26864  16.650   5.311   0.310 -0.1150 -0.1252  0.0462
10791W        W26865  16.169   0.178  12.987  0.0064  0.0462  0.0430
10792W        W26866   8.911  17.183   0.653 -0.0964 -0.1873 -0.1724
10793W        W26867  15.589  16.428   0.005 -0.0359  0.1619  0.0786
10794W        W26868   9.727  13.084  14.697  0.1619 -0.2214 -0.0788
10795W        W26869  12.325   6.918   1.598  0.2073  0.0651 -0.3964
10796W        W26870   1.487   9.946  13.810  0.0959 -0.2166 -0.0447
10797W        W26871   6.013  13.721   0.153 -0.3250 -0.1654 -0.2775
10798W        W26872  19.260  10.662  12.390 -0.0712  0.1995  0.0056
10799W        W26873   4.040   1.508   1.209  0.0811  0.0488 -0.0778
10800W        W26874   6.702   3.103   4.232 -0.1445 -0.0447  0.1837
10801W        W26875   7.589   7.693   1.712 -0.0434 -0.0098  0.2410
10802W        W26876   2.095  10.585   4.918  0.0969  0.0424 -0.0000
10803W        W26877  10.938   0.820   4.942  0.0469 -0.2099  0.0140
10804W        W26878  14.284   1.178  12.761 -0.0321  0.3171 -0.1008
10805W        W26879  18.168  15.165  10.852  0.2752  0.0320 -0.1940
10806W        W26880   2.776  13.879   3.463  0.1066  0.1440 -0.0319
10807W        W26881   0.577  13.954  13.322  0.0876 -0.0336 -0.2302
10808W        W26882  15.865  16.669   0.990 -0.0981 -0.2351  0.3096
10809W        W26883  12.437  16.618   4.358  0.0259 -0.0882  0.1314
10810W        W26884  15.101  14.109   2.231 -0.2470  0.0382 -0.0477
10811W        W26885   2.413  18.550   4.332 -0.0169 -0.0093 -0.0168
10812W        W26886  11.926   8.061  13.816  0.0937  0.1990  0.2945
10813W        W26887  13.073  12.835   3.530  0.1427  0.0085  0.0989
10814W        W26888  15.617   8.903   4.146  0.2619  0.3504 -0.1596
10815W        W26889   0.039   8.107   3.932  0.2423  0.0404 -0.1539
10816W        W26890  16.892  15.186  13.493  0.0196  0.1761 -0.1168
10817W        W26891   8.242   1.351  10.776  0.2061 -0.2715 -0.1807
10818W        W26892   2.529  13.488   0.777 -0.4113 -0.0383 -0.0084
10819W        W26893   0.446  13.367   0.349 -0.1127  0.1505  0.0585
10820W        W26894  18.496  11.486   0.520 -0.3148 -0.0310  0.0320
10821W        W26895  12.892   9.856  13.715  0.2590 -0.4123 -0.1206
10822W        W26896  17.517  17.827   0.880 -0.0545 -0.2713  0.2708
10823W        W26897   8.185   2.860  11.130 -0.2120  0.2970  0.0242
10824W        W26898   6.386  17.357   2.496 -0.3326 -0.2784  0.2600
10825W        W26899  11.748  14.748   1.385 -0.1333 -0.0866 -0.2172
10826W        W26900  14.986  10.395  11.764  0.3767 -0.0487 -0.4153
10827W        W26901  18.291  13.255  10.028 -0.1295 -0.0466  0.0322
10828W        W26902   5.639  14.449   3.593 -0.0013  0.1929  0.0424
10829W        W26903  18.717   0.551   5.765 -0.1499  0.3156 -0.0545
10830W        W26904  17.382  14.118  14.000  0.1059 -0.1632 -0.1709
10831W        W26905   1.710   4.697   1.379  0.1794 -0.0588 -0.0409
10832W        W26906   4.814   8.604   0.666  0.1416  0.1208 -0.1048
10833W        W26907   3.792  11.688   1.716  0.5291  0.0189  0.2409
10834W        W26908   3.507  12.451   4.100 -0.0393  0.0719  0.2122
10835W        W26909   0.375  13.090  12.250  0.1605  0.1433 -0.2569
10836W        W26910   3.275  10.985  13.956 -0.0323 -0.0225 -0.0200
10837W        W26911  11.454   4.505   3.849  0.1857  0.4168  0.3760
10838W        W26912   0.369   3.966   5.343 -0.0338 -0.0598  0.1759
10839W        W26913  16.947  17.155   3.511  0.1049 -0.2792  0.0909
10840W        W26914  10.150   0.490  10.196 -0.0064  0.0154 -0.1943
10841W        W26915   7.613  18.717   3.400 -0.3401  0.1884 -0.0602
10842W        W26916   2.784   2.712  10.281  0.0478 -0.1626  0.1290
10843W        W26917  15.326  17.845  13.180  0.2421  0.2393 -0.0306
10844W        W26918  13.080   2.511   3.706 -0.0420 -0.2707 -0.1682
10845W        W26919   0.739  11.631   2.419  0.1338 -0.0231 -0.3658
10846W        W26920   7.026  14.228  10.091 -0.0857 -0.0226 -0.4457
10847W        W26921  10.832   0.522  13.466  0.2232 -0.2307 -0.0410
10848W        W26922  19.226   7.105   1.766  0.2242  0.2264 -0.1129
10849W        W26923  14.755  18.204   4.586 -0.0866  0.0839 -0.1903
10850W        W26924   8.611   1.828  11.289 -0.2128  0.1496 -0.0882
10851W        W26925   8.308  16.927  10.560 -0.3359 -0.0900 -0.0538
10852W        W26926   1.902  18.025   2.063  0.1225 -0.2475 -0.6582
10853W        W26927  11.488  15.795   5.215  0.1637 -0.4164  0.0565
10854W        W26928   2.112   1.559  12.050  0.1119 -0.2225 -0.2778
10855W        W26929  13.657   2.947   1.046  0.1267  0.1307 -0.1714
10856W        W26930   4.017   5.850   2.496 -0.0255  0.0516  0.1726
10857W        W26931  10.745  16.885   1.635  0.1781  0.1357  0.1917
10858W        W26932   6.485  17.844   2.405  0.1404 -0.0150 -0.1337
10859W        W26933  10.254  10.219   4.481 -0.2368  0.1663  0.2754
10860W        W26934   0.238  16.564  13.712 -0.0851 -0.0777  0.0021
10861W        W26935  16.349   8.821   3.593  0.0416 -0.1615 -0.0962
10862W        W26936  18.485   9.869  14.951  0.0669  0.0873  0.1262
10863W        W26937  10.596  15.777   2.685 -0.1674  0.6241 -0.1617
10864W        W26938   8.735   5.363   3.025  0.0030 -0.0573  0.2572
10865W        W26939  16.094  11.387  15.002 -0.0264  0.2118  0.0898
10866W        W26940  10.300   1.058  11.626 -0.0716 -0.1157  0.0044
10867W        W26941   6.153   7.925   3.754 -0.2885 -0.1131  0.2928
10868W        W26942  17.280   2.641   0.071  0.0922 -0.2733  0.0749
10869W        W26943   2.196  15.592  13.157 -0.2540  0.3532 -0.0966
10870W        W26944  10.008  13.383  13.901 -0.1757 -0.1352 -0.3939
10871W        W26945   5.883   2.402  11.834 -0.0624  0.1840  0.1215
10872W        W26946  10.897  16.817  10.475  0.1883  0.1360 -0.0342
10873W        W26947  13.402   3.791  12.856  0.1474  0.0884  0.0696
10874W        W26948  17.668  10.909  11.802 -0.1774  0.4638 -0.0270
10875W        W26949   4.973  19.096  11.965  0.2359  0.1167  0.0967
10876W        W26950  16.764  14.207  11.223 -0.0895  0.1479  0.1054
10877W        W26951  12.786   8.397   5.696 -0.0747  0.0839  0.1607
10878W        W26952   5.538   6.269   4.123  0.1821  0.0659 -0.0943
10879W        W26953   5.518   6.887   1.111 -0.0925  0.1267 -0.0892
10880W        W26954  10.017  13.555   5.046 -0.1953  0.3021 -0.2947
10881W        W26955  14.067   2.404  11.834 -0.2054 -0.1669 -0.1691
10882W        W26956  17.908   0.252   1.753 -0.0021  0.1182  0.2668
10883W        W26957   6.200   1.158  14.963 -0.2008 -0.1296  0.1230
10884W        W26958  13.870  18.733  10.360  0.0538 -0.2179 -0.3036
10885W        W26959   8.519  18.515  11.186  0.0766 -0.2603 -0.0899
10886W        W26960  11.018  18.996  14.457  0.3308  0.2016  0.2863
10887W        W26961   9.841  14.239   3.836  0.0457  0.3797  0.2270
10888W        W26962   0.338  10.945   3.810  0.0803  0.0525  0.1566
10889W        W26963  14.766   9.816   3.630  0.2485  0.0725  0.1781
10890W        W26964   7.342  12.272  11.836  0.0853  0.1146  0.2266
10891W        W26965   7.035  16.828  11.625  0.0408 -0.1935  0.4198
10892W        W26966  11.116  13.137  10.149  0.0537  0.2126 -0.1206
10893W        W26967   3.539  19.165   4.350 -0.0104 -0.1378 -0.1593
10894W        W26968   0.149  12.739  14.755 -0.0993 -0.0393 -0.1508
10895W        W26969   4.044   4.418  14.583 -0.0251 -0.2533 -0.1444
10896W        W26970  16.079  16.800  11.258  0.2070  0.2412 -0.6281
10897W        W26971  11.502   4.921  13.623 -0.3472  0.0333 -0.1608
10898W        W26972  15.107  10.604   4.368  0.3769 -0.0298 -0.0086
10899W        W26973   1.461   4.416   2.271 -0.1736 -0.1036  0.2065
10900W        W26974  14.738   0.232   4.597  0.2069  0.4554  0.1251
10901W        W26975  12.306  14.040  14.937 -0.3115 -0.0128  0.1667
10902W        W26976   6.894  15.699  11.731 -0.0426 -0.0032  0.1548
10903W        W26977  13.351   5.425  13.089 -0.2067  0.0596 -0.2774
10904W        W26978  16.433   0.503  14.175 -0.0728  0.3165 -0.3302
10905W        W26979   5.628  18.240   0.930 -0.0857  0.0439  0.0926
10906W        W26980   6.855  11.213  10.200 -0.0073 -0.4288  0.2156
10907W        W26981  12.658   2.707   0.332  0.2833  0.1308 -0.3380
10908W        W26982   4.099   7.275  13.252 -0.2686  0.0212 -0.3073
10909W        W26983   8.135  17.964   0.300  0.2535  0.0505  0.1789
10910W        W26984  10.882   9.832  10.589  0.0108  0.0206  0.0985
10911W        W26985  12.290  11.007  11.144  0.2130 -0.0753 -0.1692
10912W        W26986  12.508  10.076   2.497  0.0001  0.1141  0.2017
10913W        W26987   3.894   2.848  14.069 -0.1399 -0.0973 -0.1705
10914W        W26988   7.009   2.820   4.474  0.0090 -0.1440  0.1858
10915W        W26989  10.919  18.480   1.472 -0.0220 -0.0597  0.3253
10916W        W26990   7.802   7.033   4.130 -0.0836  0.3918  0.2370
10917W        W26991  18.505  17.336  12.993  0.4168 -0.2912  0.1641
10918W        W26992   6.967   1.070   3.303  0.2449  0.1454  0.0734
10919W        W26993  17.795   7.903   4.669  0.1368 -0.1708  0.0991
10920W        W26994   6.967   7.953   2.053 -0.2820 -0.1518  0.3246
10921W        W26995   4.158  12.863   2.632 -0.1378 -0.1860  0.1207
10922W        W26996   1.481  10.247   4.028  0.0925 -0.5570  0.1146
10923W        W26997  15.092   5.642  10.392  0.1201  0.3345  0.1167
10924W        W26998  14.656  17.819   0.969  0.3286 -0.1046 -0.0778
10925W        W26999  18.205  11.437   3.645  0.0284 -0.1258 -0.0532
10926W        W27000  17.719   1.182   1.410  0.0990 -0.0452  0.0309
10927W        W27001   4.638  13.466  12.795  0.0679  0.0729 -0.3827
10928W        W27002   8.473   5.698   0.075 -0.2938  0.0998  0.0069
10929W        W27003   2.533   0.435  10.852  0.0343 -0.1639  0.0868
10930W        W27004  13.222   4.385   2.226 -0.0686 -0.1458  0.4542
10931W        W27005   6.106   8.538   0.000  0.2193  0.3269  0.2879
10932W        W27006   3.437   6.145  14.420  0.0094  0.3431 -0.2341
10933W        W27007  18.775  18.690  13.841  0.2161  0.3025  0.0516
10934W        W27008  10.606   1.764   2.151  0.1831  0.2504 -0.2447
10935W        W27009  14.701  15.402  14.398 -0.0281 -0.0740 -0.0729
10936W        W27010   5.270   5.955   3.845 -0.4990  0.0792 -0.2435
10937W        W27011  16.857   6.192   5.033 -0.2531 -0.0109  0.2687
10938W        W27012   2.144   4.997  14.335  0.0954 -0.1346 -0.0140
10939W        W27013   3.268   1.797  12.158  0.3582 -0.1986 -0.1598
10940W        W27014  14.411   2.768   5.579  0.3716  0.0483  0.0531
10941W        W27015   8.298   3.190  13.663 -0.5060 -0.2591 -0.2574
10942W        W27016  15.802  11.279   3.103  0.2786 -0.2852  0.0371
10943W        W27017   7.302  16.733  14.652 -0.1960  0.0067  0.2403
10944W        W27018   8.359   0.365  14.417 -0.1350  0.1908  0.3509
10945W        W27019   3.828  19.334  11.800  0.0874  0.2649  0.0035
10946W        W27020   0.579   3.602  11.746  0.1007  0.0093 -0.0391
10947W        W27021   2.237  10.598  13.618 -0.1031  0.0530  0.1978
10948W        W27022  16.766   7.893  11.904 -0.0103  0.1219 -0.2990
10949W        W27023   1.863  15.325   0.925  0.1065 -0.0839  0.2165
10950W        W27024  19.195  17.432  12.359  0.2011  0.0419 -0.2761
10951W        W27025   7.903   5.284  13.111 -0.0405 -0.1433  0.2611
10952W        W27026   4.761   9.168  11.736  0.1453 -0.0438  0.2455
10953W        W27027  17.289   2.305   2.096 -0.0125  0.0679 -0.1242
10954W        W27028   8.831  19.102  11.747 -0.1191  0.2230 -0.2000
10955W        W27029  10.348   5.679  11.026  0.1185 -0.1504 -0.1814
10956W        W27030   4.087  19.181  12.920 -0.3597 -0.0453 -0.0574
10957W        W27031  13.038   9.947  11.715 -0.0134 -0.1971 -0.2336
10958W        W27032   5.972  12.412  14.504 -0.1600 -0.1023 -0.0469
10959W        W27033  12.040  14.452   3.670  0.0852 -0.0972 -0.1496
10960W        W27034   1.912  15.052  11.975 -0.5093 -0.4150 -0.1382
10961W        W27035  16.554  14.829  11.848 -0.1481 -0.0107  0.2740
10962W        W27036   5.184  19.153   9.118  0.0104  0.0745  0.0945
10963W        W27037   5.536   3.787   4.188 -0.1929  0.2797 -0.1966
10964W        W27038   5.270   4.551  10.651 -0.0700 -0.1986 -0.0601
10965W        W27039   6.338   8.144  11.192  0.1133 -0.1317  0.0458
10966W        W27040  17.283   9.819   4.152  0.0249  0.1964  0.2697
10967W        W27041  14.640  11.615  10.778 -0.2404 -0.3049 -0.0152
10968W        W27042  15.497  16.317  13.536  0.2604 -0.2316 -0.2708
10969W        W27043  11.579  17.731   2.785 -0.1455  0.3400  0.2559
10970W        W27044  16.555   5.809   0.163  0.1549  0.2881 -0.1570
10971W        W27045  17.635  11.491   2.338 -0.1427 -0.0842  0.0414
10972W        W27046   0.240   8.292   2.959 -0.0212  0.3215  0.0477
10973W        W27047  17.219  12.320  14.228 -0.3012  0.0528 -0.0491
10974W        W27048  14.072  18.984   4.681 -0.0060 -0.1958  0.2798
10975W        W27049   3.156  16.210   0.440  0.1069  0.0239  0.0687
10976W        W27050  12.168   8.406   2.452 -0.2331 -0.2396 -0.2385
10977W        W27051   8.332  17.916  11.541  0.0130  0.0322  0.2073
10978W        W27052  11.540  10.049  13.908  0.0030 -0.0371  0.1095
10979W        W27053  17.545   3.733  11.642 -0.2735  0.2257 -0.3154
10980W        W27054  11.436  12.843  12.854  0.3163 -0.0075  0.3006
10981W        W27055  16.188  13.833  10.614 -0.1603  0.0248  0.1147
10982W        W27056  11.691  13.418   2.704 -0.1963 -0.0159  0.3161
10983W        W27057  16.254  18.256   0.327 -0.2691  0.1740 -0.1106
10984W        W27058  11.896  17.818   4.046  0.1850  0.4286  0.1098
10985W        W27059  16.109  13.098  12.819  0.0536 -0.2564  0.3346
10986W        W27060  15.236  16.069  11.336  0.1486 -0.4258  0.1049
10987W        W27061  11.351  14.106  13.473  0.1818  0.1522 -0.1930
10988W        W27062  12.560  12.944   1.956  0.0006 -0.0490  0.0231
10989W        W27063   7.720   4.924  12.680 -0.1307  0.2308 -0.1599
10990W        W27064  16.708  17.830  13.603  0.1812  0.2698 -0.2046
10991W        W27065  15.416   2.819  13.454 -0.0830  0.4666 -0.0003
10992W        W27066   2.397  10.361  11.978 -0.0804  0.0679 -0.0114
10993W        W27067  17.965  19.334  12.284  0.0059  0.1450 -0.0462
10994W        W27068  12.413  10.053   0.561  0.0792  0.0250  0.1856
10995W        W27069   2.634  15.075  10.607 -0.2388  0.0731  0.1958
10996W        W27070   8.118   0.971   4.253 -0.1364 -0.2266  0.1744
10997W        W27071   2.837   8.568   1.354  0.2706  0.1581 -0.0144
10998W        W27072   3.846  11.080   4.807  0.1106  0.2123  0.0312
10999W        W27073   4.218  17.901   3.188  0.1704  0.0260  0.1527
11000W        W27074   3.333   2.342   4.068 -0.1029 -0.3672  0.0301
11001W        W27075   3.921   3.689   3.674 -0.3350  0.1694 -0.3161
11002W        W27076  13.627  17.544  13.915 -0.0571 -0.3117 -0.1010
11003W        W27077   6.679   8.669   5.543 -0.2466  0.2403  0.1870
11004W        W27078   2.250  13.260   1.130 -0.3384 -0.0305 -0.0543
11005W        W27079   1.054   3.470   3.773  0.0947  0.0268 -0.0920
11006W        W27080   8.602   2.794   1.530  0.2079 -0.0226 -0.2201
11007W        W27081   1.030   6.722   4.621 -0.1759 -0.2521  0.1068
11008W        W27082   2.175   3.309   3.804  0.0975 -0.0609 -0.3612
11009W        W27083  18.393   1.290   4.162  0.1469 -0.0534  0.2628
11010W        W27084  18.788   3.082   2.282 -0.2437 -0.0956  0.2087
11011W        W27085   9.602   0.281   0.029  0.0407 -0.0871  0.3544
11012W        W27086   4.899   5.180   3.742 -0.3651 -0.0097  0.1201
11013W        W27087  12.237  17.114   1.382  0.0864  0.3800 -0.1620
11014W        W27088   5.194   3.198  11.765  0.0204  0.2919  0.0414
11015W        W27089  12.628  13.489   0.069 -0.0218  0.2549 -0.1109
11016W        W27090   3.939  13.126   0.046 -0.0705 -0.1643 -0.0178
11017W        W27091   9.339   3.875   1.808  0.0689 -0.1392  0.1825
11018W        W27092   3.208  14.232   3.636  0.1210 -0.2237  0.1783
11019W        W27093   8.977  17.714  12.316 -0.0790 -0.0753 -0.2123
11020W        W27094   7.736   3.101  13.871 -0.0512 -0.0295 -0.0244
11021W        W27095   5.380   8.289   3.433  0.1687 -0.0242  0.0292
11022W        W27096  16.487  15.707   0.162 -0.2008 -0.1469  0.2304
11023W        W27097   7.166   2.447   1.099 -0.0062 -0.0293 -0.1382
11024W        W27098   5.708  10.091   4.870  0.0918  0.1382  0.0063
11025W        W27099  17.198   2.870   1.425 -0.0745  0.2326  0.3368
11026W        W27100   4.919  18.918  10.250 -0.1108  0.0500 -0.2021
11027W        W27101  10.690   0.839  14.849  0.0987  0.1955  0.0665
11028W        W27102  11.135   3.315  11.990  0.1410  0.0627  0.3010
11029W        W27103  14.294   8.762   3.139 -0.2787  0.3389  0.0976
11030W        W27104   4.029   4.625  11.375 -0.1112 -0.0237  0.1883
11031W        W27105  13.748   7.396   3.408  0.1035  0.4050  0.1331
11032W        W27106   0.978   1.135  12.366  0.0438 -0.1573 -0.0528
11033W        W27107   1.613   6.649   1.421 -0.1018 -0.3640 -0.2464
11034W        W27108  11.861   6.076   4.813 -0.0778  0.1406 -0.1259
11035W        W27109  17.468   2.682   0.659  0.1600  0.1109  0.0780
11036W        W27110  18.516   8.487  12.104 -0.0965 -0.2158 -0.0813
11037W        W27111  11.365   9.216   2.619  0.0592  0.0505  0.0191
11038W        W27112   5.568  17.510   0.738  0.0518  0.0247 -0.1161
11039W        W27113  12.183   1.357   2.738 -0.0096  0.0268 -0.1930
11040W        W27114   6.010  13.601   1.511  0.2484  0.0141  0.3223
11041W        W27115  15.013   6.827   0.671  0.0484  0.0750  0.2852
11042W        W27116  17.608   3.463   4.672  0.1328 -0.0633  0.4053
11043W        W27117  16.219  17.829  14.434 -0.0341  0.1468  0.0276
11044W        W27118  16.367   4.333   3.890  0.0279  0.2198  0.2231
11045W        W27119  13.994   6.568   3.020  0.0093 -0.4362  0.1464
11046W        W27120   1.878   9.312  10.885 -0.3388  0.0489  0.4673
11047W        W27121   4.473  13.118   2.312 -0.0793  0.4955  0.2247
11048W        W27122   8.271   8.392  12.298 -0.2158 -0.3052  0.5053
11049W        W27123  15.658  18.766  13.581 -0.0303 -0.0013 -0.0544
11050W        W27124  18.758  16.888   3.720  0.2293  0.0464 -0.2380
11051W        W27125  15.134  12.880  14.625  0.1711  0.0400 -0.1827
11052W        W27126  18.488  11.374   4.641  0.1781  0.3183  0.1833
11053W        W27127  10.702  15.455  10.337  0.1592 -0.0682  0.2081
11054W        W27128   8.983  13.163   2.164 -0.2162  0.1360 -0.0685
11055W        W27129   3.804  13.950  10.754 -0.3087  0.0283  0.0884
11056W        W27130  15.061   1.265  10.806  0.0690  0.0484  0.0495
11057W        W27131  17.531  16.786   1.400 -0.1364 -0.1852  0.0698
11058W        W27132   8.062  10.460   3.948  0.0061  0.2307  0.1746
11059W        W27133  11.156   8.471   3.907 -0.1566 -0.2059  0.2775
11060W        W27134  11.737   0.892  12.438 -0.0564  0.1186  0.4308
11061W        W27135  18.032   6.620  12.037  0.1047 -0.1486 -0.2739
11062W        W27136  14.981   7.757  13.171 -0.1738 -0.0446  0.1886
11063W        W27137  10.810   3.440   1.242  0.2703 -0.0912 -0.2276
11064W        W27138   4.540   0.983   1.646 -0.2326 -0.1718  0.0075
11065W        W27139   2.970  13.812   0.210  0.0234  0.1446  0.0212
11066W        W27140   8.346  16.551  10.235  0.0535  0.2235  0.2862
11067W        W27141  11.190  18.749   1.801 -0.1481 -0.1156 -0.1713
11068W        W27142   5.365   9.853  14.181  0.1457 -0.1409  0.0016
11069W        W27143  13.029   5.469  14.330 -0.1034 -0.0501 -0.1525
11070W        W27144  12.765   4.857   0.858 -0.2554  0.1261 -0.0206
11071W        W27145  15.318  15.549  12.335 -0.1923 -0.1289 -0.1757
11072W        W27146  10.807  18.408  10.003 -0.0838 -0.0417 -0.2769
11073W        W27147  17.409   3.000   4.560 -0.1772  0.0084  0.1932
11074W        W27148  11.729   4.596   2.995  0.3528 -0.1376 -0.4522
11075W        W27149  13.970   5.200   3.256 -0.2759 -0.0463  0.1731
11076W        W27150  18.049  17.863   1.111  0.1107 -0.0313 -0.1734
11077W        W27151   1.108   2.745   1.291 -0.0965  0.0149 -0.0424
11078W        W27152   0.396   3.241  11.295  0.0765 -0.2065 -0.0721
11079W        W27153  11.251   7.971  12.078  0.0180  0.2341  0.2664
11080W        W27154   2.741   5.203   5.086  0.2001 -0.3500  0.3798
11081W        W27155  12.639  10.651   3.816 -0.0487 -0.3255  0.0659
11082W        W27156   8.397   5.701   0.711  0.0000 -0.3341 -0.4303
11083W        W27157  10.566  18.733  12.087 -0.0808 -0.1626 -0.0783
11084W        W27158   6.600  11.678  12.168  0.1097  0.0935 -0.1114
11085W        W27159   1.568   0.625   0.891 -0.3458 -0.0610 -0.2264
11086W        W27160  12.166   9.160  12.317 -0.1680 -0.0828  0.0799
11087W        W27161  14.313  14.177   3.179  0.2319 -0.1559 -0.0359
11088W        W27162  14.133   4.477   0.368  0.1052 -0.1443 -0.1815
11089W        W27163   4.707   9.909  11.232 -0.1072 -0.0257 -0.0398
11090W        W27164   3.370  16.211  10.690  0.0630 -0.0580 -0.0521
11091W        W27165   0.450   3.396   4.546 -0.1428  0.1812 -0.4007
11092W        W27166  10.730  16.266   1.868 -0.1192 -0.0026  0.2097
11093W        W27167  17.644   4.326   3.488  0.1542 -0.0447  0.1324
11094W        W27168   9.269  10.387   4.016 -0.2450 -0.1333 -0.0705
11095W        W27169   0.128   2.130   4.279 -0.2603 -0.2224 -0.1451
11096W        W27170  12.087  12.369  11.470 -0.2172  0.0505 -0.3241
11097W        W27171   1.271   1.661  11.027  0.0336  0.3453 -0.0013
11098W        W27172  12.299   9.724  12.464 -0.0127 -0.1086 -0.1005
11099W        W27173   0.711   2.536  12.889  0.0680 -0.2331  0.1538
11100W        W27174   4.853  11.773   1.686 -0.0601  0.4215  0.0525
11101W        W27175   8.524  12.403   3.324 -0.1802 -0.0829  0.3031
11102W        W27176   1.808  12.850   1.745 -0.1872  0.0332 -0.0170
11103W        W27177   1.774  11.556  12.985 -0.1267  0.0143 -0.3378
11104W        W27178   9.894  13.769   3.693 -0.0025  0.1896  0.2162
11105W        W27179   2.197   8.971  11.442  0.2072 -0.1108  0.0401
11106W        W27180  18.575  13.213   2.654 -0.1538  0.3388 -0.0102
11107W        W27181  11.548  16.421  13.363 -0.2870 -0.0273  0.4749
11108W        W27182  18.969  16.621   5.053  0.2583 -0.0272 -0.3109
11109W        W27183   3.704   3.674  14.172  0.0864  0.2249 -0.0473
11110W        W27184  15.411  11.217  11.448 -0.1185  0.0574 -0.0025
11111W        W27185   8.684   1.701   3.665 -0.0960 -0.0305  0.1176
11112W        W27186  15.231   4.604   3.588  0.0310  0.3708 -0.2506
11113W        W27187   6.218   5.295  12.028  0.0301 -0.1505  0.2506
11114W        W27188  13.876  10.815  12.960 -0.0926  0.1605  0.3117
11115W        W27189  19.239  15.079   4.103 -0.2312  0.0559  0.0583
11116W        W27190  18.501  13.739   0.108  0.1844 -0.0455  0.0172
11117W        W27191  10.058  15.441  12.005  0.0229  0.2023 -0.2455
11118W        W27192  12.335   4.442  13.799  0.0951  0.0343 -0.2709
11119W        W27193   6.199  13.938  13.193 -0.4109  0.0179  0.0151
11120W        W27194   3.251   3.105  12.622 -0.0333  0.5137 -0.2757
11121W        W27195   5.297  18.732  10.840  0.1632  0.1569  0.0111
11122W        W27196   6.675  11.029   2.486  0.3397 -0.1560  0.0118
11123W        W27197   9.072  12.367  10.452  0.0853  0.3489 -0.4276
11124W        W27198  12.693  13.303  13.627  0.1176 -0.1317 -0.3064
11125W        W27199   0.690   8.223   3.308  0.1220 -0.1427  0.4460
11126W        W27200  17.674   0.681  10.036  0.2822  0.1661  0.4644
11127W        W27201   4.415  11.168  12.860 -0.0837 -0.0176 -0.1180
11128W        W27202  14.290  17.436  11.099  0.0324 -0.1233  0.0254
11129W        W27203  16.084   3.456  11.387 -0.3559  0.0938  0.1601
11130W        W27204   8.762  13.276   0.303  0.0197  0.3770 -0.1895
11131W        W27205  12.300   8.831   5.275 -0.0275 -0.0467 -0.1352
11132W        W27206   3.332  16.201  14.485  0.0243 -0.3315  0.0923
11133W        W27207   3.663  13.724  11.159  0.3303 -0.0467  0.0155
11134W        W27208   0.370   3.267   1.407  0.1402 -0.0328 -0.3727
11135W        W27209  15.649  12.108  11.033 -0.4234 -0.2103  0.3606
11136W        W27210  17.175   3.003   0.412  0.4154 -0.0496 -0.0451
11137W        W27211   2.144  12.816   0.907  0.0962 -0.2606 -0.0874
11138W        W27212  15.583   7.903   0.147  0.0066  0.0240  0.0017
11139W        W27213  13.818   1.410  13.479 -0.0829  0.0189 -0.1460
11140W        W27214  13.519  10.619  11.252  0.1156 -0.1293  0.0660
11141W        W27215  14.211   1.708   2.579  0.2871 -0.0429 -0.0452
11142W        W27216   8.507  10.215   3.142 -0.0387  0.1443 -0.0789
11143W        W27217  19.256   7.460   4.692  0.3194  0.3735  0.0788
11144W        W27218   8.349  16.725  12.941 -0.2383  0.1552  0.4050
11145W        W27219   0.585   6.711  11.022  0.1216 -0.0017 -0.2491
11146W        W27220  10.509   2.098   3.439 -0.1430  0.1129  0.2676
11147W        W27221  18.510   6.433  12.194 -0.0664  0.1331  0.0069
11148W        W27222  14.332   5.425  12.068  0.0074 -0.1605 -0.2243
11149W        W27223  15.439  16.399   1.570  0.2019  0.0789 -0.0492
11150W        W27224  13.458  17.704  13.498  0.0590 -0.1456 -0.0614
11151W        W27225  15.723  10.657   0.620  0.1638  0.0834  0.2200
11152W        W27226  19.321   1.292  10.671  0.2440 -0.2306  0.1472
11153W        W27227   7.679   8.734  11.833 -0.0670  0.0593  0.4373
11154W        W27228  16.622  11.574  13.895  0.0813 -0.0151 -0.2840
11155W        W27229   9.337  11.482  14.844 -0.2247 -0.1355  0.0107
11156W        W27230  10.698  17.899  11.494  0.0320  0.1123  0.0947
11157W        W27231   0.305  18.062   0.939 -0.0108  0.0121 -0.1343
11158W        W27232   0.854   7.749   1.384  0.2180 -0.1155 -0.0927
11159W        W27233   0.314  10.187   9.945 -0.4244  0.1805 -0.1052
11160W        W27234  15.537   0.958   1.771 -0.2008  0.0596 -0.0800
11161W        W27235  13.636   2.277   0.304 -0.0440 -0.0995  0.1859
11162W        W27236  14.626   7.772   3.596 -0.0993 -0.1220 -0.0381
11163W        W27237   4.043   8.454  14.934  0.2640 -0.1244 -0.5733
11164W        W27238   4.590   0.380   1.853  0.3191  0.1464 -0.1165
11165W        W27239   6.639   3.055   4.743  0.3338 -0.0125  0.1537
11166W        W27240  13.169   6.410   1.091  0.0073  0.1606  0.3469
11167W        W27241  15.581   3.457   0.950  0.2748  0.1704  0.2071
11168W        W27242  18.087  13.232   3.396 -0.0291  0.0226 -0.2027
11169W        W27243   6.450  15.734  11.481  0.1165 -0.0198  0.2332
11170W        W27244  13.045  15.459  13.477  0.4538  0.0554  0.1429
11171W        W27245   4.568   0.281  11.218 -0.3165 -0.2784  0.0932
11172W        W27246   5.777   3.676  11.966  0.0401  0.0407 -0.1853
11173W        W27247   3.872  14.116  11.398 -0.0583 -0.0000  0.1633
11174W        W27248   0.510   1.291  14.358 -0.3692  0.0550  0.0695
11175W        W27249  10.939   9.911  14.395 -0.4582 -0.4364 -0.2018
11176W        W27250   2.107  11.625   6.300 -0.2118 -0.2566  0.0574
11177W        W27251  12.033  15.094   5.583 -0.1105 -0.1696 -0.0999
11178W        W27252  10.205   4.952   4.272 -0.0012  0.1172 -0.1536
11179W        W27253  13.805   0.153   1.972 -0.2480 -0.1601 -0.0388
11180W        W27254   1.941  14.884   0.577  0.2718  0.0097 -0.0451
11181W        W27255   8.472   2.592   2.812 -0.1273  0.0797 -0.1158
11182W        W27256  11.352   2.053  10.705 -0.1855 -0.0789  0.3258
11183W        W27257   7.749  19.064  12.416 -0.4077 -0.0581 -0.4273
11184W        W27258  10.116   8.671  11.523 -0.0233  0.0419 -0.0796
11185W        W27259   5.633  18.923   1.734 -0.0924 -0.2276  0.0855
11186W        W27260  16.812   3.830   2.864 -0.4518 -0.1945 -0.1466
11187W        W27261   1.914  17.758   0.594 -0.1069  0.1814  0.0189
11188W        W27262   0.500  19.172  13.029 -0.0765 -0.4516 -0.3714
11189W        W27263  16.711  17.990  11.659 -0.1128 -0.1719  0.1270
11190W        W27264  15.017  15.957   0.169 -0.0165  0.2864 -0.0191
11191W        W27265  13.014   0.581  14.068 -0.0921  0.1038  0.3021
11192W        W27266  14.112   4.521  14.425 -0.2258 -0.1952 -0.1694
11193W        W27267  11.258   2.445  14.020 -0.1778  0.0366 -0.1836
11194W        W27268  18.055  18.770  13.109  0.0566  0.3282  0.2826
11195W        W27269  15.872   8.274   3.270 -0.0206  0.2886 -0.2275
11196W        W27270  14.033   7.798   2.450  0.0701  0.0362  0.1090
11197W        W27271  14.015   3.841   2.181  0.0520 -0.1818  0.0391
11198W        W27272  17.618  14.837  11.865  0.3638  0.2240 -0.0271
11199W        W27273   2.053  13.517   5.076 -0.0409 -0.2672  0.1208
11200W        W27274   4.583   2.203  14.311  0.3518  0.1921 -0.0934
11201W        W27275  12.687   4.944  12.117 -0.1551 -0.1752  0.0286
11202W        W27276  12.930  10.099  14.545 -0.3468  0.0513 -0.0415
11203W        W27277   2.936  15.852   2.189  0.2416 -0.0011 -0.3619
11204W        W27278   0.255  14.454   2.967 -0.0031  0.0385  0.0043
11205W        W27279   8.187  18.905   0.067  0.0576 -0.0682  0.0767
11206W        W27280   0.636   6.819  13.035  0.0280 -0.0260 -0.1141
11207W        W27281   3.960  16.234  14.804 -0.2437 -0.1236  0.1001
11208W        W27282   5.515  15.412   2.848 -0.2256  0.1817  0.0139
11209W        W27283   6.448  17.123  12.625 -0.0247  0.0014  0.1266
11210W        W27284   3.207  14.280  10.437 -0.4019  0.0662  0.0247
11211W        W27285  11.059   2.409   9.857  0.0056  0.0843 -0.2700
11212W        W27286  16.930   3.527   5.051 -0.0192 -0.3231 -0.0396
11213W        W27287   2.131   2.864   4.120  0.1023  0.0385 -0.0910
11214W        W27288  12.832   3.313   2.043 -0.1921  0.0342  0.1454
11215W        W27289   5.267  14.395   4.778  0.1731 -0.0318  0.2762
11216W        W27290  15.987  18.650   6.152 -0.1200  0.0506 -0.2150
11217W        W27291  10.562   6.056  11.898 -0.1976  0.0248 -0.0963
11218W        W27292   0.769  11.668  11.684  0.1218  0.0598 -0.0708
11219W        W27293  12.124   7.242   3.463  0.0136  0.3755  0.0015
11220W        W27294  10.197   2.632   3.111 -0.3889 -0.0754  0.0691
11221W        W27295  18.631  14.840  10.815  0.2416 -0.5716  0.0071
11222W        W27296   8.114   3.658   0.596 -0.2818  0.0765 -0.2509
11223W        W27297   2.421   4.695   5.157 -0.1031  0.2011 -0.0840
11224W        W27298  10.465  18.845  10.427  0.0480 -0.0936 -0.1123
11225W        W27299   8.169  12.597  11.388  0.4402 -0.0367 -0.5058
11226W        W27300  10.888   0.187   1.752  0.1466 -0.2368 -0.0343
11227W        W27301   7.021  15.370   1.313 -0.2990 -0.1672 -0.3001
11228W        W27302  11.982   8.374  12.612  0.2827  0.0691  0.1567
11229W        W27303   3.969   2.153  11.713  0.3419  0.1991 -0.0635
11230W        W27304  11.046  11.168   4.207 -0.3304 -0.0584 -0.1849
11231W        W27305  15.850  11.109  11.618 -0.2449  0.0619 -0.2877
11232W        W27306   8.088  18.773  11.195 -0.0156 -0.0653  0.1587
11233W        W27307  15.756  14.549   5.344 -0.0568 -0.1331 -0.0317
11234W        W27308   0.827  10.648   0.083 -0.0861 -0.1888 -0.4077
11235W        W27309   0.861  16.441   1.324 -0.0804  0.2112 -0.0242
11236W        W27310   6.660   6.365  14.693 -0.1600  0.0076 -0.1165
11237W        W27311  17.980   9.704  12.677  0.2441 -0.1945  0.0991
11238W        W27312  18.659  12.476   3.100  0.0118 -0.1737  0.0168
11239W        W27313  15.767  14.276   0.340  0.2780 -0.6603 -0.0726
11240W        W27314   5.483   6.671   5.285  0.0600  0.1498 -0.0998
11241W        W27315  17.186  13.798   2.967  0.0614 -0.0400 -0.1899
11242W        W27316   3.961   3.362   2.739 -0.1866 -0.0563  0.1095
11243W        W27317  18.400   1.057   1.971 -0.0146 -0.3138 -0.0802
11244W        W27318  14.976   0.963  11.232 -0.0919  0.3034 -0.0891
11245W        W27319   5.929   4.573   1.127  0.2025 -0.3686 -0.0315
11246W        W27320   9.284  19.248   1.972  0.0615  0.0980 -0.3023
11247W        W27321  14.766   2.848  11.837 -0.0801 -0.3311  0.0973
11248W        W27322  10.273   8.100  10.801 -0.2794  0.2254 -0.1211
11249W        W27323   0.040   4.311  13.732 -0.1466  0.1310  0.0329
11250W        W27324  15.011   9.460  11.472 -0.1038  0.0127  0.0288
11251W        W27325  12.467  15.183   1.643  0.1627 -0.2832  0.1626
11252W        W27326  12.009   6.221  13.647 -0.0553 -0.1598  0.1369
11253W        W27327  16.459   2.027   1.826 -0.2205  0.0699 -0.0715
11254W        W27328   3.052  18.466  12.331 -0.3034  0.2056 -0.1796
11255W        W27329  17.327   5.470   2.936 -0.4769  0.0163 -0.2147
11256W        W27330  10.109  13.591   3.170  0.0101  0.0552  0.1078
11257W        W27331   1.708   3.372   9.943  0.2715  0.1366 -0.1149
11258W        W27332   2.876  17.702  13.811 -0.0273 -0.0512 -0.1436
11259W        W27333  16.523  10.953   1.523 -0.0774  0.1421  0.0760
11260W        W27334   3.922  14.234   2.192 -0.0718  0.1552 -0.2070
11261W        W27335  16.411  17.948   2.705 -0.1622  0.1463 -0.2904
11262W        W27336   4.388   1.284   5.333  0.1367 -0.0840 -0.0669
11263W        W27337   5.675   9.081   4.952 -0.1845 -0.1546 -0.1614
11264W        W27338  17.005  18.897   1.634 -0.1714 -0.0076 -0.2183
11265W        W27339  18.027  16.989   2.214  0.1394  0.1630  0.2504
11266W        W27340   2.427   5.522   5.987  0.0945 -0.0879  0.6207
11267W        W27341  12.747  16.392  13.883  0.3052 -0.0510  0.1227
11268W        W27342  10.261  12.551  12.076 -0.1998  0.1049  0.2626
11269W        W27343  10.832  16.207  11.390 -0.2955 -0.2370  0.1854
11270W        W27344  14.917  15.677  14.748  0.0243  0.0530  0.0470
11271W        W27345  18.562  10.666   0.338 -0.3371  0.1677 -0.0264
11272W        W27346  17.248  11.143  14.731 -0.2753 -0.1311  0.1649
11273W        W27347  10.762  19.285   2.539  0.1358 -0.2049 -0.2509
11274W        W27348   4.017   2.653   3.287  0.0153 -0.1522 -0.0579
11275W        W27349  14.684  13.446   0.054  0.1511  0.0719 -0.2882
11276W        W27350   0.217   6.162   3.711  0.0983 -0.1459  0.2566
11277W        W27351   8.891  13.891   2.471  0.1765 -0.1614 -0.1356
11278W        W27352  11.317   0.346   4.752  0.3509  0.0043 -0.1589
11279W        W27353   3.523  19.049  14.369  0.2641 -0.2308  0.3020
11280W        W27354   5.328  11.196  12.359  0.0878  0.0070  0.1547
11281W        W27355   2.060  18.292  14.758  0.0457  0.2508  0.3677
11282W        W27356   4.159  18.463  13.439 -0.1648  0.3223  0.0480
11283W        W27357   5.406   4.190  11.273 -0.0571 -0.0316 -0.0543
11284W        W27358   2.537  12.766  13.055  0.0865  0.3392  0.1672
11285W        W27359   5.907   7.381  14.134 -0.1848  0.3024 -0.2353
11286W        W27360   7.136   4.244  13.668 -0.0461 -0.0472 -0.3184
11287W        W27361  13.761  10.017   0.359  0.1682  0.2277 -0.3657
11288W        W27362   0.961   5.774  12.242 -0.1340 -0.2104 -0.0325
11289W        W27363   2.944   3.798   5.036 -0.3547  0.1646 -0.2519
11290W        W27364  18.526  17.666  11.759  0.0465 -0.2028  0.0890
11291W        W27365  16.657  18.074   4.039 -0.1199 -0.0014 -0.3821
11292W        W27366   8.422  15.906  14.667 -0.1776  0.2010 -0.3363
11293W        W27367   0.705   8.096  12.485 -0.0601  0.0175 -0.1211
11294W        W27368   7.905  19.028   1.500 -0.3386 -0.1004 -0.3776
11295W        W27369  14.724  19.281   4.036  0.0887  0.2930 -0.0033
11296W        W27370   8.701  12.108   2.474 -0.1097 -0.0456 -0.3493
11297W        W27371   8.967  10.363   2.395 -0.2899  0.1060 -0.1108
11298W        W27372   8.928   3.090   0.023  0.2748  0.2854 -0.0752
11299W        W27373   0.402  17.552  13.702 -0.1304 -0.2060  0.0652
11300W        W27374  18.638   3.571   3.151 -0.1315 -0.0214 -0.0504
11301W        W27375  17.498  11.738   2.732 -0.1659  0.0366 -0.1514
11302W        W27376   0.119  12.144  12.349  0.2163 -0.1805 -0.1181
11303W        W27377  16.880   6.825   2.010 -0.0467  0.1601 -0.0520
11304W        W27378  18.732   3.654  12.418 -0.0206  0.1154 -0.1452
11305W        W27379   9.513  12.168  10.650 -0.2893  0.3182  0.1562
11306W        W27380   1.421   3.112   1.519  0.0864 -0.2457 -0.0058
11307W        W27381  10.198   2.778  13.411 -0.2457 -0.2256  0.2067
11308W        W27382  12.905  12.256  12.554 -0.0679  0.0626 -0.3835
11309W        W27383  15.426   7.729  12.833  0.1232 -0.4241 -0.3235
11310W        W27384   6.705  11.470   2.716 -0.1616  0.0032  0.1547
11311W        W27385  12.279   4.613  10.702  0.4094 -0.1708 -0.3523
11312W        W27386   4.871   7.871  13.323  0.1129 -0.1093 -0.1412
11313W        W27387  18.076   7.887   1.850  0.0228  0.0192 -0.0520
11314W        W27388  16.851   5.522  14.227 -0.1365 -0.3079  0.0416
11315W        W27389  13.035  12.709  14.517 -0.1632  0.1495 -0.2644
11316W        W27390  18.354  11.644  11.015 -0.1000  0.0420  0.0915
11317W        W27391   5.516  10.286  12.255 -0.0404 -0.0486  0.0043
11318W        W27392  13.951   8.939  13.776 -0.0795  0.0086 -0.2267
11319W        W27393   2.038   4.259   1.481  0.2021  0.1711  0.0229
11320W        W27394  14.313   7.961  14.388 -0.1851  0.1059 -0.0173
11321W        W27395  12.713   3.533  12.288  0.0893 -0.1050  0.1627
11322W        W27396  14.265   7.905   1.660 -0.1745 -0.1891  0.2982
11323W        W27397   5.193   8.223   2.123 -0.2372 -0.0150 -0.0298
11324W        W27398  11.046   8.455   0.739  0.2343  0.0561  0.0336
11325W        W27399  16.475   5.418   1.692 -0.0177  0.2063  0.0278
11326W        W27400  17.369  12.486  11.247 -0.1279 -0.2895  0.1187
11327W        W27401   0.794  17.133   5.503 -0.0740 -0.0542  0.0050
11328W        W27402   0.359   5.083   1.590 -0.3651  0.0020  0.1823
11329W        W27403   8.618   2.968  13.917  0.2581  0.0536 -0.0596
11330W        W27404  11.138  12.540  13.238 -0.0574 -0.1800 -0.2023
11331W        W27405  14.087  10.125  14.246  0.0239 -0.1437  0.0627
11332W        W27406   0.646   0.930  15.001  0.1772 -0.1984 -0.2904
11333W        W27407   6.525   3.435   0.978  0.2275 -0.2087 -0.2386
11334W        W27408  14.272  11.445   4.829 -0.2079  0.2577 -0.0357
11335W        W27409   9.874  14.624  10.949  0.4036  0.3818  0.2119
11336W        W27410   9.886  17.545   3.444 -0.0281 -0.0638  0.0148
11337W        W27411   5.435  10.821   4.253 -0.3398  0.1698  0.2613
11338W        W27412   1.396   4.491   1.012  0.3199  0.2096  0.0866
11339W        W27413   4.261  18.407  11.644  0.0925  0.0469  0.0200
11340W        W27414  11.795  15.040  11.931  0.4466 -0.0177  0.0434
11341W        W27415  18.673   8.396   3.905  0.2101  0.0056 -0.0199
11342W        W27416   9.208   1.021   4.246 -0.0025  0.2496  0.3550
11343W        W27417  10.748   8.715   1.159  0.0935  0.0711 -0.1465
11344W        W27418  15.028   7.279   0.415  0.0458  0.3064  0.0858
11345W        W27419   4.600  12.523  13.388  0.0519 -0.0769  0.1266
11346W        W27420   9.694  17.123  11.927  0.1306 -0.1310  0.0807
11347W        W27421  12.197   6.182  13.177 -0.2792 -0.1180  0.1000
11348W        W27422   4.969  16.958   4.849 -0.1930  0.5288  0.1680
11349W        W27423  15.616   8.972   2.821 -0.2891  0.2621 -0.1128
11350W        W27424  18.138  16.343  11.459  0.3412  0.1283  0.0438
11351W        W27425   0.455   4.161  11.507  0.2288  0.1195  0.1117
11352W        W27426   8.465   2.177  13.257  0.0785  0.1253  0.1200
11353W        W27427  11.109   6.524   1.599 -0.0833 -0.0178 -0.2750
11354W        W27428   4.724  18.724   1.899  0.0210  0.1936 -0.0353
11355W        W27429   2.426   9.712  13.166 -0.0791  0.1105  0.4978
11356W        W27430  10.533  14.565  13.150  0.3988 -0.5717  0.2704
11357W        W27431   7.225  18.657  11.466 -0.1974  0.4630  0.2867
11358W        W27432   7.851  18.841   4.472  0.0154 -0.0109  0.4735
11359W        W27433   6.862  15.747  12.969  0.0143 -0.0231 -0.2972
11360W        W27434   6.662   4.497   9.957  0.4150  0.1827 -0.0049
11361W        W27435  17.832  12.261   1.013 -0.2848  0.1573 -0.1484
11362W        W27436  15.940   4.779   0.051  0.0549 -0.0552 -0.0033
11363W        W27437   0.898   6.815   1.417 -0.3631  0.3849  0.1386
11364W        W27438   8.155  11.964  11.612  0.1225  0.1654  0.1030
11365W        W27439   3.478   5.078   0.095  0.1720  0.4746  0.0696
11366W        W27440  12.575   8.899   4.690  0.3506 -0.3344 -0.1598
11367W        W27441   5.700  14.835   5.523 -0.0400  0.0438 -0.1512
11368W        W27442   9.139   5.506  12.317  0.1945 -0.2908 -0.0878
11369W        W27443  19.078   2.000   2.180 -0.0774 -0.0560 -0.2909
11370W        W27444   2.635   0.318  14.430  0.0840  0.0745 -0.2313
11371W        W27445  19.313   7.726  12.503 -0.3653  0.0276  0.0700
11372W        W27446  13.958  18.048   1.546  0.4109 -0.2944  0.1217
11373W        W27447   9.586   6.690   3.886  0.0775 -0.2072  0.2747
11374W        W27448  12.804   8.266  14.512  0.0404  0.1994  0.0286
11375W        W27449  11.784  13.364  12.599  0.2012 -0.1310  0.0131
11376W        W27450  16.929   8.205   3.147  0.2586 -0.3147 -0.0872
11377W        W27451  17.175   9.374   3.888 -0.1703 -0.3775  0.0071
11378W        W27452   7.615   0.472  12.921 -0.0804  0.0739  0.1115
11379W        W27453   5.098   6.960   3.609 -0.2486  0.2038 -0.3237
11380W        W27454  15.857   7.152   2.418 -0.1890  0.0814  0.1555
11381W        W27455  19.337   1.929   0.666  0.2770 -0.0969 -0.1323
11382W        W27456   0.024  19.110  11.423  0.0148 -0.0041 -0.0012
11383W        W27457  17.943   6.427  13.461  0.0838  0.1004  0.3236
11384W        W27458   9.028   7.773  12.367  0.3761 -0.3613 -0.1256
11385W        W27459   4.095  19.009  12.111 -0.2402  0.0093  0.2013
11386W        W27460   7.084  14.488  14.365  0.1213 -0.0721  0.1066
11387W        W27461  12.784   8.736   1.379  0.1364  0.0144  0.2234
11388W        W27462  18.741   1.565  11.288 -0.0075 -0.0672  0.0712
11389W        W27463   3.031  14.085  12.646 -0.3237 -0.0615  0.2113
11390W        W27464   7.236  11.863  11.472 -0.1258 -0.3134  0.3460
11391W        W27465  18.672  19.028   4.485 -0.0892 -0.2261 -0.0229
11392W        W27466  18.862   5.559  12.780 -0.2749 -0.1001  0.0215
11393W        W27467  19.062  18.282  13.968  0.0684  0.3422  0.2198
11394W        W27468   6.242   6.079  10.659 -0.1508 -0.0124 -0.1039
11395W        W27469   5.330  17.654   1.592 -0.3727  0.0012  0.2496
11396W        W27470  12.861  10.052   5.398  0.2992  0.1742 -0.1884
11397W        W27471   7.885   7.144  10.251 -0.1057 -0.1681 -0.3830
11398W        W27472  10.652   2.500  13.460  0.3243 -0.0469  0.1685
11399W        W27473  17.538  13.399  12.203  0.2098 -0.0283  0.0752
11400W        W27474  14.739  12.703   1.970 -0.1379 -0.1751  0.0035
11401W        W27475  12.385   6.320  12.753 -0.2182 -0.0115  0.0954
11402W        W27476  17.171   5.842  14.463 -0.1359 -0.2352  0.2211
11403W        W27477   4.088  18.494   0.991 -0.0067 -0.1980  0.0331
11404W        W27478   3.738   3.291  13.817 -0.1825  0.1753 -0.3478
11405W        W27479   3.135  10.094  12.118  0.1520  0.4251 -0.1623
11406W        W27480   5.089   0.731  13.756  0.2219 -0.3871 -0.0909
11407W        W27481   6.004   3.459  11.508  0.0192  0.0363  0.2688
11408W        W27482  12.401   4.704   2.778  0.0186 -0.0858 -0.0142
11409W        W27483   3.027   0.157  10.914 -0.0429  0.0747 -0.3747
11410W        W27484   3.675   5.498   1.936 -0.2003 -0.2953 -0.0118
11411W        W27485  13.609  14.563  13.954  0.1289 -0.1390 -0.1293
11412W        W27486   3.487   1.288   0.442  0.0028  0.0064 -0.0135
11413W        W27487   5.968   1.215   1.512  0.0650  0.1722 -0.3561
11414W        W27488  17.679   8.177   2.019 -0.2477 -0.1573  0.0478
11415W        W27489   9.462  14.616  12.903 -0.2060 -0.1112 -0.1128
11416W        W27490   8.950  16.425   0.909  0.1614 -0.1562  0.1403
11417W        W27491  18.602   1.475   3.362  0.0809 -0.2208  0.1244
11418W        W27492  12.178  14.716  13.673 -0.2621 -0.0840 -0.1040
11419W        W27493  12.515   2.968   4.207 -0.1054 -0.1042  0.2692
11420W        W27494  18.848  17.986   2.139  0.1260 -0.0544  0.0770
11421W        W27495  18.099   9.273  13.529 -0.2632 -0.2495 -0.1097
11422W        W27496  13.623   6.846  11.337 -0.3513 -0.3175 -0.2354
11423W        W27497  15.648  14.387   3.879 -0.0428  0.3902 -0.1774
11424W        W27498  13.605   0.918  12.380  0.2222 -0.0093  0.1254
11425W        W27499   3.089   2.430   1.265 -0.3461 -0.3055 -0.0919
11426W        W27500  16.315   5.300  14.584 -0.0626 -0.1789  0.1774
11427W        W27501   4.907  15.514   0.620  0.1065  0.0863  0.1938
11428W        W27502   9.153   3.044   2.654 -0.2214 -0.0996  0.0867
11429W        W27503  11.273   8.487   2.749  0.1541 -0.1260  0.2213
11430W        W27504   9.010   6.282  13.775  0.2801  0.2843  0.2300
11431W        W27505   8.538  10.314  11.712 -0.0299 -0.2334  0.0550
11432W        W27506  13.756  10.839   2.959 -0.0776 -0.2974 -0.1727
11433W        W27507   5.555   1.931  10.392  0.0555 -0.2588  0.1969
11434W        W27508  11.561  11.817   0.142 -0.0887 -0.0374 -0.2663
11435W        W27509  17.230   5.141  14.100 -0.0083  0.2605  0.0288
11436W        W27510  15.815   6.513  12.669 -0.3394 -0.0973  0.2131
11437W        W27511   4.232   8.333  11.801  0.0103  0.0743  0.2545
11438W        W27512  16.633   8.523  11.183 -0.4181  0.2841 -0.0471
11439W        W27513  18.674   6.262   2.863  0.3698 -0.0203 -0.2481
11440W        W27514  13.033   1.839   0.672 -0.2712  0.2499 -0.0644
11441W        W27515   9.295  13.271  12.587 -0.1153  0.1740  0.0026
11442W        W27516  12.580  10.583  11.115 -0.0228 -0.2736 -0.0170
11443W        W27517   5.908   9.585   2.931 -0.3306  0.3433  0.1755
11444W        W27518  13.375   7.459  13.760 -0.0224  0.0856 -0.1972
11445W        W27519  14.740   3.796   3.934  0.0536  0.0683  0.0673
11446W        W27520   9.350   6.083  11.025 -0.0786 -0.2447  0.2340
11447W        W27521  17.740  15.464  11.210 -0.0340  0.0436  0.6431
11448W        W27522  17.210   7.474  12.569  0.1028  0.1034  0.0508
11449W        W27523  16.812  12.719  13.758 -0.3065  0.2762  0.2275
11450W        W27524   8.032   9.456   1.472  0.1246  0.2129 -0.2689
11451W        W27525  15.662   4.680   3.250 -0.3474 -0.1320 -0.0175
11452W        W27526   0.198  18.716  14.572 -0.0462  0.2039 -0.1683
11453W        W27527  14.958   7.780   4.384  0.3615  0.0075 -0.0562
11454W        W27528   8.093   1.966   0.279 -0.1883  0.0353 -0.0011
11455W        W27529  17.070  16.923   0.906  0.3818 -0.0713  0.0261
11456W        W27530  14.970  17.061  14.232  0.0086 -0.3757  0.1686
11457W        W27531  10.028  17.225   3.875 -0.2280  0.1666 -0.2480
11458W        W27532   7.779  14.889  10.958  0.3563 -0.1302 -0.0529
11459W        W27533  11.909   5.287  13.671 -0.0069  0.0173  0.0608
11460W        W27534   6.481   8.208  13.050 -0.3100  0.2086  0.1075
11461W        W27535  17.489  14.148   4.343  0.1869 -0.4940 -0.2002
11462W        W27536   6.568  14.635  14.343 -0.2037  0.2254  0.0788
11463W        W27537  13.220   7.004   1.648 -0.0218  0.1141  0.0204
11464W        W27538   7.994   5.584   4.855 -0.2142 -0.1504  0.0902
11465W        W27539   8.664  14.913   4.020  0.1839 -0.1867  0.2250
11466W        W27540  15.012   3.186   2.333  0.0171  0.3286 -0.0518
11467W        W27541  16.476   7.492  11.776  0.0390 -0.0619 -0.0073
11468W        W27542   1.077  12.825   3.386 -0.0120  0.2975  0.1090
11469W        W27543   1.221  18.901   1.475  0.0444  0.0878 -0.1436
11470W        W27544   9.283  19.260  11.000  0.0884  0.0402  0.0707
11471W        W27545  10.391  13.331  14.246  0.0357  0.3959  0.1323
11472W        W27546  18.535   6.711   1.733  0.1047 -0.1040  0.0293
11473W        W27547  18.759  13.553  13.345 -0.0799  0.3490  0.0941
11474W        W27548   7.024  14.054   5.200  0.0595 -0.0566  0.0903
11475W        W27549  15.445  13.395   3.742 -0.2150 -0.2067 -0.0402
11476W        W27550  19.241   2.811   3.603 -0.1855 -0.2360  0.1394
11477W        W27551   7.874   8.664  13.096 -0.1529  0.2768 -0.0234
11478W        W27552   6.711   8.023  12.502  0.1783  0.0931 -0.0455
11479W        W27553   0.199  10.089  13.110  0.1035  0.0077  0.0122
11480W        W27554  17.667   6.160  10.684 -0.0174  0.1431  0.3631
11481W        W27555  15.121   7.786   2.867  0.0193  0.3418  0.1169
11482W        W27556   2.584   5.310   3.448  0.0228 -0.0725  0.1188
11483W        W27557   1.069  18.011  14.495  0.1362 -0.2013 -0.1330
11484W        W27558  18.288  14.534  11.116  0.1318  0.2105 -0.0189
11485W        W27559   0.076  18.508   9.669 -0.1532 -0.4070  0.0404
11486W        W27560   9.297  10.316   3.091 -0.1009 -0.3878  0.0004
11487W        W27561  14.757  11.727  12.539 -0.0033  0.1287 -0.1086
11488W        W27562   4.634  13.662   5.086 -0.2914 -0.1386  0.0301
11489W        W27563   3.281   1.109   3.405  0.0446 -0.1527 -0.0264
11490W        W27564  14.652  11.586   5.863  0.0082  0.0169 -0.1200
11491W        W27565   9.222   6.091  11.520 -0.3610 -0.2478 -0.3670
11492W        W27566   2.272   5.540   1.855 -0.2658 -0.2519 -0.1395
11493W        W27567   8.554   4.314   0.105  0.0682  0.0109  0.1731
11494W        W27568   9.219   1.370  14.158  0.2338  0.2092 -0.0300
11495W        W27569   2.056   7.595  13.525  0.2821  0.1824 -0.1071
11496W        W27570  13.946   1.848   1.738 -0.0205  0.0233  0.1575
11497W        W27571   2.432   1.360   2.998  0.2932  0.1489  0.0507
11498W        W27572  14.647   5.397  14.925 -0.0174 -0.0525 -0.0511
11499W        W27573  16.925   6.475   0.092  0.1819  0.0848  0.2005
11500W        W27574   3.808  17.154   4.410  0.0102 -0.0482  0.3180
11501W        W27575   9.586  10.872  11.878 -0.1290 -0.0966 -0.0081
11502W        W27576  18.099   7.243  12.949  0.1376  0.3308 -0.0880
11503W        W27577  16.856   5.182   2.929  0.0681 -0.0133  0.0017
11504W        W27578  15.441   5.153  12.342 -0.3659  0.0018 -0.1803
11505W        W27579   7.667   8.633   0.438  0.0224  0.2398  0.1770
11506W        W27580   9.021  11.056   1.923  0.0200  0.0332  0.2448
11507W        W27581   1.709  15.916   4.113 -0.1638 -0.1004  0.0807
11508W        W27582  14.156   7.181   5.197  0.1088 -0.0276 -0.1810
11509W        W27583   9.508  16.485   0.885 -0.2176  0.0461 -0.1641
11510W        W27584  10.334  18.780   3.128 -0.0038  0.0390  0.0540
11511W        W27585   1.346   1.485  13.141  0.5244 -0.1220  0.1085
11512W        W27586  12.735  14.963   9.996  0.0242  0.1777  0.1311
11513W        W27587  11.932   2.166   4.834  0.3050  0.2265 -0.0567
11514W        W27588   4.740   9.715  10.638  0.1529 -0.1443 -0.0047
11515W        W27589  11.415  18.805   0.272 -0.1266  0.3156 -0.0737
11516W        W27590   8.741  12.243   0.773  0.1356  0.0905  0.0234
11517W        W27591  18.098  18.225   4.859 -0.2857 -0.3147  0.1101
11518W        W27592  12.497  14.808   3.063  0.0923  0.1264  0.1328
11519W        W27593  17.601   6.997   1.836  0.0733 -0.1411  0.0673
11520W        W27594   9.388   7.600  14.966 -0.1911  0.2240  0.2494
11521W        W27595   5.132   9.568   9.761  0.0758 -0.2857  0.2259
11522W        W27596  14.425   9.951   2.199  0.2585 -0.1322 -0.0048
11523W        W27597  17.819  14.753  12.420 -0.0104 -0.0587 -0.2425
11524W        W27598   1.136  18.438   0.330 -0.0115 -0.2854  0.0152
11525W        W27599   3.308  13.071  12.782 -0.1586 -0.0307 -0.0155
11526W        W27600  17.021   4.631   1.256  0.2229  0.0224 -0.1076
11527W        W27601   5.262  15.580   3.480  0.0495 -0.0867  0.0613
11528W        W27602   5.301   6.193   0.231 -0.0262 -0.0033 -0.1283
11529W        W27603   0.292   6.164   2.685 -0.2340 -0.0855 -0.2628
11530W        W27604   1.795  13.791   1.794 -0.2279 -0.0664  0.1567
11531W        W27605  13.535   8.459  11.757  0.3102 -0.3320 -0.1515
11532W        W27606   5.332   6.631  13.157  0.0170 -0.0320  0.0222
11533W        W27607  11.350   3.455   4.991 -0.1196 -0.0467 -0.1036
11534W        W27608  10.997  11.900   3.785 -0.1044 -0.2420 -0.1063
11535W        W27609  17.830   5.988   4.720  0.0469 -0.1288 -0.1500
11536W        W27610   4.352  12.733  14.099  0.2110 -0.2000  0.0104
11537W        W27611   4.049   1.673   3.765 -0.0212  0.3468  0.0511
11538W        W27612  16.071  10.443   0.339  0.0041  0.2345 -0.0901
11539W        W27613  11.889   1.226   0.116  0.1251  0.1558 -0.1043
11540W        W27614  15.520  16.308   2.170  0.0884  0.0612 -0.0078
11541W        W27615   6.391  11.468  11.470 -0.0657 -0.0197  0.3889
11542W        W27616   5.242   2.767   4.756 -0.4441 -0.1709 -0.2709
11543W        W27617  19.190   7.060   3.769  0.1535 -0.0585 -0.3093
11544W        W27618   5.636   6.584  13.606 -0.1006  0.0377 -0.0020
11545W        W27619   4.722   7.297   5.694 -0.1120  0.2655  0.0854
11546W        W27620  14.665   2.537  12.588 -0.0172  0.1231 -0.0167
11547W        W27621   6.522   7.825  14.513 -0.2920  0.1066  0.1676
11548W        W27622   4.301  13.966  14.899  0.3342  0.0145  0.1470
11549W        W27623  10.077  10.040  11.799 -0.0762  0.3128 -0.2578
11550W        W27624   6.595  14.543   1.192  0.0735  0.1142 -0.5186
11551W        W27625  14.483   9.193   2.894  0.1768 -0.1379  0.0731
11552W        W27626  14.045  12.813  14.236 -0.0727 -0.1850  0.4491
11553W        W27627   0.173  17.289   9.677  0.1190  0.0595 -0.1109
11554W        W27628  16.675   2.020   4.052 -0.1269 -0.2805  0.0512
11555W        W27629   7.985  12.108  12.495 -0.0241  0.0610 -0.2624
11556W        W27630  12.794   7.858   9.454 -0.1353  0.0325  0.2556
11557W        W27631   3.191  15.188   1.994  0.3069  0.1402  0.2565
11558W        W27632  12.747  13.504  12.517  0.1285 -0.2148 -0.2902
11559W        W27633   4.389  15.308   4.141  0.0132 -0.0192  0.0642
11560W        W27634   0.426   6.992  12.338 -0.1893  0.5058 -0.2715
11561W        W27635  18.980   1.731   5.371  0.1151  0.1386  0.0726
11562W        W27636  12.033  10.211   2.301  0.1767  0.6359 -0.0483
11563W        W27637   1.132   5.716   4.436 -0.0673 -0.1508 -0.0778
11564W        W27638   9.128   4.946  10.230  0.1482  0.1214  0.2771
11565W        W27639  10.540  18.225  12.790 -0.1270 -0.1282 -0.2915
11566W        W27640  14.900   6.940   3.436 -0.0363  0.2094 -0.1663
11567W        W27641   5.184   2.741  12.779  0.1917  0.0233  0.1072
11568W        W27642   1.804   8.292  11.035  0.2472 -0.2202 -0.2532
11569W        W27643  14.246   1.826  11.275  0.0972  0.0929 -0.0287
11570W        W27644   2.028   0.436   0.527 -0.1809  0.0362  0.1072
11571W        W27645  18.298   5.230   2.528  0.2349 -0.2874 -0.1483
11572W        W27646   7.553  17.744   3.441 -0.1473 -0.0490 -0.0751
11573W        W27647  13.567  13.670   1.547  0.2560  0.0323  0.5044
11574W        W27648  12.069  18.077   0.751  0.0366  0.1240  0.1543
11575W        W27649  13.341   0.652   3.510  0.3123 -0.0660  0.0374
11576W        W27650  16.009  10.426   4.626  0.2565 -0.1041 -0.1025
11577W        W27651  18.957   0.072   3.421  0.6209  0.1358  0.1142
11578W        W27652   9.300   4.147  12.268 -0.2197  0.0124  0.2016
11579W        W27653  13.814  16.484   3.097  0.3541 -0.2726 -0.0366
11580W        W27654   4.415   8.360  12.967 -0.1556 -0.3072 -0.1210
11581W        W27655  17.217   1.265   4.036 -0.2460  0.0160 -0.1203
11582W        W27656  14.978  18.098   2.255  0.1400 -0.1970 -0.1761
11583W        W27657  16.972   4.414  10.997 -0.1142 -0.2187  0.0281
11584W        W27658   3.756  15.678   0.036  0.0231  0.0131 -0.0844
11585W        W27659   8.442  18.137   0.677  0.3163 -0.1152  0.0655
11586W        W27660   7.581  11.817   3.766  0.1865  0.0608 -0.0594
11587W        W27661   9.951   5.631   4.627  0.2126  0.3751 -0.2328
11588W        W27662   5.236   7.010  13.521  0.1372 -0.0490  0.0985
11589W        W27663   5.334  17.318   3.360 -0.1090 -0.0621  0.0433
11590W        W27664   2.724   3.052   1.432  0.0356 -0.1186 -0.4366
11591W        W27665   9.183  10.680   1.415 -0.3913 -0.4498  0.0177
11592W        W27666   1.227   4.188  11.327  0.0078 -0.2398 -0.0017
11593W        W27667  14.252   0.536  14.673  0.0504 -0.3114 -0.0873
11594W        W27668   3.834  13.729  14.750  0.0328 -0.2135 -0.0948
11595W        W27669  12.588  13.001   0.186 -0.0872  0.0693  0.3638
11596W        W27670  11.811   3.835   3.251  0.1935  0.0020  0.3299
11597W        W27671   1.808  13.004   4.215 -0.3025 -0.1431 -0.0661
11598W        W27672   8.946  12.016  13.204  0.0607 -0.3194 -0.2486
11599W        W27673   2.520   1.874   4.015 -0.3165 -0.2012 -0.3688
11600W        W27674   3.717   7.375   3.095  0.0866  0.0202 -0.0525
11601W        W27675   4.919   2.360   3.538  0.0566  0.0808  0.0224
11602W        W27676   0.744   5.806   1.014  0.0592  0.4187 -0.0409
11603W        W27677  17.757  13.469  13.396 -0.1969 -0.1321 -0.0513
11604W        W27678   0.209  18.250   0.419 -0.2031  0.0751  0.0147
11605W        W27679   4.716   7.618  11.573  0.3262 -0.0147 -0.0721
11606W        W27680   7.194   9.145  14.683  0.0358  0.3945  0.3709
11607W        W27681   5.911   8.910  13.290 -0.3772  0.0992  0.0401
11608W        W27682  16.137  15.702  12.552  0.1709 -0.1156 -0.0530
11609W        W27683  16.038   6.664  13.122 -0.0466  0.2109 -0.1104
11610W        W27684   0.694  18.573   0.631 -0.1590 -0.2993  0.1873
11611W        W27685   7.426   6.038   3.826  0.0133  0.1050 -0.0517
11612W        W27686  12.676   3.898  12.672 -0.1443 -0.4041 -0.0464
11613W        W27687   1.536   3.577  13.170 -0.0232 -0.2731 -0.2533
11614W        W27688  12.843   3.117   2.493 -0.0872  0.2304 -0.1924
11615W        W27689   5.628  12.145   2.262 -0.3663 -0.2586  0.0787
11616W        W27690   9.422   2.975  12.239  0.1972 -0.0132 -0.1122
11617W        W27691   9.046   8.282  13.730  0.0597  0.0448 -0.1593
11618W        W27692   1.676  11.532   4.144  0.0763  0.0749  0.1363
11619W        W27693  16.639   4.761  11.197 -0.2796 -0.2931 -0.1625
11620W        W27694   5.500   3.852  13.727 -0.1417  0.0414 -0.2547
11621W        W27695  18.371   2.833  10.530  0.3186 -0.1476 -0.1679
11622W        W27696  12.961   7.060  12.873  0.0217  0.0135  0.2479
11623W        W27697   6.208   5.622   1.051 -0.3077  0.0694  0.1542
11624W        W27698  16.858  15.316  10.682  0.0989 -0.4280 -0.0529
11625W        W27699  11.900   1.301   4.505  0.2562 -0.0268 -0.0408
11626W        W27700  14.260  15.223   1.166  0.1515  0.2926  0.3794
11627W        W27701   1.246  12.294   0.405  0.1180  0.1059 -0.0808
11628W        W27702   9.277  17.635  11.676 -0.1461  0.2056  0.0574
11629W        W27703   8.860  18.707   1.341  0.0285 -0.0066  0.3312
11630W        W27704  12.627  19.017  13.306 -0.0527  0.4945 -0.1110
11631W        W27705  14.672  18.885   2.388  0.0582  0.0115  0.2116
11632W        W27706   7.974   5.674  10.440 -0.2880 -0.2610  0.0644
11633W        W27707  10.051   0.720   1.035 -0.0757  0.3127 -0.4464
11634W        W27708  17.623   5.401  14.322 -0.0248 -0.3416  0.3740
11635W        W27709   4.996   4.898  12.302  0.1076 -0.0376 -0.1483
11636W        W27710   8.244  18.571   4.515 -0.1568  0.1126 -0.0653
11637W        W27711   2.467   4.575  10.829 -0.2474 -0.0685  0.0709
11638W        W27712  13.087  12.778  11.100 -0.1260  0.0302  0.0999
11639W        W27713  16.228   2.824   1.578  0.1736  0.0036 -0.2047
11640W        W27714  18.522  18.155  13.124 -0.0095 -0.1886  0.3072
11641W        W27715  17.798  18.743   1.932 -0.4373 -0.0066  0.1752
11642W        W27716   6.821   3.573   4.982 -0.2532 -0.0968  0.1665
11643W        W27717   6.440   9.023  11.787  0.0150 -0.0245 -0.2082
11644W        W27718   0.879   6.248   2.509  0.1632  0.1538 -0.2191
11645W        W27719   0.502   1.838   0.419 -0.0481  0.0232 -0.3115
11646W        W27720   9.004   5.242  10.712  0.4196  0.2986 -0.2705
11647W        W27721   9.898   9.641  12.524  0.0694  0.0252 -0.0942
11648W        W27722   5.553   8.682   3.689  0.1776 -0.0605 -0.1559
11649W        W27723  15.993   2.427   0.090 -0.0930  0.1586  0.0465
11650W        W27724  15.172   6.399  13.495  0.2182 -0.1105  0.1428
11651W        W27725  12.108  16.164   3.508 -0.1298 -0.0279  0.1128
11652W        W27726   9.830   6.825  12.296 -0.2549 -0.2147  0.0342
11653W        W27727  14.554   4.703  12.992  0.0184 -0.0218 -0.2225
11654W        W27728  14.697   3.820  12.264  0.1109  0.3057 -0.2843
11655W        W27729  14.977  16.976  10.611  0.1388 -0.2176  0.0240
11656W        W27730   0.283   8.319   4.833 -0.1042 -0.2015 -0.3149
11657W        W27731  17.115  17.294  12.513  0.1542 -0.0907  0.0269
11658W        W27732  16.646  15.133  13.972  0.1760 -0.1881 -0.3141
11659W        W27733  12.050   7.215  13.318  0.3521 -0.3348  0.1431
11660W        W27734   3.374   2.430   1.743  0.2777  0.0781 -0.1006
11661W        W27735   9.979  16.706  10.228  0.0790 -0.3817  0.3732
11662W        W27736   1.743  16.113   0.004 -0.0475  0.2226  0.1916
11663W        W27737  12.252  19.086   5.171 -0.2309  0.3051  0.2870
11664W        W27738   4.678   7.551  12.505 -0.2415  0.0969 -0.0641
11665W        W27739  18.709  12.318   3.639 -0.0922  0.2040  0.5150
11666W        W27740   2.696  12.437   5.761 -0.2928 -0.2233  0.0174
11667W        W27741  14.545   6.343   3.720  0.0453 -0.0396  0.3207
11668W        W27742  16.249   9.283  13.889  0.1985  0.4239  0.0397
11669W        W27743  15.285   3.246   5.280 -0.1656  0.0334 -0.2315
11670W        W27744  18.110   2.861   3.962 -0.1915 -0.2877  0.2377
11671W        W27745  12.632   1.598  14.108 -0.0948 -0.0031 -0.0902
11672W        W27746   8.014   2.403   3.684 -0.1094 -0.2268  0.2087
11673W        W27747   7.808  10.890   1.528 -0.0071  0.1703 -0.0942
11674W        W27748   7.411   2.733  10.588  0.0887  0.0339 -0.1934
11675W        W27749  13.605   8.063   1.042 -0.1685 -0.0804 -0.0583
11676W        W27750  10.002   4.744   3.868  0.1984 -0.2889  0.3177
11677W        W27751  18.977  11.295   1.490  0.3179 -0.0852 -0.0236
11678W        W27752   0.381  12.809   4.595  0.0690 -0.0684 -0.3259
11679W        W27753  13.490   9.213   2.550  0.0685  0.1089  0.0125
11680W        W27754   9.357   4.979  12.781 -0.1812  0.1577  0.2641
11681W        W27755  11.749   5.642   1.211 -0.0753  0.1949  0.0598
11682W        W27756   8.588   4.243   2.364 -0.0031 -0.1463  0.0692
11683W        W27757   5.689   8.829   1.603 -0.1296 -0.0438  0.0789
11684W        W27758  12.623   8.660   0.733  0.1415 -0.2269 -0.3346
11685W        W27759   0.029   8.296   0.918  0.2904 -0.1027 -0.0823
11686W        W27760   2.259  11.627   1.479  0.0230 -0.0114 -0.1589
11687W        W27761   1.491  12.849  14.658  0.1578  0.1828  0.2211
11688W        W27762   8.486  13.938  12.516 -0.0822 -0.1648  0.2998
11689W        W27763   5.533   5.038   9.968  0.0737  0.0594  0.1164
11690W        W27764  15.101  12.589   4.599  0.0677  0.1427  0.3203
11691W        W27765  12.870  12.424  12.065  0.0564 -0.0118 -0.3448
11692W        W27766  15.742   5.492   2.065  0.1578 -0.0084  0.0372
11693W        W27767   7.286   8.079   4.722  0.0120 -0.0844  0.0958
11694W        W27768  19.289  17.026  10.665  0.1317 -0.0363 -0.2110
11695W        W27769   7.954   9.180   3.033 -0.0149 -0.4069 -0.2345
11696W        W27770   6.798   2.478  12.293 -0.1392 -0.1965 -0.0848
11697W        W27771  15.516  16.090   0.395  0.0369 -0.0059  0.2689
11698W        W27772   8.887  18.136  13.470 -0.3216 -0.0463 -0.1701
11699W        W27773   9.193   8.453  11.537  0.0429 -0.0851 -0.0064
11700W        W27774   2.147  18.695   5.327 -0.0303 -0.0579  0.0877
11701W        W27775   1.380   0.563  13.077 -0.1875  0.0243 -0.1164
11702W        W27776   1.658  13.846   0.483  0.0280  0.1275 -0.3442
11703W        W27777  11.485  16.992   5.235  0.3744 -0.0415  0.1271
11704W        W27778  10.348   4.787   1.068 -0.1723  0.3788 -0.1014
11705W        W27779  19.264  19.338  14.354  0.2776  0.0281  0.1134
11706W        W27780   8.839   3.326  12.210  0.1079  0.0590  0.0076
11707W        W27781   0.273  14.733   2.108  0.2275 -0.0784  0.0495
11708W        W27782  15.716  18.274   4.391 -0.0561 -0.3362 -0.1601
11709W        W27783   5.781  15.652   3.296  0.0993 -0.0734  0.0435
11710W        W27784  13.213  14.780   0.237 -0.1482 -0.0907  0.1312
11711W        W27785   0.785   2.437   1.053  0.0999 -0.1584 -0.1823
11712W        W27786   8.002   3.969  13.674 -0.0213  0.1393 -0.3620
11713W        W27787  10.894   6.159   2.415  0.5161 -0.0122  0.1343
11714W        W27788   5.920   0.136   4.130 -0.1537  0.1770 -0.0705
11715W        W27789   7.972  12.683   4.075  0.0373 -0.1576 -0.1107
11716W        W27790  15.924   1.822  10.855  0.2342 -0.1152 -0.1544
11717W        W27791   1.658  16.290  14.006  0.1705  0.0140  0.1245
11718W        W27792  10.902  14.804  12.868  0.3727 -0.2411  0.0379
11719W        W27793  18.900  13.133   0.944  0.2523 -0.2221  0.0312
11720W        W27794  14.933  12.864   3.591 -0.0465  0.1106  0.1159
11721W        W27795   9.264  18.928   4.421 -0.1497  0.2345 -0.2899
11722W        W27796  13.524  11.752  13.133 -0.3654  0.1905 -0.5606
11723W        W27797   0.888  13.669   1.030  0.2248  0.2975  0.0947
11724W        W27798   8.815  17.120   5.018 -0.1029  0.0952 -0.0328
11725W        W27799  10.090  16.560  13.667 -0.2884  0.0796  0.0065
11726W        W27800   9.183  16.771  14.530 -0.2346 -0.1282 -0.0055
11727W        W27801   3.921   2.369  11.031  0.2296 -0.0231 -0.0432
11728W        W27802   2.353  17.553  11.303  0.1465 -0.3592 -0.0104
11729W        W27803  14.326   9.671   4.335 -0.3657  0.2925 -0.1361
11730W        W27804  16.412  16.869  11.685  0.2004 -0.1379 -0.0079
11731W        W27805   0.826   7.266  12.152 -0.1360 -0.2207 -0.1895
11732W        W27806  16.975  15.505  11.273  0.0605 -0.0224  0.0421
11733W        W27807  17.550   4.580  12.294  0.1637  0.1282  0.1631
11734W        W27808   8.741  10.086   0.152 -0.1250 -0.0557  0.1750
11735W        W27809  13.148  13.150  10.474  0.1675  0.0051  0.2612
11736W        W27810  19.135  15.321   1.882 -0.1513  0.1327  0.0191
11737W        W27811   8.820   6.301   4.071  0.2839  0.2408 -0.5285
11738W        W27812   9.303   5.412   0.917 -0.2487 -0.1153 -0.2051
11739W        W27813   2.741  11.284  10.502 -0.1334 -0.1614 -0.2659
11740W        W27814   5.521   0.433   9.819  0.0214 -0.4069 -0.1468
11741W        W27815  15.432  16.788  13.572 -0.2210 -0.1536  0.1357
11742W        W27816   1.536  14.294  14.490  0.1142  0.2519 -0.1000
11743W        W27817   7.707   7.212  11.227  0.0986 -0.3086 -0.1556
11744W        W27818  19.024   4.606  10.261  0.1277  0.1527  0.4267
11745W        W27819  14.691  16.116   4.415 -0.5032  0.1715 -0.0234
11746W        W27820   3.504  19.253   2.617 -0.1021  0.0670 -0.1375
11747W        W27821  16.110  12.211   3.826 -0.1321 -0.1403 -0.2871
11748W        W27822  10.072   4.402  11.110  0.1199  0.0166  0.0643
11749W        W27823  17.425  13.906  13.448  0.2836 -0.3628  0.0240
11750W        W27824   8.611   6.793  12.943  0.0410 -0.3795 -0.1676
11751W        W27825   0.801   0.756  13.541  0.0275 -0.1922  0.4406
11752W        W27826   4.498   3.846   2.349  0.0230  0.0081 -0.2429
11753W        W27827   3.694   2.993  14.960  0.0644  0.1190  0.2152
11754W        W27828  17.305   9.846   1.595 -0.0560  0.2370 -0.1048
11755W        W27829   8.977  14.477  10.742 -0.1721  0.0312  0.3215
11756W        W27830  10.696   6.055  11.379 -0.2101 -0.1044 -0.0017
11757W        W27831  16.948   6.521  10.101 -0.2300 -0.0801  0.2041
11758W        W27832  14.587  17.420  13.772 -0.0948 -0.0139 -0.0496
11759W        W27833  10.212  14.150   1.000  0.0335 -0.1212  0.1315
11760W        W27834   9.989  13.827  13.603 -0.1125 -0.2109  0.1520
11761W        W27835   7.250  13.866   1.011  0.5257  0.0283  0.1592
11762W        W27836   3.714   8.239  14.583  0.3402 -0.0304 -0.2155
11763W        W27837   3.735  12.032  12.992 -0.1080 -0.3251  0.0753
11764W        W27838  13.089  19.293   1.301  0.0093  0.0903 -0.0914
11765W        W27839   0.584  19.229   3.126  0.3388  0.1245  0.0671
11766W        W27840   2.537   0.832   2.151  0.5095  0.0456 -0.0024
11767W        W27841   0.877  10.986   0.450 -0.3392 -0.1748 -0.1373
11768W        W27842   1.953   9.677   4.569  0.4828 -0.0426  0.0399
11769W        W27843   5.449  11.290  10.483 -0.2518 -0.1940 -0.0572
11770W        W27844  16.944  17.519   4.367 -0.3415 -0.1321  0.0234
11771W        W27845  18.042   5.703   1.387  0.1026  0.2045  0.0727
11772W        W27846  15.064   0.833   5.154 -0.0612  0.2471  0.1877
11773W        W27847  14.382  11.734   2.012  0.5575 -0.2204 -0.2242
11774W        W27848   3.738  15.476   0.516  0.0618  0.0091  0.2189
11775W        W27849  11.336  14.602   0.085  0.0635 -0.0109  0.2299
11776W        W27850   2.794   3.332  12.708  0.3334 -0.1766 -0.0895
11777W        W27851  17.879  15.002   0.066 -0.3187 -0.0152 -0.2705
11778W        W27852  15.564  17.085  11.424 -0.0858  0.0830  0.1408
11779W        W27853   2.791  18.677   2.559  0.0786 -0.1413  0.0218
11780W        W27854  11.319  19.319  11.929 -0.1600 -0.0413 -0.1143
11781W        W27855   3.107   4.865  14.493 -0.0124  0.1974 -0.3493
11782W        W27856  16.165  11.834   1.605  0.1314 -0.3085 -0.1185
11783W        W27857   2.598   7.491   3.553 -0.0654 -0.0670  0.3414
11784W        W27858   1.444   6.610  11.643  0.2338  0.3476  0.0283
11785W        W27859  16.209   8.474  11.544  0.0005 -0.1713 -0.0409
11786W        W27860  10.484   9.148   3.097 -0.3332 -0.2097 -0.1672
11787W        W27861   6.202  16.666  12.539  0.1075  0.0345  0.4314
11788W        W27862   4.845  14.172  10.939 -0.0370 -0.1338  0.3219
11789W        W27863   5.384  18.878  13.904 -0.0766 -0.1014 -0.0763
11790W        W27864  18.029   8.301  11.465  0.2010  0.2894 -0.0640
11791W        W27865  17.496   2.888  11.032 -0.0885  0.0114 -0.3694
11792W        W27866   7.306  16.789   2.709  0.2751 -0.0448 -0.0493
11793W        W27867   4.806   0.647  10.232  0.2685  0.3313 -0.3878
11794W        W27868   5.053  17.756   2.873  0.2343  0.2667  0.1577
11795W        W27869  14.093   1.935  14.165 -0.1890 -0.0560 -0.2077
11796W        W27870   2.974   7.299  12.627  0.1693 -0.4522  0.1803
11797W        W27871  18.029   6.114  12.955 -0.1680  0.1041 -0.1246
11798W        W27872   9.127   9.114  10.611  0.3201  0.1398 -0.0945
11799W        W27873   9.734   4.172  12.599  0.1887  0.2974 -0.1739
11800W        W27874  10.174   7.776   2.560  0.1512  0.1903 -0.1435
11801W        W27875   5.343  18.051  10.279  0.1107  0.2970 -0.4202
11802W        W27876   3.059  12.680  11.876  0.0786  0.1776 -0.3285
11803W        W27877   3.571   5.940  12.749  0.2013 -0.0303 -0.0283
11804W        W27878  15.047   5.724  12.200 -0.1206  0.3493  0.1286
11805W        W27879   9.980  18.450   1.880 -0.1585 -0.0669  0.1878
11806W        W27880   9.802  16.944   0.290 -0.1406  0.1720  0.1557
11807W        W27881   2.685   7.468   3.061  0.1054  0.0890  0.1934
11808W        W27882  17.749  13.772   0.222  0.1194  0.3624  0.2471
11809W        W27883   4.022   7.645   3.542 -0.3021 -0.4534 -0.0870
11810W        W27884   2.070  13.412   0.045  0.1108 -0.1191  0.0437
11811W        W27885  15.575   7.576   1.054  0.1348 -0.0788 -0.1633
11812W        W27886   4.233  17.539   0.663  0.1604 -0.1172 -0.3286
11813W        W27887  11.252   7.653  12.823  0.1573 -0.0878  0.2521
11814W        W27888  12.031   7.056   2.522  0.5207  0.0515 -0.3120
11815W        W27889   9.215  15.104  14.013  0.1018 -0.1591 -0.0162
11816W        W27890  12.378  16.701   1.076 -0.1280  0.0336  0.3415
11817W        W27891   3.734  13.208   3.228  0.2108 -0.1140  0.0547
11818W        W27892   4.002  16.020  11.260 -0.0735  0.1798 -0.0325
11819W        W27893  12.611   5.303  14.680 -0.2249 -0.1854 -0.2569
11820W        W27894   5.923   0.700   9.995 -0.2610  0.0203 -0.2277
11821W        W27895   2.768  17.630   4.458 -0.0174 -0.1570  0.1567
11822W        W27896  11.677   3.800   4.346 -0.4463  0.0614 -0.3401
11823W        W27897  14.427   9.813  13.936  0.3260  0.1409 -0.3171
11824W        W27898   0.601   1.619  14.957 -0.0018  0.0254 -0.1026
11825W        W27899   1.823  17.557   1.717 -0.1828  0.1414  0.1616
11826W        W27900  14.151   3.257  11.252  0.1182 -0.2039 -0.1263
11827W        W27901   3.022   3.532  12.352 -0.0491  0.0936  0.0057
11828W        W27902   4.798   4.729   3.473  0.2670 -0.0223 -0.3872
11829W        W27903   8.730  18.304   1.613 -0.1659  0.1268 -0.1126
11830W        W27904  17.535  13.974   3.342  0.2445  0.1635  0.3071
11831W        W27905   7.556   3.391   5.374  0.0253  0.1646  0.0055
11832W        W27906   2.699  13.374   1.724  0.1217 -0.2080 -0.2598
11833W        W27907  16.673  15.728  12.494 -0.0120  0.2313 -0.0361
11834W        W27908  14.208  16.049   0.852  0.1329 -0.0553  0.0918
11835W        W27909  15.899  15.801   0.612 -0.1079  0.0252 -0.1220
11836W        W27910  10.995  17.096   2.634  0.1515  0.1759  0.0689
11837W        W27911  11.858  16.655   4.433 -0.3040 -0.2451 -0.2284
11838W        W27912   9.076   8.301   0.856  0.0512  0.0156 -0.3342
11839W        W27913   7.920   9.625  10.251 -0.0047 -0.0259  0.2043
11840W        W27914   1.658   6.297  13.216 -0.1601  0.1176 -0.1144
11841W        W27915  10.806  12.635   2.343 -0.1280 -0.1762  0.0714
11842W        W27916  10.539   8.893   1.562 -0.3482  0.0862 -0.3104
11843W        W27917   9.223   7.648   1.675  0.0415  0.1063 -0.3265
11844W        W27918   3.577   3.757   1.919  0.0292  0.0587  0.3313
11845W        W27919   2.018   8.279  13.968  0.0150 -0.0210 -0.0311
11846W        W27920   1.286  16.035   0.770 -0.0955  0.0673  0.1226
11847W        W27921  18.364  14.535   2.876  0.0485  0.1943  0.5170
11848W        W27922  12.133   0.799  13.268 -0.3680  0.1544 -0.1236
11849W        W27923   2.396   3.408  14.875 -0.1671  0.0295  0.0128
11850W        W27924  16.831   9.571   4.181  0.2369 -0.0308 -0.1439
11851W        W27925  15.083   4.020   3.487  0.0203 -0.0766 -0.0301
11852W        W27926  18.817  18.069  10.751  0.1279 -0.0753 -0.3110
11853W        W27927   7.523   9.802   0.211 -0.0861  0.0884  0.0094
11854W        W27928  16.153   2.259   4.825  0.0743 -0.0787  0.0153
11855W        W27929  14.055  14.538  12.440 -0.0261  0.1911 -0.1833
11856W        W27930  19.062  10.073  13.264  0.3170 -0.1716  0.0947
11857W        W27931  12.768   3.040  13.958  0.1852  0.2251  0.0618
11858W        W27932  10.873  14.950  13.410 -0.0934  0.1436 -0.0663
11859W        W27933   1.647   4.807  14.452  0.2933 -0.0448  0.0275
11860W        W27934  18.252   5.936   3.023  0.0162 -0.1323  0.2665
11861W        W27935  10.878   6.702   2.630 -0.1818  0.0852  0.1298
11862W        W27936  12.732  12.096   5.242  0.1539  0.1591  0.2372
11863W        W27937   6.618  13.732  13.377  0.3779 -0.2401  0.1582
11864W        W27938   6.705   4.634  12.763 -0.3510 -0.1687  0.2131
11865W        W27939   1.513  13.649   3.599  0.1499 -0.0918 -0.0434
11866W        W27940   1.362   3.946  10.586  0.0460  0.2072  0.2055
11867W        W27941   0.303  13.539   1.987  0.1384 -0.3072  0.1316
11868W        W27942  16.401  10.045   1.976 -0.1319  0.2103  0.2258
11869W        W27943   9.752  12.104  12.459  0.1204 -0.0106  0.3891
11870W        W27944  14.390  10.533   0.192 -0.2029  0.1258 -0.3111
11871W        W27945  13.704  14.349  10.900 -0.2085 -0.0870  0.0776
11872W        W27946   5.446  14.105   2.276  0.3434  0.1409  0.1379
11873W        W27947  10.902  17.611  13.307 -0.3039  0.1674  0.0593
11874W        W27948  15.719   8.729  11.711 -0.0036  0.2228 -0.2706
11875W        W27949   2.875   5.499  11.793  0.2614 -0.1156 -0.3490
11876W        W27950   6.023  11.420  14.386  0.1865 -0.4037  0.0471
11877W        W27951  14.446   9.181   4.197  0.0598  0.0843 -0.1111
11878W        W27952  18.694   2.158   3.495  0.0488 -0.0628 -0.1987
11879W        W27953   6.974  15.783  14.122 -0.3306  0.0756  0.1352
11880W        W27954   6.822   6.406  12.106  0.2124  0.0248  0.0358
11881W        W27955  18.523  15.377  12.362 -0.0892 -0.1320 -0.0298
11882W        W27956  15.079  15.932  13.628 -0.1910  0.2375  0.0407
11883W        W27957  15.383   1.808   5.142 -0.1098 -0.1953 -0.2096
11884W        W27958  13.104   1.407   2.167 -0.1570  0.0125 -0.2108
11885W        W27959  16.595  16.253   2.833  0.1679 -0.2283  0.1340
11886W        W27960   4.563  16.577  10.326  0.1041 -0.3169  0.0722
11887W        W27961   0.158   0.960   0.473  0.0141 -0.0719  0.3362
11888W        W27962  17.841  17.228   5.588  0.0464  0.0626 -0.0471
11889W        W27963   3.930   9.064  14.419 -0.2467 -0.0433  0.0068
11890W        W27964   7.717  15.136  13.738  0.2500 -0.2745 -0.0221
11891W        W27965  18.315   0.305  14.706  0.0016 -0.0542 -0.3993
11892W        W27966   3.655   8.730  13.663  0.2728 -0.6912  0.0962
11893W        W27967  14.312  11.209  12.047 -0.0280  0.3115  0.1361
11894W        W27968   4.437   3.803   4.750 -0.0112  0.0413 -0.0060
11895W        W27969  11.720  11.262   5.169 -0.0894  0.2113 -0.1997
11896W        W27970   6.072   0.700   0.028  0.0123  0.3991  0.0072
11897W        W27971   9.366  15.010   8.998 -0.2313 -0.1268  0.0539
11898W        W27972   1.797  12.339  12.313  0.2180 -0.3570  0.0328
11899W        W27973  18.805  14.134   1.838  0.1631  0.3040  0.3115
11900W        W27974   6.410   8.594   2.593 -0.1085 -0.0214  0.0284
11901W        W27975   9.921  17.991  12.182 -0.2266 -0.1139 -0.1828
11902W        W27976  18.713  12.693  13.630 -0.2041 -0.1015  0.0139
11903W        W27977  12.976  18.355   0.074 -0.1325  0.3106 -0.1457
11904W        W27978   6.776   8.563   1.247 -0.0369 -0.0554 -0.0832
11905W        W27979   3.238  17.087   4.096 -0.0044 -0.1620 -0.3852
11906W        W27980  14.492   4.612   1.413 -0.2733 -0.2372  0.2067
11907W        W27981   0.468  16.007  11.851  0.0378 -0.3850  0.2060
11908W        W27982  16.394  18.402   2.447  0.0423 -0.4139  0.3082
11909W        W27983   0.312  12.387   0.769 -0.1872  0.0868 -0.2546
11910W        W27984  12.870  18.743   1.264  0.2909  0.1608 -0.1594
11911W        W27985   5.974  12.048  10.644 -0.0773  0.2294  0.2987
11912W        W27986   9.857   3.269   4.795 -0.1701  0.1428 -0.0004
11913W        W27987   6.689   0.464   1.763  0.1434 -0.5607  0.1016
11914W        W27988  16.775   0.344   5.090 -0.0797 -0.1253  0.0545
11915W        W27989  15.510  14.096   2.848 -0.0675 -0.2991 -0.1780
11916W        W27990   4.854  13.964  12.376  0.1457  0.1829  0.3720
11917W        W27991   6.111   4.818   2.061  0.0185  0.1105 -0.3669
11918W        W27992  19.275  18.277  14.450  0.0760 -0.1609 -0.1757
11919W        W27993  18.710  17.036  11.782 -0.3526 -0.1773 -0.0383
11920W        W27994   6.270   8.314  10.675 -0.0368  0.2690 -0.2990
11921W        W27995  11.303  14.049  14.893 -0.1484  0.0496  0.0902
11922W        W27996  10.116   9.072  10.401  0.2462 -0.2350 -0.1590
11923W        W27997  10.009   5.106  11.088  0.1992  0.4678  0.1450
11924W        W27998   4.504   6.809  13.973  0.1948 -0.0934 -0.2033
11925W        W27999  15.603  16.031   3.314  0.0342  0.1051 -0.3167
11926W        W28000   0.828   7.765   3.919 -0.0067  0.1468 -0.1470
11927W        W28001  14.710   6.545  12.257 -0.1240  0.1309 -0.0321
11928W        W28002   9.155  13.411  13.473 -0.0103  0.2560  0.0627
11929W        W28003   0.015  17.449  14.056 -0.3473  0.1600 -0.2582
11930W        W28004   3.730  10.682   1.663 -0.0900 -0.2118  0.1491
11931W        W28005  11.933  11.422  14.562  0.0612 -0.2730  0.1929
11932W        W28006  17.316  16.284   2.148  0.2675  0.1823  0.0190
11933W        W28007   8.657  15.638  14.327  0.0539 -0.2133 -0.1944
11934W        W28008   4.274   4.192  11.445  0.0848  0.1678 -0.2629
11935W        W28009   7.652   9.742   0.980  0.0585  0.2684 -0.0728
11936W        W28010  18.034   5.499   4.575  0.0362 -0.0304  0.1028
11937W        W28011   8.952   2.148  14.032 -0.0623  0.0362  0.0247
11938W        W28012   8.409  17.697  13.900  0.1116 -0.1498 -0.1472
11939W        W28013  17.661   8.893  13.695  0.3621  0.0822 -0.0400
11940W        W28014  10.203   5.037   0.148 -0.0717 -0.0664 -0.1611
11941W        W28015   0.912  17.562   4.118  0.0433 -0.0829 -0.0969
11942W        W28016  12.547   6.554   4.215 -0.0619 -0.0739  0.0874
11943W        W28017  14.599   9.605   0.154 -0.0120 -0.0836 -0.0436
11944W        W28018  13.294  12.343   4.837 -0.0115  0.1505 -0.1332
11945W        W28019   0.973  16.550  14.527  0.0584  0.2528 -0.2320
11946W        W28020  14.241   9.672  10.804 -0.2019 -0.2531 -0.3244
11947W        W28021   0.240  11.684   3.638 -0.0823  0.0275  0.0638
11948W        W28022  12.113  12.773  11.810 -0.1203  0.1291 -0.0397
11949W        W28023  12.730   6.377   9.597 -0.2043 -0.2224 -0.2516
11950W        W28024   3.325  13.397   2.975  0.0488 -0.0879  0.2108
11951W        W28025   4.680   4.808   4.881 -0.0785 -0.0113  0.2557
11952W        W28026  16.909   9.837   0.422  0.0184 -0.4051 -0.0067
11953W        W28027   1.301   6.573   1.050  0.0503 -0.0022 -0.1716
11954W        W28028   6.515   3.827   3.424  0.3727 -0.0656 -0.1226
11955W        W28029   0.183  18.338   4.393 -0.2160 -0.1527 -0.2139
11956W        W28030   3.195  14.309   0.867 -0.0904  0.0061  0.3393
11957W        W28031  14.600   2.905  14.545 -0.0108  0.1082 -0.1477
11958W        W28032  10.174  14.038   3.368  0.0713 -0.0347 -0.0220
11959W        W28033  13.540  10.971  10.865  0.0237  0.1623 -0.2216
11960W        W28034   4.322  15.241   1.287  0.1474  0.0340 -0.0672
11961W        W28035   8.606  13.538   2.174 -0.1426 -0.2379 -0.0136
11962W        W28036   2.750   7.434   2.512 -0.1699 -0.0746 -0.0857
11963W        W28037  14.333  16.766  11.150  0.0345  0.1106  0.2377
11964W        W28038   2.121   8.584   2.110 -0.0249 -0.1441  0.0520
11965W        W28039  18.963   5.492   0.284  0.0058  0.1352 -0.3206
11966W        W28040   3.402  12.687   4.918  0.0261  0.1332  0.4939
11967W        W28041   2.284  19.023  11.779  0.2943  0.3108  0.1225
11968W        W28042  14.250   7.742   3.927  0.1385  0.2596  0.2121
11969W        W28043  18.876   5.658   1.478 -0.1337  0.2951 -0.1526
11970W        W28044   1.285   9.624   0.189 -0.0314 -0.1537  0.1970
11971W        W28045   4.988   6.854   1.148  0.3289 -0.0715  0.0198
11972W        W28046  10.957  19.086   3.067 -0.0315 -0.2741 -0.0876
11973W        W28047   6.503   1.844   4.079  0.0328  0.2183 -0.2623
11974W        W28048  19.184   1.904  13.159  0.0023  0.1056 -0.1987
11975W        W28049  18.024  11.625  11.882 -0.1302  0.0116  0.1891
11976W        W28050   4.575   8.008   3.030 -0.1763  0.0959 -0.4329
11977W        W28051   5.582   1.166  14.596 -0.2848 -0.4352 -0.0103
11978W        W28052  13.965   9.313   4.374 -0.0503 -0.0542 -0.1033
11979W        W28053   9.311  13.791   2.126 -0.0821 -0.0740 -0.1970
11980W        W28054   8.778   9.228   0.513 -0.6622  0.4231  0.1075
11981W        W28055  15.199   4.537   5.645  0.1434 -0.0615 -0.2239
11982W        W28056   1.796   7.849   4.874  0.1011 -0.2184  0.1681
11983W        W28057   4.161   7.692  12.294 -0.3105  0.3885 -0.1617
11984W        W28058  15.984  17.632   5.330  0.2358 -0.0243  0.1048
11985W        W28059  19.119  18.707  14.234  0.1228 -0.0819 -0.1688
11986W        W28060  12.134   9.799  13.100 -0.0052  0.6774  0.1085
11987W        W28061   5.042  10.733   0.387 -0.0019 -0.2785 -0.1387
11988W        W28062  17.656  17.532   2.529 -0.0808  0.1266 -0.2917
11989W        W28063   7.866  10.502   1.258  0.2870  0.0786  0.3038
11990W        W28064   6.014   5.822  13.645  0.0188  0.1316 -0.1538
11991W        W28065  11.220   0.691  11.367 -0.1457 -0.2332 -0.3042
11992W        W28066  15.554   2.582   0.389 -0.2330  0.1693  0.0373
11993W        W28067  14.200   1.134   3.712 -0.2307  0.0749 -0.1320
11994W        W28068   3.951  18.529   2.440 -0.1112 -0.2239  0.1748
11995W        W28069  10.746  11.321  12.810  0.0656  0.2597  0.4261
11996W        W28070  12.302   8.763   2.104 -0.2302  0.0103 -0.3463
11997W        W28071  13.202   7.520  14.949  0.1012 -0.2107  0.1557
11998W        W28072  18.921   7.768   5.204  0.2071 -0.0251  0.1465
11999W        W28073   7.083  18.906  10.151 -0.1071 -0.3752  0.0225
12000W        W28074  10.824  17.818   3.231  0.0224 -0.0816 -0.0360
12001W        W28075   3.600   4.025   1.007 -0.0542  0.0032 -0.0792
12002W        W28076   7.539   6.946  14.244  0.0291  0.3314  0.2283
12003W        W28077   3.998  12.587  10.539  0.2202 -0.1515  0.3276
12004W        W28078  18.941  11.597   4.771  0.1267 -0.2135 -0.0042
12005W        W28079  17.720   4.282  12.652 -0.0411 -0.0338 -0.1595
12006W        W28080  16.252   7.219  14.126 -0.2724  0.1161 -0.2640
12007W        W28081   0.966   7.999  11.512  0.0132 -0.0726 -0.1587
12008W        W28082  14.922   4.803   0.481  0.2864  0.3012 -0.1206
12009W        W28083  16.929  14.343   2.975  0.0561  0.4317  0.0217
12010W        W28084   4.341  10.599  11.013 -0.1641  0.3600 -0.1160
12011W        W28085  11.256  16.489  11.447  0.1844 -0.2015  0.0923
12012W        W28086  11.247   5.596   3.626 -0.2783  0.0739  0.0285
12013W        W28087   6.075  17.058  10.859  0.2694  0.4222  0.3617
12014W        W28088   8.696  13.435  13.358  0.3037 -0.0167  0.3730
12015W        W28089   0.886   3.898   0.979 -0.0607 -0.0732  0.0381
12016W        W28090  17.770   7.899  15.002 -0.0294  0.1125 -0.2480
12017W        W28091   3.630  12.432   2.027  0.4356 -0.2839  0.0805
12018W        W28092  18.243  15.489  11.263 -0.0111 -0.3320  0.0777
12019W        W28093  14.710  18.195  14.672  0.1262  0.2179  0.1164
12020W        W28094  16.627   2.471   1.759  0.3373 -0.0136  0.5564
12021W        W28095   9.493   6.711  12.921  0.0856  0.0861 -0.3096
12022W        W28096  10.010  14.309  13.830 -0.0399  0.0124  0.0272
12023W        W28097  14.006   4.148  11.618  0.0115  0.3356 -0.2152
12024W        W28098   9.883   4.943  14.361  0.2819 -0.1648 -0.2591
12025W        W28099   3.428   4.726  13.204 -0.0348  0.0601  0.0354
12026W        W28100   6.760   5.184   0.036  0.1301  0.0022  0.1525
12027W        W28101   2.574   2.788   9.830 -0.1876  0.1429 -0.0235
12028W        W28102  17.418  13.912   3.818  0.2627  0.0658 -0.1075
12029W        W28103   3.404  17.709   1.801  0.0573  0.0891 -0.0765
12030W        W28104   6.808  12.750   5.045 -0.2004 -0.2906 -0.1379
12031W        W28105   8.879  12.396  12.780  0.1387 -0.0072 -0.1480
12032W        W28106  18.647  17.799  12.256  0.1543  0.2666  0.0624
12033W        W28107   6.134   7.701   2.889  0.0353 -0.2704  0.2005
12034W        W28108  14.702  10.705   5.439  0.2129  0.2689  0.1403
12035W        W28109   9.074  17.064   1.222  0.1020 -0.1662  0.2811
12036W        W28110   0.432   8.659   0.215  0.3524 -0.0643  0.1492
12037W        W28111  12.462   3.786   1.810  0.1925 -0.0703  0.2917
12038W        W28112  15.332   9.331   4.084 -0.0790  0.3552 -0.1860
12039W        W28113   9.681  11.586  14.226  0.1825 -0.1394 -0.0939
12040W        W28114  16.488  10.192  14.025 -0.1399 -0.2635  0.0961
12041W        W28115   9.590   6.699  13.852  0.2366  0.0371 -0.0021
12042W        W28116   8.079   7.881  13.247 -0.0223  0.1128 -0.1141
12043W        W28117  13.963   4.041   4.214  0.1197  0.1004 -0.2958
12044W        W28118   9.229   5.426   5.001 -0.2836  0.1267  0.4146
12045W        W28119   6.160   9.474  14.495  0.1341 -0.1666  0.1478
12046W        W28120  16.403   2.464  11.847  0.1347 -0.2759  0.1151
12047W        W28121  14.249   5.107   4.234 -0.0281 -0.1453 -0.2754
12048W        W28122   9.014   2.846   3.072  0.3838 -0.1896 -0.1335
12049W        W28123   5.957   7.000   1.821 -0.0104  0.1388  0.1006
12050W        W28124   1.219  13.628  11.392 -0.2337  0.1626 -0.0785
12051W        W28125  13.205  18.076   5.589  0.0293 -0.0069 -0.0056
12052W        W28126  11.460  11.565   4.835 -0.0743 -0.0388  0.1011
12053W        W28127   2.736  15.652   0.976  0.1350  0.1299 -0.1067
12054W        W28128   2.291   7.327  13.917 -0.1804  0.1880 -0.5940
12055W        W28129   8.359   8.176   2.030 -0.0050 -0.0989 -0.0261
12056W        W28130  14.247   1.305  14.186 -0.2408 -0.0587 -0.3616
12057W        W28131   2.975  13.338   0.368  0.1586 -0.0097  0.1849
12058W        W28132   7.547   0.808   4.416  0.0271 -0.0764 -0.0334
12059W        W28133   6.212   8.553  12.110 -0.1962  0.0383 -0.3155
12060W        W28134   8.869  11.853   0.451 -0.3095  0.1940 -0.0265
12061W        W28135  13.441   3.756   1.333  0.2171 -0.2469  0.1670
12062W        W28136   2.051  10.368   3.675  0.2386 -0.0679  0.0206
12063W        W28137   6.565   4.813   2.212  0.2375  0.2636  0.1247
12064W        W28138   8.963   0.854  10.849 -0.4421 -0.2771 -0.2757
12065W        W28139   9.934   7.038  14.368 -0.0166  0.1700  0.0749
12066W        W28140   3.851   8.002  11.947  0.1250 -0.1061  0.2798
12067W        W28141   9.455   1.356  12.078  0.3468 -0.2508 -0.3770
12068W        W28142   2.940  15.947  10.558  0.0659 -0.5204 -0.1684
12069W        W28143  10.872  16.342  10.501 -0.0598  0.2157 -0.1092
12070W        W28144   1.517   5.598   2.844  0.1710  0.0257 -0.0543
12071W        W28145   2.656  16.132  10.978  0.1027 -0.2474 -0.0822
12072W        W28146   8.236   9.294   9.970 -0.3363 -0.2811 -0.1810
12073W        W28147   0.483  10.215  13.993 -0.1657 -0.1730 -0.0289
12074W        W28148   2.966   5.107  14.925 -0.1415  0.0298 -0.2851
12075W        W28149   6.216   7.401  13.677 -0.1551 -0.4037  0.1569
12076W        W28150  12.958   3.075   5.751  0.1070  0.3218  0.0916
12077W        W28151   6.782  10.517   0.324 -0.2721  0.1437  0.1262
12078W        W28152  19.072  11.632   2.923 -0.0119  0.1884  0.5821
12079W        W28153  14.656  14.559  14.953 -0.2835 -0.0871 -0.2556
12080W        W28154  15.762  13.941   4.660  0.2217  0.2545 -0.0015
12081W        W28155   2.222  10.079  13.606 -0.2395 -0.3450  0.2804
12082W        W28156   8.874  16.795  11.414  0.1523  0.1722 -0.1943
12083W        W28157   2.219  16.399  10.937  0.0496  0.0332  0.0898
12084W        W28158   7.248  13.270   0.321 -0.1755 -0.1821 -0.3781
12085W        W28159   0.134   6.936  11.040 -0.1042 -0.0228 -0.3801
12086W        W28160   1.086  17.361  12.575 -0.2417  0.2193 -0.4352
12087W        W28161  17.348   0.355   1.076  0.0324 -0.0428  0.0125
12088W        W28162   3.684  16.542  13.009 -0.1594  0.0406 -0.2611
12089W        W28163  15.153  15.304  12.768 -0.0993 -0.0590  0.3126
12090W        W28164   0.744   5.272  10.881  0.0247 -0.1451  0.1441
12091W        W28165   0.172  16.809   3.845  0.0796  0.0261 -0.1000
12092W        W28166   5.645   0.472  14.995 -0.1201  0.2417  0.1980
12093W        W28167  16.333   1.665  11.778 -0.4856 -0.0407 -0.1216
12094W        W28168   8.898   0.775  13.275 -0.0659  0.3861  0.0715
12095W        W28169   5.694  17.124  13.731 -0.0197  0.0604  0.0609
12096W        W28170  14.751   0.746   0.124 -0.0413 -0.1047  0.1622
12097W        W28171  10.610   1.188   4.093  0.1505 -0.1756 -0.0239
12098W        W28172  11.995   1.160  13.962  0.0336  0.1004 -0.1919
12099W        W28173   9.956   7.614   1.654 -0.0177 -0.1878 -0.2450
12100W        W28174  11.800  14.648   1.915 -0.0974  0.3348  0.2585
12101W        W28175  11.000  17.130  13.439  0.4557 -0.5032 -0.1903
12102W        W28176  18.375   9.002   0.299 -0.0230  0.0956 -0.1328
12103W        W28177  14.839  12.321   2.852 -0.0147  0.4951  0.2491
12104W        W28178   1.852   6.759  13.230  0.1196 -0.0279 -0.0977
12105W        W28179   3.472   6.780   2.159 -0.1145 -0.0325  0.1280
12106W        W28180  12.700  11.648   1.449 -0.1210 -0.1046  0.1129
12107W        W28181   1.253   0.946  13.487  0.3226 -0.1440 -0.1067
12108W        W28182   5.036   2.593   1.956 -0.2236  0.0998 -0.0800
12109W        W28183  16.191  16.621  10.266  0.4780  0.1719 -0.0255
12110W        W28184   1.048   9.929  13.413 -0.0762  0.0007  0.0527
12111W        W28185   2.064   3.593   4.555  0.0294 -0.1473 -0.0774
12112W        W28186   1.441  14.264  12.786 -0.1463 -0.0217  0.0062
12113W        W28187  15.242   8.365  10.964 -0.1602 -0.1086  0.1421
12114W        W28188  16.338   2.557  14.161 -0.0233 -0.1267 -0.2267
12115W        W28189   4.978   2.916   0.471 -0.1053 -0.2052 -0.1185
12116W        W28190   3.847   5.101   3.758  0.2528 -0.1645 -0.0388
12117W        W28191  13.272  12.677  13.409 -0.3490 -0.0839 -0.1412
12118W        W28192   4.691   3.976   4.396  0.1250  0.3292  0.0951
12119W        W28193  16.990   0.972  11.188  0.1305 -0.0310  0.0913
12120W        W28194  17.144  16.469   4.050 -0.1273 -0.2362 -0.0563
12121W        W28195   1.480   2.339  10.649 -0.2186  0.1470 -0.1034
12122W        W28196   9.111  13.316   2.608 -0.0772 -0.1588 -0.2569
12123W        W28197   8.160  10.276   1.677 -0.0641 -0.0151 -0.1763
12124W        W28198   6.847   5.839  12.266 -0.0334  0.4528 -0.1296
12125W        W28199   6.934   2.370   0.223 -0.1782  0.0473  0.3909
12126W        W28200   3.187   8.626   3.788  0.1440 -0.1613  0.0755
12127W        W28201  12.036   3.782   4.721  0.1705  0.0085 -0.3729
12128W        W28202   3.418  11.742  11.446 -0.0427  0.0334  0.1249
12129W        W28203  18.267  11.471   0.934 -0.1893 -0.3196  0.0507
12130W        W28204  16.132   6.886   2.747 -0.0779 -0.0136 -0.3507
12131W        W28205  16.474   8.280  12.053 -0.1616  0.0436  0.2346
12132W        W28206  11.245   0.403   0.581 -0.1458 -0.1206 -0.3023
12133W        W28207  10.347  15.218  13.792 -0.1978  0.0674  0.1415
12134W        W28208  18.499   9.608   5.209 -0.1200  0.0659 -0.0608
12135W        W28209  14.516   5.110  11.615  0.1031 -0.4246 -0.1823
12136W        W28210  17.611   6.064  13.566 -0.4147 -0.1543 -0.1196
12137W        W28211  13.959  15.966  14.597  0.0687  0.0468 -0.2760
12138W        W28212  18.819  18.919   3.607  0.2105  0.0938  0.2052
12139W        W28213  12.009   3.058   1.969  0.2787  0.0463  0.2963
12140W        W28214  12.788   2.316   2.901  0.1417  0.0580  0.0149
12141W        W28215   4.812   8.199  13.740  0.2053 -0.1181 -0.1965
12142W        W28216  14.451   8.338   1.429 -0.0722  0.1963 -0.1800
12143W        W28217   9.776  12.261   5.176 -0.0145 -0.1333  0.1644
12144W        W28218   8.001   6.898  14.659  0.4778  0.2666 -0.0321
12145W        W28219  12.211  14.613  13.001  0.0484 -0.1739  0.0156
12146W        W28220  11.248  17.760  10.669  0.1367  0.4558 -0.1620
12147W        W28221   7.725   7.630   2.477  0.4406 -0.2376 -0.0815
12148W        W28222  15.553   4.461   2.353 -0.0617 -0.3895  0.1037
12149W        W28223   3.028  11.015  12.422  0.1243  0.1753  0.0952
12150W        W28224   4.942  10.393   2.493 -0.2409 -0.1238  0.2346
12151W        W28225   1.775   7.964  10.718 -0.2806 -0.2907  0.1431
12152W        W28226   8.214   1.881   4.410  0.5543  0.1168  0.3430
12153W        W28227   2.781  18.720  13.830 -0.1677 -0.1444 -0.0929
12154W        W28228   5.246   9.073   1.469  0.4399 -0.0645 -0.2953
12155W        W28229  11.816  10.008  12.242 -0.1511 -0.0543  0.1734
12156W        W28230  17.297  14.419   0.752 -0.0720 -0.0088 -0.1144
12157W        W28231  13.671   1.739  13.134  0.0679 -0.1512  0.2000
12158W        W28232   8.445   4.680  13.601  0.1814 -0.0161 -0.2236
12159W        W28233   8.954   7.070   1.922 -0.1371  0.3229 -0.2624
12160W        W28234   0.169  12.671   5.652 -0.0531 -0.2287  0.0858
12161W        W28235  15.177   7.173   1.841  0.0789 -0.0544  0.2007
12162W        W28236  18.975  11.212   0.393  0.0657  0.2508 -0.3129
12163W        W28237   6.247   4.485   1.527  0.0160  0.0352 -0.1573
12164W        W28238  14.797  15.683  10.806  0.0409  0.0815  0.0367
12165W        W28239   3.176   7.916   0.808 -0.2534 -0.1694 -0.1713
12166W        W28240   8.768   4.863  11.016 -0.3395 -0.2342  0.1185
12167W        W28241   3.311   4.155   2.912  0.1932 -0.0339 -0.0624
12168W        W28242  13.057   2.662  14.059  0.1843 -0.2429  0.0800
12169W        W28243  10.787  13.131  13.467 -0.2017  0.1099 -0.1696
12170W        W28244  13.717   9.394  11.434  0.2602 -0.2696 -0.1262
12171W        W28245   7.878  18.266   0.713 -0.0891  0.0537  0.2780
12172W        W28246   1.378   9.563  13.161  0.1522  0.2271 -0.0486
12173W        W28247  10.762  18.725  12.590  0.1214 -0.2309 -0.1315
12174W        W28248  10.299  16.444  14.112  0.1109 -0.1960  0.2054
12175W        W28249   0.275  12.628  12.490 -0.1656 -0.1434  0.2271
12176W        W28250   5.574   1.346   4.327 -0.1655  0.2457  0.2209
12177W        W28251  13.699  14.596   1.158  0.0473 -0.0027 -0.1119
12178W        W28252  12.367   9.348  11.895 -0.1657 -0.0215  0.2137
12179W        W28253   2.633  16.626   1.958 -0.1353 -0.2607  0.0723
12180W        W28254  11.359  12.381   1.809  0.0405 -0.3802 -0.0370
12181W        W28255   7.855  16.702  10.952 -0.0053  0.0425  0.0193
12182W        W28256  13.137  13.709  14.937  0.1188 -0.2780  0.2004
12183W        W28257  18.742  12.589   1.966  0.0462 -0.0931 -0.2481
12184W        W28258   3.841  15.501  10.476  0.0325 -0.3000 -0.2549
12185W        W28259  13.571   1.613  10.537  0.0619  0.0776  0.1130
12186W        W28260  16.265   1.050   3.720  0.1305  0.1470  0.1467
12187W        W28261   7.203  10.764   4.220  0.1769 -0.0337  0.2245
12188W        W28262  12.544  18.663   3.678  0.0460 -0.0622  0.0160
12189W        W28263  18.082   9.091   3.975 -0.0908 -0.0552  0.0071
12190W        W28264  12.300   2.973  11.347 -0.0400 -0.2575  0.2053
12191W        W28265  11.846   6.558   4.992  0.1654 -0.0658  0.1015
12192W        W28266   8.339   8.407  13.186  0.0699  0.1401 -0.0679
12193W        W28267   4.853   8.371   5.002 -0.0617 -0.1163  0.0112
12194W        W28268   8.991   1.039   2.678 -0.0320  0.0524  0.1618
12195W        W28269  10.178   4.499   2.701  0.1314  0.0690  0.0213
12196W        W28270  12.574  15.447  12.518 -0.1007  0.0436 -0.0109
12197W        W28271   7.813   4.078  11.090  0.1001 -0.0004  0.1135
12198W        W28272   3.519   7.280   1.412  0.1239 -0.2109  0.0020
12199W        W28273   3.504  18.265   2.689 -0.3421  0.0044  0.1539
12200W        W28274  14.979   2.737   6.149  0.0733  0.1424 -0.3597
12201W        W28275  18.984   3.792   1.534 -0.0758  0.1966 -0.2755
12202W        W28276   1.361  15.022  12.394  0.0613  0.0068 -0.0149
12203W        W28277   3.276  11.686  10.942  0.2668  0.0535  0.0977
12204W        W28278   8.331  15.424  11.248 -0.1897  0.0949 -0.1131
12205W        W28279   7.227  17.738  11.178 -0.4167  0.2144 -0.0688
12206W        W28280   1.981  16.000  10.641  0.0797  0.2046  0.2045
12207W        W28281   8.772  17.837  10.394 -0.2112 -0.2932  0.1463
12208W        W28282   3.478   6.876   3.567  0.0927  0.1683 -0.2301
12209W        W28283   8.316   6.080   3.817 -0.1514  0.5464 -0.0513
12210W        W28284  12.787  16.850  13.013  0.0749  0.1546  0.0775
12211W        W28285   9.856  10.281  12.687 -0.0299 -0.1630  0.1601
12212W        W28286   4.645   5.768   4.363  0.2050 -0.2348 -0.0777
12213W        W28287   1.963   2.409  10.926  0.2752 -0.4205 -0.0156
12214W        W28288   8.157  15.352   9.749 -0.2004  0.1926 -0.0977
12215W        W28289  11.553   5.769  12.417  0.0682 -0.0739  0.1779
12216W        W28290  16.541   0.982  13.911 -0.0834  0.1531  0.2086
12217W        W28291   0.587  18.517   4.124 -0.1694 -0.3981 -0.0880
12218W        W28292  12.152   1.579   1.438  0.1981  0.1533  0.1050
12219W        W28293  15.578   2.370  11.975  0.0380 -0.3104 -0.0053
12220W        W28294  10.413   2.456   4.075  0.0033  0.2545  0.0931
12221W        W28295  15.982  13.065   5.573  0.1483 -0.1630  0.3907
12222W        W28296  12.050   1.657   3.856 -0.4167 -0.0969 -0.0867
12223W        W28297   3.734   5.428   2.879  0.1251  0.1982  0.0579
12224W        W28298   9.894   9.117  11.363  0.1426 -0.2364  0.0541
12225W        W28299  17.038  19.098   0.918 -0.1158 -0.1736 -0.1582
12226W        W28300  18.008   9.327   0.515 -0.1511  0.0492 -0.0522
12227W        W28301  19.173   4.775   0.358  0.1229 -0.0986  0.0957
12228W        W28302   3.945   5.487  13.466 -0.0432 -0.1261 -0.1638
12229W        W28303   3.456   9.058  10.830  0.0206  0.2579  0.0493
12230W        W28304   1.600  10.472  11.444 -0.1254  0.1948  0.2738
12231W        W28305   0.816   8.599  11.525 -0.0857 -0.0561 -0.1828
12232W        W28306   5.080  14.287   0.225 -0.3633 -0.0626  0.1982
12233W        W28307  16.930   2.141   5.722  0.0561 -0.0877 -0.2614
12234W        W28308  12.210  15.744  12.249 -0.0286 -0.0404  0.2278
12235W        W28309  12.280  14.320   1.979  0.1007  0.0680 -0.1772
12236W        W28310  10.324   0.352   0.938 -0.4069  0.2688 -0.0734
12237W        W28311  13.437   2.463  12.726 -0.0154  0.4657  0.0319
12238W        W28312   0.595  10.203   5.075 -0.2431  0.1218  0.4417
12239W        W28313   2.534   6.900  11.957  0.0976 -0.0534  0.2006
12240W        W28314  11.231   7.490   2.125  0.0136  0.2550 -0.4037
12241W        W28315  10.045  16.929  12.363 -0.0413  0.2329 -0.3107
12242W        W28316  17.150  11.983   5.855  0.0741  0.1938 -0.0750
12243W        W28317   3.708  17.542  10.361 -0.0584 -0.2952 -0.1907
12244W        W28318  16.335  14.591   1.730  0.2028 -0.5063  0.3814
12245W        W28319  15.433   7.170  14.088 -0.0353 -0.0588  0.1116
12246W        W28320  18.663   1.870   1.944  0.1543 -0.0257  0.1833
12247W        W28321   6.301  14.424  12.605 -0.2631  0.4708 -0.2323
12248W        W28322   2.722  12.988   4.507  0.0280 -0.0089  0.0899
12249W        W28323  11.059  14.254  11.714 -0.0962 -0.3171 -0.1936
12250W        W28324  17.471   7.831   4.206 -0.2034  0.0939 -0.0258
12251W        W28325  17.621   0.928  12.184  0.2344  0.0272  0.0988
12252W        W28326  18.951   9.108  13.322 -0.4380 -0.4271 -0.1942
12253W        W28327   9.680   0.376   2.857  0.2516 -0.2344 -0.4626
12254W        W28328  12.808   1.834  13.734 -0.1881  0.0370  0.4973
12255W        W28329   6.224   6.778  12.254  0.3268 -0.0820  0.1425
12256W        W28330  14.273  13.983   2.025  0.1135  0.2053 -0.3545
12257W        W28331   5.001  18.364   3.624  0.1783 -0.1820 -0.0670
12258W        W28332  13.256  19.037   3.648 -0.2177 -0.0300  0.2270
12259W        W28333  16.291   5.740  11.233  0.2026  0.3785  0.2052
12260W        W28334  17.335  15.887  14.066  0.0840 -0.1700 -0.0140
12261W        W28335  15.999   9.561  12.130 -0.2213  0.0480  0.2129
12262W        W28336  17.321  13.098  10.441  0.0711 -0.1906  0.1717
12263W        W28337  18.058   2.360   3.788  0.0259 -0.2647  0.1599
12264W        W28338   9.546   5.321   4.560 -0.1296 -0.1117 -0.1678
12265W        W28339  12.631   3.381  13.637 -0.2002 -0.3019 -0.2401
12266W        W28340   2.677   6.534   4.850  0.0384 -0.4023  0.3642
12267W        W28341   7.686   0.861  10.280 -0.1023  0.2498  0.1474
12268W        W28342  14.852  15.092  11.193  0.0018  0.1240 -0.1523
12269W        W28343  11.597  16.774  14.500 -0.5513  0.0399 -0.0637
12270W        W28344  16.736  17.816   0.883 -0.1067 -0.2187  0.0642
12271W        W28345  11.088  18.354   3.076  0.0963 -0.0996  0.4359
12272W        W28346  10.389   8.541  11.037 -0.5041  0.2173 -0.0177
12273W        W28347   2.964   5.262  13.062  0.0209 -0.3393 -0.1522
12274W        W28348   9.512  12.513   4.820  0.0228  0.1676 -0.1479
12275W        W28349   5.757   7.822  12.589  0.2153 -0.0284 -0.3074
12276W        W28350  11.707   4.508   1.636 -0.3554  0.0161 -0.0461
12277W        W28351   7.213   4.900   4.469 -0.0873  0.0225  0.1251
12278W        W28352   1.927   5.420   4.671 -0.2082  0.1996 -0.0372
12279W        W28353   6.945   0.741   5.424 -0.0500 -0.0700 -0.1335
12280W        W28354   0.184   3.591   1.898  0.1346 -0.1651  0.1803
12281W        W28355   9.534  11.663  13.722 -0.0220  0.1077 -0.0415
12282W        W28356   4.038   8.795  12.859 -0.2268 -0.2413 -0.2109
12283W        W28357  11.332   0.554  12.713  0.3195 -0.2004  0.3059
12284W        W28358   7.067  16.690   1.175 -0.1170 -0.1652 -0.2281
12285W        W28359   2.435  10.350  13.268  0.1655 -0.0019  0.0130
12286W        W28360   6.129   0.622  10.521  0.2683  0.0967  0.1207
12287W        W28361  11.789   8.913  12.564  0.4241 -0.1661 -0.4388
12288W        W28362   9.254  17.008  10.689  0.2196  0.1289 -0.0015
12289W        W28363  11.495   3.975  13.092  0.2238  0.1439 -0.2185
12290W        W28364   4.955   0.738   0.582 -0.1116  0.0055 -0.3134
12291W        W28365  10.310  18.649   0.121  0.2004 -0.0828 -0.1377
12292W        W28366  18.229  17.581   2.886  0.4221  0.0959 -0.2438
12293W        W28367  19.119  14.606  11.013  0.2047 -0.1093  0.4166
12294W        W28368  12.598  14.951  12.412 -0.0983 -0.4206 -0.0960
12295W        W28369   3.792  16.346  13.599  0.1694 -0.2452 -0.3640
12296W        W28370   9.723   6.018  11.512  0.0668 -0.0366  0.1122
12297W        W28371  11.845   7.154  12.473 -0.0948 -0.0191  0.1999
12298W        W28372   4.327   8.806   2.674  0.2443  0.0775  0.2447
12299W        W28373   7.304   7.736   0.722  0.0596  0.0237 -0.1103
12300W        W28374   2.564  11.914   1.047 -0.0736 -0.0757 -0.1650
12301W        W28375   5.084  17.067   9.750 -0.1335 -0.2609 -0.3194
12302W        W28376  10.372  13.975   3.847  0.1093 -0.3742 -0.4772
12303W        W28377   7.738  17.925   1.592  0.3464  0.0800 -0.0447
12304W        W28378  16.592   5.406  13.381 -0.1072  0.0836  0.1056
12305W        W28379   9.322  14.999   0.152 -0.0825 -0.1601 -0.1926
12306W        W28380  18.057   4.296   2.627  0.0433  0.0715  0.0724
12307W        W28381   3.628  17.540  13.158 -0.0741 -0.1747  0.1183
12308W        W28382   9.372   6.208  12.978  0.1477 -0.0111 -0.2784
12309W        W28383  10.394   1.663   0.128 -0.0394 -0.2109 -0.0640
12310W        W28384  18.312   6.824   4.140  0.3530  0.3527  0.1281
12311W        W28385   6.976   8.888  12.235 -0.1907 -0.1564  0.1013
12312W        W28386  17.133   1.839   1.215  0.1857 -0.1024 -0.3168
12313W        W28387  11.461  12.178  12.118  0.0002  0.1420  0.2953
12314W        W28388   9.180   0.423  10.195 -0.0202 -0.1451 -0.1811
12315W        W28389   4.178   1.567  14.926  0.2423 -0.1081  0.1177
12316W        W28390   1.422  13.298   4.426 -0.1061  0.4278  0.2764
12317W        W28391  13.314  18.642   1.512 -0.0070  0.3279  0.0734
12318W        W28392  16.335  17.269  14.325 -0.0346  0.1463  0.3395
12319W        W28393  17.967  10.046   0.832 -0.1697  0.0779  0.2129
12320W        W28394   3.510  12.977   1.929 -0.2364 -0.1109 -0.1086
12321W        W28395   6.275   0.763   0.891 -0.1075  0.2685  0.3176
12322W        W28396  17.755   4.967   2.475  0.4234 -0.1339 -0.0884
12323W        W28397   4.777   0.422  10.721  0.0580  0.2809 -0.1917
12324W        W28398  15.505   2.667  14.934 -0.0744  0.0521 -0.0730
12325W        W28399  13.758   8.505  12.211 -0.0328  0.0373 -0.3015
12326W        W28400   7.179  10.817  12.104  0.2170  0.0492  0.1196
12327W        W28401  16.579  10.372  12.331  0.0241 -0.1695  0.0022
12328W        W28402  11.313   4.252   1.399  0.0135  0.2096 -0.6023
12329W        W28403   1.499   1.057  11.399  0.4897 -0.0374  0.2774
12330W        W28404  13.919   4.515  10.241 -0.0753  0.0674  0.1011
12331W        W28405   2.025  11.154  14.424 -0.2052  0.4764  0.1786
12332W        W28406  13.437  18.596   3.949 -0.1288 -0.1793  0.1983
12333W        W28407   6.174  17.581  12.456  0.2834  0.1229 -0.0316
12334W        W28408  11.726   1.973  11.636 -0.0041 -0.3511  0.2307
12335W        W28409  14.479  12.165   4.904  0.0951 -0.0367  0.2475
12336W        W28410  13.281  10.389   5.058 -0.0753  0.0014 -0.0342
12337W        W28411   7.389  18.706   4.961 -0.0559  0.4153 -0.0524
12338W        W28412  11.869   9.584  11.678  0.0032 -0.2806 -0.2968
12339W        W28413  14.925   9.127   4.353  0.3502  0.3537  0.1100
12340W        W28414  11.251  12.106  11.243 -0.0904 -0.0445 -0.2973
12341W        W28415  13.877  11.129   0.873 -0.1661 -0.1820  0.6027
12342W        W28416  11.996  18.534  14.860 -0.0153  0.2009  0.2021
12343W        W28417   5.292  10.129   4.046 -0.1859  0.1364  0.1415
12344W        W28418   7.510  16.701  11.862 -0.1364  0.0570 -0.0428
12345W        W28419   2.362  16.309   1.588 -0.0861  0.2538  0.2247
12346W        W28420  15.769   6.284  13.092  0.1406  0.0943 -0.4691
12347W        W28421  10.046  15.209  12.832 -0.0744 -0.0629 -0.1649
12348W        W28422   9.170  16.578   3.214 -0.2960  0.1961 -0.1812
12349W        W28423  14.984  11.485   4.277 -0.1977 -0.1530  0.0257
12350W        W28424  14.594  15.102  12.602  0.0913 -0.0967  0.1147
12351W        W28425  16.285  12.747   1.227 -0.2495 -0.0236  0.0610
12352W        W28426   9.176  17.484  14.413 -0.2956  0.2181  0.1732
12353W        W28427  13.768  16.153   0.113  0.0577 -0.2263  0.1063
12354W        W28428   3.425   5.602  10.711 -0.3529 -0.0632 -0.4135
12355W        W28429   2.106  16.068  14.639 -0.0156  0.0541  0.0786
12356W        W28430  17.713  17.606   3.903 -0.0472 -0.2515  0.0187
12357W        W28431   2.264   4.339  11.668 -0.1022  0.2745 -0.0731
12358W        W28432  12.935  19.051   0.329  0.0251  0.1069  0.2092
12359W        W28433  18.131  10.771  10.189 -0.0230  0.0232 -0.2361
12360W        W28434  10.429   1.650   2.646  0.1783 -0.0931 -0.1114
12361W        W28435   4.967  14.793   2.181  0.1770  0.2304  0.0461
12362W        W28436   1.374  18.415  12.849 -0.0796 -0.1939 -0.1073
12363W        W28437   0.620   3.286   5.288  0.1865  0.0051  0.1986
12364W        W28438   3.046   9.544  14.860  0.0129 -0.1975 -0.1822
12365W        W28439   7.569   8.244  14.416 -0.0599 -0.1320 -0.2293
12366W        W28440  19.015   1.702   1.447  0.1069 -0.0629  0.0540
12367W        W28441   2.527  16.469   9.225 -0.0032  0.1342  0.0830
12368W        W28442  13.088   1.070  14.120  0.1370 -0.1277 -0.1604
12369W        W28443  12.921   5.400  12.156  0.0970 -0.1049  0.0398
12370W        W28444   3.591   8.599  12.666 -0.0213 -0.1552 -0.1627
12371W        W28445   0.031   5.422   4.293 -0.0450  0.0799  0.3921
12372W        W28446  13.611   8.064  13.731  0.0602  0.4031 -0.0907
12373W        W28447   0.248   8.022   5.853 -0.1535 -0.2508  0.0634
12374W        W28448   8.070  14.405  14.946 -0.3190  0.0315 -0.0356
12375W        W28449   7.646  14.983   1.123  0.1674  0.2533 -0.2285
12376W        W28450   8.651   0.266  11.792 -0.0696  0.1422  0.0705
12377W        W28451   0.219  16.568   1.031  0.1502  0.0727  0.1635
12378W        W28452   7.761  19.127   0.913  0.0173  0.0130  0.0590
12379W        W28453   6.350   0.271   1.448 -0.3152  0.1594  0.2279
12380W        W28454   2.540  12.512  13.965 -0.3607 -0.0644 -0.3561
12381W        W28455  13.870   4.348   1.904 -0.2826 -0.2021 -0.2424
12382W        W28456   4.175   9.789   2.645 -0.2890 -0.0691  0.0144
12383W        W28457  18.588   0.686  12.598 -0.2173 -0.0728 -0.1052
12384W        W28458  16.332   0.155   3.864  0.1657  0.0557  0.1146
12385W        W28459  14.195   1.031   0.156  0.3300 -0.0066 -0.2510
12386W        W28460   6.868  13.642   4.115  0.1395 -0.3256 -0.0114
12387W        W28461   8.576   4.170  13.467  0.1500  0.1078  0.4379
12388W        W28462   2.869  10.903   1.374 -0.2766  0.2680 -0.0853
12389W        W28463   3.543   8.368   2.983 -0.2436  0.0048 -0.2848
12390W        W28464  16.307   6.988  11.757 -0.1602 -0.0608  0.0413
12391W        W28465   5.323  19.276   1.607  0.0612 -0.1097  0.0907
12392W        W28466  12.086  11.040   0.407 -0.0621 -0.0477  0.2107
12393W        W28467  11.849   0.278   0.057  0.1504 -0.0809 -0.0147
12394W        W28468  13.691  13.277   4.084 -0.0484  0.0808  0.0787
12395W        W28469   8.014  14.975   3.938 -0.2036 -0.1386  0.2897
12396W        W28470   6.149   4.327  10.045  0.2582  0.2079  0.2959
12397W        W28471   3.689   8.279   5.809 -0.0823 -0.2413 -0.1036
12398W        W28472  16.679   5.215  10.698 -0.1871 -0.1108  0.2997
12399W        W28473   9.710  18.905   2.009  0.1271  0.1726  0.0997
12400W        W28474  11.650   4.257   5.288 -0.0797  0.1306 -0.1206
12401W        W28475  14.330  13.468   3.212 -0.0544 -0.0366 -0.2755
12402W        W28476   3.503   4.437   2.589  0.3611 -0.3784 -0.0913
12403W        W28477   3.653   3.985  12.129 -0.0742  0.0700  0.1092
12404W        W28478  12.536  15.029  14.360 -0.2310 -0.0253 -0.3322
12405W        W28479   5.145   5.363  14.788 -0.2893  0.0115 -0.1409
12406W        W28480  16.604  12.190  12.830 -0.1957  0.2142  0.3447
12407W        W28481  16.977   9.396  10.033  0.0656  0.1529 -0.0573
12408W        W28482   8.071  12.702  13.166  0.0793 -0.1137  0.0243
12409W        W28483  10.521   7.673   3.850  0.3298  0.0123  0.1956
12410W        W28484  17.062  18.135   4.393  0.1671 -0.1875  0.2753
12411W        W28485  17.783   9.710  14.341 -0.5983 -0.1719 -0.4250
12412W        W28486   9.497   2.916  10.896  0.0315  0.0116  0.0710
12413W        W28487  11.947   5.985  10.394  0.0686  0.1155  0.1333
12414W        W28488   0.379  11.572   9.854 -0.2025  0.3413  0.1671
12415W        W28489   4.295   3.333   4.511 -0.1021 -0.0409 -0.0601
12416W        W28490  11.410   8.665  11.554  0.0090  0.1398  0.1258
12417W        W28491  14.167   1.550   4.066 -0.1987 -0.1352  0.1050
12418W        W28492   9.887   2.563   0.086  0.1235  0.3777 -0.0098
12419W        W28493  18.744   5.180  11.425  0.1706  0.1201 -0.1399
12420W        W28494   2.435   1.935   1.578  0.1854  0.0861 -0.0690
12421W        W28495  15.606   6.364   4.305  0.1260  0.1254 -0.0783
12422W        W28496  10.185   8.039   4.091  0.1211 -0.1529 -0.1702
12423W        W28497   7.719  14.540   0.924 -0.0526 -0.0815 -0.0657
12424W        W28498   5.702   7.332  12.771  0.0496  0.0679 -0.3302
12425W        W28499   8.369  19.101   3.154 -0.0069  0.1192 -0.5361
12426W        W28500  19.178  10.934  14.222 -0.0174  0.3042  0.0579
12427W        W28501   2.520  13.500   0.223 -0.0573 -0.0069 -0.1981
12428W        W28502  16.671  13.593   3.305  0.0720 -0.1955  0.0972
12429W        W28503  14.499   4.287  11.760 -0.1219  0.3160 -0.1896
12430W        W28504   5.217   1.666   0.543 -0.2597  0.1939  0.0322
12431W        W28505  14.271  18.051  14.889  0.1858  0.0298 -0.0384
12432W        W28506  15.903  17.373  11.192  0.0693  0.1833  0.0727
12433W        W28507  16.492  14.159  10.830 -0.2393  0.3299  0.2356
12434W        W28508  10.494   5.051  11.955 -0.0081  0.1358  0.2568
12435W        W28509   0.501  15.875   3.904 -0.1138  0.2878  0.0326
12436W        W28510  14.281  13.446   2.142 -0.2837 -0.0158 -0.2537
12437W        W28511  18.452  10.759  10.731  0.2333  0.0818 -0.0520
12438W        W28512   4.587  14.741  11.700  0.0130  0.0871 -0.0811
12439W        W28513  18.528  10.500   2.980  0.0362 -0.0496  0.2504
12440W        W28514   2.803   6.225   1.344 -0.0163  0.4128  0.0460
12441W        W28515   0.709  14.863   0.297 -0.1429  0.3524 -0.0163
12442W        W28516  15.074   8.293  10.464  0.1003  0.1466 -0.2220
12443W        W28517  12.816   2.224  14.055 -0.2563  0.1189 -0.2515
12444W        W28518   5.142  12.578   3.233 -0.0888  0.0035 -0.0861
12445W        W28519   8.160   3.784   1.925  0.0632  0.2751 -0.1211
12446W        W28520   3.116   0.118  14.073 -0.1283 -0.1608  0.3188
12447W        W28521  16.501  18.965   2.637  0.0490  0.2070  0.0942
12448W        W28522   7.341  17.586  14.988  0.0038 -0.0670  0.1814
12449W        W28523  14.667   1.924  14.801 -0.1441  0.0425  0.4867
12450W        W28524   5.303  14.981  14.752  0.0253  0.1676 -0.3483
12451W        W28525   9.016  13.640   0.932 -0.0461 -0.2029 -0.1349
12452W        W28526  11.470   0.419  10.984 -0.0470  0.2992  0.3033
12453W        W28527   7.837   0.562   5.331 -0.1807  0.0999  0.3108
12454W        W28528  16.298  19.269   5.559 -0.1754  0.1556 -0.0804
12455W        W28529   5.262  12.745  14.007 -0.0558  0.0162 -0.0316
12456W        W28530   1.439   7.484   4.528 -0.1886  0.1496 -0.1880
12457W        W28531   8.037  10.820  11.568  0.1492 -0.2463 -0.0515
12458W        W28532   0.699   5.592   4.175  0.0967  0.2996 -0.1281
12459W        W28533  13.105  16.332  11.124  0.0320 -0.0158  0.0158
12460W        W28534  12.307   9.618   2.532 -0.2579  0.1865 -0.0499
12461W        W28535  11.584   2.537   0.319 -0.0592 -0.1195 -0.1306
12462W        W28536   0.490  13.483   3.006  0.0248 -0.0656 -0.1538
12463W        W28537   2.516  15.427  14.545 -0.0545  0.0656  0.0918
12464W        W28538   0.550  19.127  11.086  0.0145 -0.4635 -0.0984
12465W        W28539  15.835   2.829   4.745  0.0383  0.0629 -0.0644
12466W        W28540   8.966   0.495  12.468  0.0267 -0.0513 -0.1278
12467W        W28541  16.439  13.132  13.753  0.2313 -0.1206  0.3227
12468W        W28542   7.289   5.277   0.891 -0.0992 -0.0600 -0.2679
12469W        W28543  18.524   1.986  12.611 -0.1397  0.0734 -0.0256
12470W        W28544  18.981   0.853   1.284  0.0366  0.2323 -0.2382
12471W        W28545   0.542  12.852  13.324 -0.0002  0.3138 -0.3478
12472W        W28546  17.291  13.467   0.906  0.3733  0.0195 -0.1053
12473W        W28547  13.458   0.728  13.954 -0.0472 -0.1152 -0.0623
12474W        W28548  11.333  10.015  11.333 -0.1344 -0.1159 -0.0163
12475W        W28549   2.063   4.302  13.425  0.1119  0.0514  0.0125
12476W        W28550   9.187   1.629   3.512 -0.0961 -0.1332  0.0865
12477W        W28551  16.915   5.210   1.909 -0.3948 -0.1324  0.1099
12478W        W28552  18.145   9.954   3.462 -0.1330 -0.2944 -0.2440
12479W        W28553   2.503  14.698  13.239  0.0089  0.1319  0.1035
12480W        W28554   0.733  17.099   3.131  0.1949 -0.3338 -0.1703
12481W        W28555   9.478  11.182  14.452  0.0938  0.4385  0.1870
12482W        W28556  17.347  13.686  14.341 -0.1441  0.3787 -0.0760
12483W        W28557   7.027   1.782   2.816  0.0704 -0.4306 -0.0825
12484W        W28558  15.306   9.766   3.712  0.1372  0.1660 -0.1524
12485W        W28559   6.001   2.055  13.544 -0.2380 -0.2086  0.1126
12486W        W28560  18.140   5.763  12.117 -0.0178 -0.0579 -0.0450
12487W        W28561   5.113  10.115  11.437  0.1093 -0.0069  0.1774
12488W        W28562   8.958   8.497   1.377  0.2743 -0.2748 -0.1796
12489W        W28563   1.503   1.248   4.477 -0.0763 -0.2939  0.0480
12490W        W28564   0.473   5.693   3.465 -0.0390  0.1305  0.1682
12491W        W28565   0.583  14.042  10.278  0.1066 -0.0446 -0.2017
12492W        W28566  19.102   5.329  13.580  0.0483 -0.0893  0.1715
12493W        W28567   5.604   5.625  13.929  0.0424  0.1305  0.0096
12494W        W28568  13.994  17.504   4.806  0.0905  0.0830 -0.1750
12495W        W28569  12.659  12.502   3.546  0.2674 -0.0983 -0.1127
12496W        W28570   3.283  16.072   4.170  0.1224  0.0939  0.2101
12497W        W28571  16.643  12.712   4.184 -0.1076  0.1938  0.2824
12498W        W28572  17.943  12.835   3.155 -0.2130 -0.0790  0.0269
12499W        W28573   1.711  15.939  13.154 -0.2559 -0.2173 -0.0130
12500W        W28574   6.732  16.642   0.755 -0.1244  0.1556 -0.3719
12501W        W28575  19.239  15.181   1.272  0.0942  0.1764  0.1650
12502W        W28576  11.473  10.167   4.298  0.0872 -0.3453 -0.0683
12503W        W28577   4.505  18.805  14.177  0.1892 -0.1145 -0.1882
12504W        W28578  11.033  15.303   9.963  0.1304  0.1207  0.0234
12505W        W28579   3.384   1.338  12.119  0.0831 -0.2979 -0.1073
12506W        W28580   1.235  16.967  14.566 -0.2092 -0.0233  0.1580
12507W        W28581  14.304   5.475   0.645  0.1381 -0.2356  0.0830
12508W        W28582  18.482   5.115   5.516 -0.1830  0.2236 -0.0203
12509W        W28583  15.668  11.568   0.406  0.4286  0.0162  0.1746
12510W        W28584  13.954   3.565  10.908  0.0768  0.3733  0.2318
12511W        W28585   6.115   8.578   1.542 -0.2044 -0.1159  0.4800
12512W        W28586   8.945   3.971  13.714  0.3536  0.3882  0.0236
12513W        W28587  10.294   0.769   0.505 -0.0018 -0.2991  0.1624
12514W        W28588   9.611  12.042   9.874  0.2871  0.1223  0.3058
12515W        W28589  10.143  11.474   2.591 -0.3458 -0.0970  0.0783
12516W        W28590   3.326  13.802   3.971 -0.0863 -0.0470 -0.1321
12517W        W28591   8.720  14.694   0.743 -0.2236  0.1069  0.1611
12518W        W28592   4.493   1.966   2.175 -0.1850  0.0203 -0.3500
12519W        W28593  17.700   5.614   3.819  0.5149 -0.3546 -0.4597
12520W        W28594   5.146  17.406  14.961 -0.2951 -0.2023 -0.2879
12521W        W28595  11.870   2.101   0.299  0.1324 -0.2143  0.0167
12522W        W28596  18.075   0.503  12.626 -0.4598 -0.1614  0.2058
12523W        W28597   8.273  16.082   9.435 -0.1928  0.0715  0.1845
12524W        W28598  12.823  16.414   3.243  0.0296  0.1879 -0.2674
12525W        W28599   7.424  15.855   2.704  0.0986 -0.0610 -0.0697
12526W        W28600  13.075   3.135  14.472 -0.0074  0.0171 -0.3155
12527W        W28601   8.920  12.963  13.236 -0.0909  0.0052 -0.2521
12528W        W28602  18.846  14.387   4.465 -0.0247  0.0333  0.3888
12529W        W28603  11.730  13.933   4.238  0.1201 -0.4390  0.1107
12530W        W28604  10.290   7.783  12.163  0.2985 -0.1776 -0.0261
12531W        W28605  18.125  15.699   2.674 -0.1359 -0.1301 -0.1976
12532W        W28606  14.803  18.395  13.157 -0.2398 -0.1948  0.1503
12533W        W28607  13.485  10.815   9.863  0.0795 -0.0295 -0.0048
12534W        W28608  11.546  11.163  13.427 -0.3439 -0.0439  0.0986
12535W        W28609  15.966   0.586  14.554  0.0748 -0.1912  0.0312
12536W        W28610   6.731  11.725   3.520 -0.0997 -0.3504 -0.0502
12537W        W28611  15.835  18.944   5.611  0.0157  0.0179  0.0134
12538W        W28612  12.747   6.494   2.994 -0.1325  0.2157  0.4176
12539W        W28613  17.909   9.020   3.307 -0.1050 -0.0438  0.1424
12540W        W28614  15.787   6.587  14.908 -0.0943  0.1260 -0.3230
12541W        W28615   5.837  11.074  12.223  0.0247  0.0085 -0.1756
12542W        W28616   7.437  10.459  13.347 -0.1198  0.0191 -0.0224
12543W        W28617   3.727   5.423   4.237 -0.0932  0.1035  0.0491
12544W        W28618   8.407   1.729   0.835 -0.0868 -0.0888  0.0491
12545W        W28619  10.270   0.230   0.212  0.1850 -0.3271 -0.1339
12546W        W28620  13.447   6.998  10.884 -0.1767 -0.0048  0.0666
12547W        W28621  16.783  10.562  10.910  0.6121 -0.2115 -0.3773
12548W        W28622   2.181  18.164   1.123 -0.1405  0.0011 -0.1218
12549W        W28623   7.653  16.001  10.331 -0.2854 -0.2351  0.2150
12550W        W28624  17.733  14.630   5.176 -0.1524 -0.2986 -0.2595
12551W        W28625   8.667   9.965   2.398 -0.0320  0.2921  0.0214
12552W        W28626  11.238  18.842   4.224  0.2882 -0.0105  0.1471
12553W        W28627  10.000  16.054  13.959 -0.5968  0.1116 -0.3720
12554W        W28628  16.999   6.200   3.329 -0.1394  0.3010  0.3099
12555W        W28629   8.654   8.209  10.436  0.3566  0.1015 -0.2545
12556W        W28630  17.111   6.191  13.079  0.0091 -0.0331  0.1620
12557W        W28631   7.364   0.668  14.351 -0.4877 -0.1277  0.4223
12558W        W28632  10.485   7.158  11.130  0.0427 -0.3381 -0.5208
12559W        W28633  16.171   7.919   3.499  0.2267 -0.0222  0.0694
12560W        W28634  12.030   5.791  12.904 -0.0401 -0.1046 -0.3153
12561W        W28635  18.118  19.160   4.646  0.1435  0.4059 -0.2033
12562W        W28636   4.669  11.303   1.868  0.2724  0.1772  0.0418
12563W        W28637   7.624   2.290  12.565  0.2141 -0.3696  0.2846
12564W        W28638   0.275  17.788  12.845  0.0221  0.2137 -0.0017
12565W        W28639   5.113  10.645  11.444  0.5158  0.0247  0.1916
12566W        W28640   9.128   1.875   3.940 -0.0738  0.0123  0.0419
12567W        W28641   3.815   8.306   4.949 -0.2494 -0.0409  0.0255
12568W        W28642  14.716   3.756   4.795  0.0149 -0.0792  0.0197
12569W        W28643  12.127  15.072  11.516 -0.0730  0.0164  0.3709
12570W        W28644  10.855   0.276   2.937  0.2334 -0.1431  0.4439
12571W        W28645   0.737  11.196  13.470  0.0854  0.1576  0.4359
12572W        W28646   7.168  16.937  11.158  0.2093 -0.1617 -0.2328
12573W        W28647   5.701   4.596   1.558  0.0948 -0.0725 -0.2448
12574W        W28648   0.593  15.470   1.426  0.1496  0.1595  0.1430
12575W        W28649   5.170  17.367   1.087  0.0716 -0.1365  0.1523
12576W        W28650  16.519   4.175   5.455 -0.2276  0.0248  0.1048
12577W        W28651   2.679  10.880  13.673  0.2088  0.1424 -0.1483
12578W        W28652  17.748   4.276  13.759 -0.0157 -0.2351 -0.0938
12579W        W28653   0.747   5.824  11.360 -0.2287  0.0529 -0.1356
12580W        W28654   9.606   9.226  12.290  0.1625 -0.1209  0.2005
12581W        W28655   6.301  13.116  10.698 -0.0736 -0.2866  0.0207
12582W        W28656   8.307   3.766  10.452 -0.2254  0.0323 -0.1765
12583W        W28657   9.353  10.509  14.461  0.2270 -0.3180  0.0522
12584W        W28658   2.749   8.291  13.893  0.1201 -0.1866  0.1843
12585W        W28659  12.063  12.720   5.121  0.0053 -0.0638  0.1069
12586W        W28660   3.033  10.933   5.168 -0.2881 -0.0219  0.1910
12587W        W28661   4.609  11.981   2.889  0.1125  0.4137  0.5261
12588W        W28662  17.927  17.363  12.818  0.0466  0.3022 -0.5181
12589W        W28663   0.275  16.037   4.348  0.0569 -0.0516 -0.1547
12590W        W28664  14.253  16.754   1.206 -0.4248 -0.0793 -0.1423
12591W        W28665  18.155  10.551  11.754  0.0959 -0.0888 -0.0030
12592W        W28666   0.810  10.730   5.013  0.0662 -0.0299 -0.0789
12593W        W28667   5.591  18.822   2.981  0.1052 -0.1743 -0.3572
12594W        W28668   1.305  14.659   3.534  0.0706 -0.0751 -0.2551
12595W        W28669  12.929  16.687  14.474 -0.1926  0.1554  0.2141
12596W        W28670   5.711  17.130   4.414  0.2388  0.1480 -0.1300
12597W        W28671   7.264   4.359   3.760 -0.0168  0.0955 -0.1611
12598W        W28672  10.485   4.845   0.512 -0.1124 -0.1722  0.1984
12599W        W28673  10.578   5.617  10.233 -0.0119  0.0916 -0.0718
12600W        W28674  10.511   4.249   4.922  0.0094  0.0129 -0.3308
12601W        W28675   0.574  10.684   2.284 -0.0569  0.2445  0.3517
12602W        W28676   6.570  16.212  14.298  0.0523 -0.0124  0.2006
12603W        W28677  15.606   0.294  14.217 -0.3154  0.4575 -0.1964
12604W        W28678  14.870   8.926  13.804 -0.0405  0.1630  0.2291
12605W        W28679  12.202   0.805   3.987 -0.1033  0.0021  0.1416
12606W        W28680   1.489   9.710   2.781 -0.1766 -0.0302 -0.6891
12607W        W28681   0.933   5.390   2.343  0.4354 -0.2627 -0.1226
12608W        W28682   6.329   5.671  12.498 -0.0337 -0.2653  0.1587
12609W        W28683   5.616   4.618  14.990  0.0814 -0.0205 -0.2324
12610W        W28684  13.752   5.880  11.450  0.0824 -0.2607  0.2971
12611W        W28685   9.123  17.263  13.574 -0.0488  0.1642  0.1254
12612W        W28686   8.555  14.147   2.779 -0.2057  0.0131 -0.1567
12613W        W28687   1.651   9.341   1.600 -0.0589  0.4113 -0.2597
12614W        W28688  14.572  14.478   3.537 -0.3543 -0.1484  0.0112
12615W        W28689  10.260   2.957  11.677 -0.3025 -0.0507  0.2809
12616W        W28690   8.781  19.218  12.224 -0.0857  0.2027 -0.0406
12617W        W28691  17.736  12.410  14.054  0.0445  0.4562 -0.3352
12618W        W28692  13.015   4.506   1.630  0.0655  0.3891 -0.3185
12619W        W28693   5.556  14.912  14.290  0.2822 -0.1837 -0.0864
12620W        W28694  12.235  11.488  13.892  0.0750 -0.2725  0.2123
12621W        W28695  16.305   0.255  12.120 -0.1335 -0.1885  0.2220
12622W        W28696  14.538  19.231   4.872  0.0842  0.4596 -0.1276
12623W        W28697  13.078   0.804   2.687  0.0298 -0.1877  0.1922
12624W        W28698  11.877  12.518   0.548  0.0403 -0.2392  0.4347
12625W        W28699   5.700   7.666   0.075 -0.1788  0.0605  0.3923
12626W        W28700   0.822   2.571   3.782  0.1216 -0.0770 -0.2334
12627W        W28701   3.886  14.344  13.671  0.1587 -0.0300 -0.1307
12628W        W28702   8.392   5.295   3.389  0.0584  0.0929  0.1788
12629W        W28703   3.897  15.169   2.313  0.0642  0.3953  0.2145
12630W        W28704   2.609  19.130   2.340  0.2125  0.5298 -0.3007
12631W        W28705   5.242   6.569   0.713  0.2579  0.1375 -0.2132
12632W        W28706  19.254  13.374   1.604  0.1036 -0.7515  0.3087
12633W        W28707  10.702   6.745  13.231 -0.3186 -0.0941  0.2639
12634W        W28708   2.291   9.290   9.975 -0.2723 -0.2329  0.0024
12635W        W28709   3.234   1.496  12.695 -0.2471 -0.1711 -0.0890
12636W        W28710   3.073  18.777   3.595  0.0971  0.1456  0.0360
12637W        W28711  19.334  13.277  14.611 -0.2607 -0.0665 -0.3046
12638W        W28712  12.241   3.376  12.205 -0.2567 -0.0405 -0.0280
12639W        W28713   3.114   3.771  13.359 -0.1041  0.0085  0.0184
12640W        W28714  12.388   3.725  11.823 -0.1290  0.0820 -0.1789
12641W        W28715   9.670  17.536  10.213  0.3486  0.1938  0.2656
12642W        W28716   4.637   2.550   2.952 -0.0551 -0.1552  0.0121
12643W        W28717  17.652   5.594  10.827 -0.4589 -0.2569 -0.2809
12644W        W28718   5.685   3.923  14.769 -0.0264 -0.3096 -0.3441
12645W        W28719  18.877  15.746  14.514  0.1402 -0.0296 -0.1101
12646W        W28720   9.480   0.766   4.679  0.3162  0.1485  0.3823
12647W        W28721   3.536   8.899   1.934 -0.0450  0.1845 -0.2714
12648W        W28722  17.299   4.303   5.054 -0.1058 -0.3496  0.1485
12649W        W28723  13.632   1.501   3.834  0.1483 -0.1255 -0.2751
12650W        W28724  14.701   3.033  10.881  0.0553  0.1857  0.1398
12651W        W28725  15.392   4.733   0.220  0.1957  0.0583  0.2047
12652W        W28726  14.617  17.258   1.654 -0.1613 -0.3735 -0.1292
12653W        W28727   9.272  17.326  12.150 -0.0439 -0.0700  0.0270
12654W        W28728   8.754   2.608   5.561 -0.0336  0.1762  0.4257
12655W        W28729   6.360  19.031  13.080 -0.0700 -0.1282 -0.0200
12656W        W28730   9.154   5.411   4.325 -0.1957 -0.3261 -0.0348
12657W        W28731  12.176  18.451  13.168 -0.0204 -0.0593  0.0150
12658W        W28732  12.006  10.166   0.254 -0.0508 -0.2888  0.0809
12659W        W28733   6.580  12.284  13.121 -0.1096  0.0826 -0.2116
12660W        W28734  15.834  10.754   3.160  0.1603  0.0031 -0.1211
12661W        W28735   7.619  11.500  14.925 -0.1278  0.1768  0.0800
12662W        W28736  13.549  17.254   3.914  0.1587 -0.2925  0.0295
12663W        W28737  12.160  17.609   0.938 -0.0343  0.6833  0.0245
12664W        W28738  13.429  14.560   3.446  0.2686  0.2486  0.1880
12665W        W28739   3.835   4.186   2.851  0.1714 -0.1646 -0.2788
12666W        W28740  16.407   1.555   1.474 -0.0430  0.0044  0.1297
12667W        W28741  12.804  11.580  10.559 -0.5461  0.2225  0.2091
12668W        W28742  14.043  15.701   9.347 -0.3700  0.3871  0.3316
12669W        W28743   4.823  16.513  10.730 -0.3172  0.2748  0.0923
12670W        W28744   9.230  15.664   1.152 -0.0247 -0.1014 -0.1000
12671W        W28745   6.756   0.485   4.000 -0.2372  0.0750 -0.2929
12672W        W28746  12.112  14.786   2.277 -0.0722 -0.3140 -0.0973
12673W        W28747  17.357  13.250  13.573  0.1341  0.0721 -0.1923
12674W        W28748   1.423  17.945  12.997 -0.2356  0.5487 -0.1774
12675W        W28749  14.604  11.034  12.556  0.0051  0.0053 -0.0519
12676W        W28750   9.306   9.862  10.347 -0.0316 -0.0308 -0.1352
12677W        W28751   3.505  14.300   1.894  0.2016  0.0326  0.0680
12678W        W28752   4.818  10.202  14.793  0.1605 -0.1950 -0.1683
12679W        W28753  12.860   3.363  11.406  0.1882  0.1073  0.0346
12680W        W28754   9.781  17.866  13.978 -0.1088 -0.0952 -0.0721
12681W        W28755   5.523   9.632   2.047 -0.0211  0.2588 -0.1162
12682W        W28756  17.007  10.353  13.273  0.1435 -0.1376 -0.1820
12683W        W28757   4.068  12.042  11.444  0.0349 -0.3125  0.1264
12684W        W28758   5.691  13.490  14.868  0.4405 -0.1183  0.0635
12685W        W28759   7.862  16.452   3.615 -0.0796  0.0713 -0.1486
12686W        W28760  15.875   7.483  12.643 -0.0501  0.0125 -0.0899
12687W        W28761   1.307   8.951   4.621 -0.0805  0.0468  0.0519
12688W        W28762   4.918   7.725   1.406  0.1502 -0.1947 -0.1718
12689W        W28763   0.624   6.759   0.773 -0.0133 -0.0664  0.1326
12690W        W28764  18.836   2.111   0.945 -0.2183  0.1742 -0.0245
12691W        W28765  16.651  15.509   1.921  0.5751 -0.1936 -0.0875
12692W        W28766   3.031  18.260   0.118 -0.0103 -0.0109 -0.1396
12693W        W28767  12.691   8.234   3.920 -0.0930 -0.1352 -0.2661
12694W        W28768  14.719   6.592   4.510  0.0921 -0.1366 -0.0468
12695W        W28769   7.248   6.471  10.975  0.1647  0.1236 -0.2510
12696W        W28770  10.641  16.280  13.111 -0.1341 -0.0151  0.3210
12697W        W28771  10.944   7.283  13.415  0.0268 -0.2494  0.1560
12698W        W28772   1.947   0.469   4.692 -0.0374 -0.1278  0.0662
12699W        W28773  12.039   1.522   0.927  0.2346  0.0686 -0.2419
12700W        W28774  13.772  18.435  11.983  0.0144 -0.0935 -0.0757
12701W        W28775   7.504   7.860  11.810  0.0963 -0.2091 -0.3221
12702W        W28776  16.170   7.944   2.804  0.0271  0.1106  0.2629
12703W        W28777  10.878  14.340  11.177  0.0538  0.0620  0.0135
12704W        W28778  17.282  17.509  14.766 -0.3658  0.2057 -0.0766
12705W        W28779   8.807   8.994   3.496 -0.0502  0.2520 -0.3280
12706W        W28780   0.882  18.907   0.280  0.2110  0.2416 -0.0052
12707W        W28781   3.717   6.995  13.001  0.0769  0.0282  0.0083
12708W        W28782   0.477   6.799  11.507 -0.0899 -0.0866  0.0073
12709W        W28783   2.279   7.712  13.116  0.0263 -0.0515  0.1267
12710W        W28784   3.908  16.936  13.381  0.0334  0.2846  0.0712
12711W        W28785  13.145  10.254  13.420  0.0701 -0.0416  0.1336
12712W        W28786   0.011  19.330   3.877  0.3616 -0.2320  0.1833
12713W        W28787  16.964   0.538   1.424 -0.0717 -0.1631 -0.1679
12714W        W28788   4.791  16.877   1.176  0.1442  0.1582  0.2295
12715W        W28789   1.125   0.397   0.089  0.2099 -0.0309 -0.0522
12716W        W28790  18.100  15.060   2.447 -0.0643 -0.2674 -0.1313
12717W        W28791   4.271   3.589  14.587  0.2006  0.2931 -0.2422
12718W        W28792  19.188  13.565   3.905  0.4529 -0.0143 -0.0121
12719W        W28793   9.771  13.330  12.542 -0.3095 -0.2219  0.1690
12720W        W28794  13.243  15.715   4.035  0.2063  0.1810  0.3351
12721W        W28795  18.643   6.422   1.298  0.2124  0.0584 -0.1759
12722W        W28796   4.551  11.373   3.588 -0.1999 -0.0687  0.0408
12723W        W28797   7.739   0.896   2.278  0.0705 -0.0344  0.3749
12724W        W28798   3.204   9.629   5.291  0.0614 -0.1399  0.1199
12725W        W28799   7.743   1.389   0.725  0.1571  0.3331  0.0116
12726W        W28800   2.266  14.065   1.659  0.0209 -0.2338 -0.1764
12727W        W28801   8.976  15.385   1.513  0.0065  0.1008 -0.1509
12728W        W28802  16.175  11.952  13.178 -0.4568 -0.1532 -0.0060
12729W        W28803  17.308  19.126  14.676  0.1363 -0.2255  0.1750
12730W        W28804  16.379  11.161  14.222 -0.1352  0.2131  0.4082
12731W        W28805   4.073   0.004  12.455  0.2606 -0.1167 -0.0136
12732W        W28806   9.626  19.237  13.851  0.0878 -0.2076  0.0608
12733W        W28807   9.342   8.557  12.465 -0.0532  0.0341 -0.1722
12734W        W28808  10.147   7.471   3.426  0.2537 -0.3575  0.3649
12735W        W28809  13.311  16.426   3.233 -0.0132  0.5137 -0.1317
12736W        W28810   9.957   8.672   0.663  0.3639  0.4561 -0.0283
12737W        W28811   0.470   7.876  10.857 -0.1536  0.0540 -0.4262
12738W        W28812  12.900  17.253   2.154  0.4555 -0.3580 -0.0219
12739W        W28813  15.662   4.176  11.697 -0.0741  0.3190 -0.1016
12740W        W28814   2.530  10.369   4.168 -0.3525  0.2447  0.1102
12741W        W28815   4.654  19.191   1.219  0.1497 -0.0972  0.0319
12742W        W28816  13.717   4.679   2.285 -0.0963 -0.2844  0.1734
12743W        W28817  18.128   2.333   4.838  0.0829 -0.3178  0.1338
12744W        W28818  13.087  13.477  10.852 -0.3068 -0.1158 -0.0413
12745W        W28819   6.972   9.377   4.664  0.1089  0.1225  0.0467
12746W        W28820   1.573   5.062   3.894 -0.2034  0.3530 -0.1427
12747W        W28821  18.627   3.386  14.533 -0.1479  0.0864  0.0125
12748W        W28822   1.322  15.879   1.424 -0.0614 -0.0947 -0.0642
12749W        W28823   1.540  12.668   3.627  0.1726  0.0805 -0.0737
12750W        W28824  13.391   9.358  10.850 -0.0091 -0.1851 -0.0300
12751W        W28825   4.694  14.629   0.420 -0.1338  0.3491  0.3528
12752W        W28826  16.698  19.218   0.125  0.2840 -0.0732 -0.0467
12753W        W28827   5.314   4.880  11.791 -0.0562 -0.0673 -0.1260
12754W        W28828  19.172   7.969   0.126  0.1231 -0.0053 -0.2164
12755W        W28829   0.743  12.470   3.576 -0.2275  0.4504  0.1978
12756W        W28830   3.419   4.111  10.925  0.3624 -0.1302 -0.2622
12757W        W28831   8.345  15.020  14.147 -0.3732 -0.2286 -0.0546
12758W        W28832   3.698   1.276  14.746 -0.0871  0.2096 -0.0967
12759W        W28833  13.733   5.051  10.115 -0.1120  0.1338  0.2661
12760W        W28834   9.197   5.835  14.236  0.0023  0.2274  0.0296
12761W        W28835   2.348   9.309   3.702  0.3771  0.0555  0.1157
12762W        W28836   2.773   5.485  10.972  0.1781  0.3335  0.0134
12763W        W28837   4.967  13.472   1.000 -0.1103  0.2805 -0.0571
12764W        W28838  10.826  16.975   1.133 -0.1015 -0.0017 -0.1865
12765W        W28839  17.203   6.904   1.550 -0.0442 -0.1972 -0.2376
12766W        W28840  15.135  18.597  13.475 -0.0803  0.1606  0.2563
12767W        W28841   2.721  13.328   1.221  0.3746  0.0766  0.1072
12768W        W28842  14.535  10.671  13.783 -0.3321  0.1167  0.1275
12769W        W28843  16.616   6.819   4.354  0.3050  0.0379  0.1983
12770W        W28844   9.670  12.186  11.589  0.1777  0.1992  0.2526
12771W        W28845  12.213   9.420  14.757  0.0830  0.0716 -0.1133
12772W        W28846  16.338  13.696   1.945  0.1699 -0.1610  0.1127
12773W        W28847  12.896  14.069  11.121 -0.2415  0.0113  0.1778
12774W        W28848   1.328   6.381  14.418 -0.1220  0.0777  0.0085
12775W        W28849   4.075  12.315   4.766  0.0112  0.0781 -0.0648
12776W        W28850   9.385  16.395  14.257  0.0095  0.0222 -0.4668
12777W        W28851   7.320   9.695   2.879  0.1065  0.0504 -0.4077
12778W        W28852   9.803  11.885   0.184  0.2812  0.2434  0.1704
12779W        W28853  10.692  12.413  10.818 -0.0558  0.0752  0.0048
12780W        W28854  18.185   0.890  13.652 -0.1439  0.0897 -0.1432
12781W        W28855  11.788   4.834   3.578 -0.3586 -0.0652 -0.3227
12782W        W28856  17.738   9.854  13.827 -0.3458 -0.0456 -0.0536
12783W        W28857   5.966  16.816   4.072  0.0359  0.0100  0.1034
12784W        W28858   7.775  14.569   2.133  0.1588 -0.2635  0.1523
12785W        W28859  19.267   1.749  13.654  0.0379  0.1944  0.1316
12786W        W28860  15.764   4.406   0.322  0.1011 -0.5998  0.0169
12787W        W28861   3.308  16.896  10.133  0.0524 -0.1357 -0.0949
12788W        W28862  11.736   0.152   3.445  0.0191 -0.5868 -0.1238
12789W        W28863   2.255  12.353   9.763 -0.0894 -0.3265  0.1917
12790W        W28864   1.765  17.744  14.935  0.0130 -0.3547  0.1106
12791W        W28865   5.167   0.807  10.707 -0.2365  0.0376  0.3049
12792W        W28866  11.045   6.106  11.991  0.0346 -0.1697 -0.1484
12793W        W28867   0.814   2.995   2.928 -0.1585  0.2002  0.2494
12794W        W28868   6.590   0.188  14.476 -0.3215  0.1100 -0.2917
12795W        W28869  11.562  13.924  10.869 -0.3059 -0.1651  0.1138
12796W        W28870   2.173  18.909  10.753 -0.1171  0.0947 -0.0280
12797W        W28871  16.026  10.332   5.788  0.0730  0.0797  0.2035
12798W        W28872  18.321  12.054   3.493 -0.4766 -0.0773  0.1356
12799W        W28873   6.811  14.817  13.070 -0.2754  0.3659  0.1121
12800W        W28874  11.690  13.348  14.098 -0.3401 -0.3252  0.1665
12801W        W28875  11.182  17.608   0.540 -0.2087  0.2320 -0.0826
12802W        W28876   2.108   7.920   0.938  0.3978 -0.4264 -0.2309
12803W        W28877  13.824   9.403  12.316 -0.3018 -0.4106 -0.1496
12804W        W28878   3.215   4.296  11.997 -0.1270 -0.0120  0.2168
12805W        W28879  10.254  11.518   1.835  0.1266  0.1959  0.1807
12806W        W28880  16.719   8.439   5.769  0.1113 -0.1044  0.1160
12807W        W28881   1.123  16.644  14.995 -0.0066 -0.0914  0.2440
12808W        W28882   7.032  12.769  14.919 -0.3280 -0.0315 -0.0481
12809W        W28883   4.078   6.562  13.929  0.0127  0.3217 -0.0369
12810W        W28884   2.741   1.186   3.369  0.0379  0.3270 -0.1085
12811W        W28885   3.037  13.916   4.526  0.2408 -0.2827 -0.2806
12812W        W28886  18.824  15.587   3.960 -0.2273  0.0596 -0.0106
12813W        W28887  11.361  13.911  11.455 -0.0779 -0.1279  0.0920
12814W        W28888  15.668   1.623   2.882  0.1726  0.1718  0.2383
12815W        W28889  11.539  13.563  14.939 -0.1669 -0.1531  0.1490
12816W        W28890   8.280  16.653   3.465 -0.2134 -0.0013 -0.2636
12817W        W28891   2.918   7.141   1.412  0.1393 -0.0174 -0.1319
12818W        W28892  18.123   7.661   0.885 -0.1242  0.3134 -0.1298
12819W        W28893  15.612  16.561  11.439 -0.1159 -0.0637  0.1366
12820W        W28894  14.204  17.507   2.707  0.2649  0.3537 -0.0044
12821W        W28895  11.793  11.376  14.057 -0.0161  0.1493 -0.1547
12822W        W28896  16.319   8.080  13.377 -0.0480 -0.1600  0.0897
12823W        W28897   4.880  16.963   4.323  0.1514  0.3398 -0.0678
12824W        W28898  19.307  16.148  10.700  0.4420 -0.2528  0.1655
12825W        W28899   0.155  12.581  13.466  0.0846 -0.2505 -0.4228
12826W        W28900  14.985  11.171   3.830  0.1460 -0.2050 -0.2270
12827W        W28901   0.796  17.866   2.652  0.2838  0.2531 -0.0976
12828W        W28902   8.798  18.755  12.671 -0.3569 -0.3041  0.0011
12829W        W28903   7.293  13.618   3.064  0.4378  0.0445  0.0203
12830W        W28904   8.584   7.561   0.448  0.1392  0.2867 -0.1377
12831W        W28905  12.890  16.536   4.134 -0.3728 -0.2761  0.2917
12832W        W28906   5.347  11.654   4.708  0.0774  0.1924  0.3384
12833W        W28907   3.067   5.548   1.166 -0.2389  0.1730  0.3289
12834W        W28908  14.702   3.514  11.193 -0.0308  0.1371 -0.3006
12835W        W28909   8.463   1.890  13.878  0.2894 -0.1548 -0.1173
12836W        W28910   4.050  11.109   2.899  0.1919 -0.3271  0.0905
12837W        W28911  12.505   6.949  12.050 -0.1668  0.2607  0.0818
12838W        W28912   4.850   2.536  14.558 -0.1237 -0.1750  0.0649
12839W        W28913   4.311   4.351  13.411  0.3587 -0.1631 -0.0039
12840W        W28914  12.661   7.359   1.792 -0.3051  0.0974  0.1875
12841W        W28915   9.217  13.656  10.819  0.0870  0.4642  0.2902
12842W        W28916  16.407  14.044   3.503 -0.2009  0.4330 -0.2243
12843W        W28917   7.899  16.478   4.163 -0.4211  0.0073  0.3794
12844W        W28918  11.433   5.044  10.507 -0.2548 -0.0105  0.4134
12845W        W28919   2.779  12.236  14.365  0.0365  0.0670  0.0797
12846W        W28920   4.299  13.203   4.483 -0.0185  0.1983  0.0153
12847W        W28921   9.404  12.898   1.570  0.2058  0.2573 -0.1911
12848W        W28922   3.139   4.604   0.015  0.0523  0.1159  0.2101
12849W        W28923  11.177  14.352   3.333 -0.0956  0.3412 -0.2232
12850W        W28924  16.958  18.331  14.762  0.1975  0.0624 -0.4244
12851W        W28925   1.514   6.296   1.914  0.1382 -0.3672 -0.2483
12852W        W28926  13.960   4.405   3.646  0.3845  0.1713  0.2161
12853W        W28927  18.289   7.904  12.382  0.0158 -0.0281  0.2429
12854W        W28928  17.850   5.655   3.315  0.0335 -0.2089  0.0517
12855W        W28929  16.756  10.619   3.167  0.1562  0.0613  0.0274
12856W        W28930  18.460   5.241  13.180  0.1072  0.0844 -0.3374
12857W        W28931   5.426   5.964  14.218 -0.1215 -0.3826  0.6216
12858W        W28932  13.991   7.823  12.783  0.0741 -0.0995  0.0704
12859W        W28933   4.437   0.868   3.690 -0.0532  0.3022 -0.1831
12860W        W28934   6.366   5.325  10.043  0.3518  0.0105 -0.0952
12861W        W28935   3.773   3.797  12.792 -0.2834  0.1234 -0.1117
12862W        W28936   0.152   3.907  13.291 -0.0334  0.0585  0.3324
12863W        W28937   5.544   7.196  11.870 -0.0587 -0.0823  0.0529
12864W        W28938   5.482  14.455   2.590 -0.0410  0.1070 -0.0453
12865W        W28939   0.156  10.438   0.832 -0.1448  0.0530  0.2300
12866W        W28940   0.630   9.513   4.713  0.0178 -0.2824 -0.1412
12867W        W28941   9.068  11.269   2.367 -0.4213 -0.1203 -0.3107
12868W        W28942  12.482   1.745   5.197  0.0543  0.0889  0.0150
12869W        W28943   8.208  18.843  14.561 -0.0230 -0.2364  0.0424
12870W        W28944  12.359  18.368   4.966 -0.2274  0.1755  0.3055
12871W        W28945   9.116   3.214   0.523  0.4537 -0.1650 -0.0485
12872W        W28946   9.357   4.691  13.767  0.1041  0.0627  0.0775
12873W        W28947  13.499  15.005   3.262 -0.0027 -0.2735  0.1308
12874W        W28948   8.597   5.721  11.997  0.2459 -0.1160 -0.0851
12875W        W28949   2.569  14.889   0.444 -0.0391  0.2330  0.2259
12876W        W28950   8.730  13.157   3.504 -0.1525 -0.1343  0.2729
12877W        W28951  11.188   2.872  13.698 -0.0116 -0.0519 -0.3331
12878W        W28952  14.828  17.872   1.667  0.0713  0.0475  0.1452
12879W        W28953  11.095  13.125   3.993 -0.2120  0.1572 -0.2656
12880W        W28954   5.893   2.063   0.440  0.1714  0.0950 -0.0128
12881W        W28955   8.633  14.672  12.075  0.0487  0.3191 -0.1258
12882W        W28956   9.383  13.912   4.816  0.1106 -0.1471 -0.2714
12883W        W28957   5.890   7.859   4.646 -0.3012 -0.0400 -0.0781
12884W        W28958   5.671  18.284   9.118 -0.0707 -0.1013 -0.3211
12885W        W28959  13.893   8.269   2.667 -0.0473  0.0840  0.0544
12886W        W28960  14.449  14.249  12.359  0.0071 -0.2582  0.1323
12887W        W28961   5.610   5.130  12.871 -0.0902  0.3893  0.0089
12888W        W28962  17.250  12.817   5.949 -0.1980  0.1573  0.0556
12889W        W28963  17.924   1.044  14.461 -0.0298 -0.0454 -0.0826
12890W        W28964  17.749  12.627  13.565 -0.2225  0.0192 -0.2026
12891W        W28965  16.590  18.338   0.713 -0.1759  0.2984 -0.1025
12892W        W28966  12.372  16.561  12.792  0.1420 -0.0950  0.0908
12893W        W28967  11.752   6.008   3.018  0.3647  0.0123  0.0290
12894W        W28968  15.046  18.589   2.273 -0.1360  0.1206 -0.0649
12895W        W28969  14.545  11.008  14.261 -0.4163 -0.3108 -0.0279
12896W        W28970  17.044   0.882   0.130  0.1759  0.2996  0.0555
12897W        W28971   5.476  17.288   3.854  0.2077 -0.1099  0.2894
12898W        W28972  18.283   4.486   1.865 -0.2795 -0.0247 -0.0199
12899W        W28973   5.111  10.000  12.475 -0.0291  0.0508 -0.3689
12900W        W28974   7.275  14.518   2.454 -0.1255  0.0203 -0.1935
12901W        W28975  17.406  13.870   2.442  0.0295  0.0094  0.1443
12902W        W28976  10.621   7.031   0.469 -0.2095  0.3246  0.3862
12903W        W28977  11.771   5.472  11.282  0.1608  0.2511 -0.0670
12904W        W28978   0.123  17.094   1.231 -0.1489  0.0193 -0.1497
12905W        W28979   9.316   9.914   1.773  0.0605  0.0058  0.0976
12906W        W28980   1.016   8.981  12.615 -0.1411  0.0743  0.0467
12907W        W28981  14.198   8.847  12.607 -0.1176  0.0204  0.2762
12908W        W28982  18.076  16.505  12.310  0.0359 -0.4196  0.1258
12909W        W28983  11.996  18.353   1.521 -0.1235  0.1910  0.1241
12910W        W28984   8.740   3.432  13.288  0.1535  0.1385 -0.0744
12911W        W28985   8.745   6.741   3.745 -0.3188 -0.0868  0.4136
12912W        W28986  15.001   4.222  14.086  0.0745  0.2185  0.1257
12913W        W28987  15.404   3.367  10.492  0.2454 -0.0206  0.3911
12914W        W28988  11.846  11.345  10.060  0.1735 -0.2081 -0.2800
12915W        W28989   0.663  17.156   1.512 -0.0648  0.2300 -0.1056
12916W        W28990   9.263   8.160  14.170  0.4073 -0.1112 -0.0056
12917W        W28991  18.973  15.709   5.487  0.0705 -0.2495  0.1325
12918W        W28992   1.485   9.907   5.760 -0.0072 -0.3028  0.0605
12919W        W28993   8.432   4.716   3.477  0.0512 -0.2053 -0.1622
12920W        W28994   4.542  15.412  11.626 -0.0357  0.2312 -0.3847
12921W        W28995  18.622  12.415  12.148  0.1528  0.6544 -0.1201
12922W        W28996   9.285   3.375   3.816 -0.0756  0.5829  0.1106
12923W        W28997  16.133   9.924  11.192 -0.2107  0.1500  0.0313
12924W        W28998  18.122   3.699   2.399  0.1772  0.0549 -0.2285
12925W        W28999  17.642  13.011  13.194 -0.0675 -0.2039 -0.1079
12926W        W29000   9.476  10.752  13.137 -0.1264 -0.0389  0.0599
12927W        W29001  16.515   1.336   5.741  0.3217  0.1976  0.0485
12928W        W29002  15.098  19.228  12.013  0.0626 -0.0682 -0.4618
12929W        W29003   7.718   8.086   5.074  0.0877  0.0658  0.0808
12930W        W29004   5.669  18.609  14.985 -0.2813 -0.0249  0.0376
12931W        W29005  16.424   3.294   2.982 -0.4326 -0.2158  0.0195
12932W        W29006  11.685   5.721   5.151 -0.1135  0.1064  0.1248
12933W        W29007   3.795   1.406   2.358  0.3088  0.0741  0.0867
12934W        W29008   7.944   2.497   0.048 -0.2231 -0.0161  0.0509
12935W        W29009   3.285   4.174  12.458 -0.0793  0.3507  0.1445
12936W        W29010   6.678   7.796   0.072 -0.0545  0.0798  0.0064
12937W        W29011  10.838   9.997  13.343 -0.2143 -0.1370  0.0624
12938W        W29012  13.649  11.094  14.620 -0.1925 -0.5044  0.2265
12939W        W29013   1.498   5.076   1.084 -0.1191  0.0340  0.1204
12940W        W29014  10.018   0.171   1.319 -0.2923 -0.1304 -0.1308
12941W        W29015  15.462  10.243  12.020  0.1233  0.1511  0.2079
12942W        W29016  14.436   8.784   3.638  0.0614 -0.2304  0.1105
12943W        W29017   6.883  14.979  11.223  0.0423 -0.3225  0.0028
12944W        W29018   4.684   7.020   0.096  0.1220 -0.0258 -0.0685
12945W        W29019  18.090  18.466   4.042 -0.1145 -0.2226  0.0654
12946W        W29020  13.513  14.954   2.087 -0.0284  0.1638  0.1956
12947W        W29021  15.446   0.279   2.527  0.1401 -0.1404 -0.0201
12948W        W29022  11.443  16.737  11.855  0.1480  0.2764 -0.0570
12949W        W29023   7.121  10.518   3.724 -0.1231  0.0130  0.1918
12950W        W29024   0.717   7.986  14.401  0.3152  0.0807 -0.0769
12951W        W29025   9.449  17.634  12.454 -0.1193  0.0500 -0.1271
12952W        W29026   6.719  17.923   3.808 -0.4806  0.4732 -0.3336
12953W        W29027   1.673   4.411  10.452  0.0020  0.2799 -0.2002
12954W        W29028  13.013  15.886   1.853 -0.2184  0.0485  0.1680
12955W        W29029   5.497  16.365   1.236  0.0970 -0.0637 -0.2431
12956W        W29030   9.409  17.574   1.749  0.0615 -0.1859  0.1442
12957W        W29031   0.753   0.319  13.786 -0.1614  0.2096 -0.2187
12958W        W29032  15.001   3.780   3.004 -0.0053 -0.2914  0.0249
12959W        W29033   5.297  11.711   3.666 -0.0134 -0.1398 -0.1898
12960W        W29034   4.425  13.244  14.019  0.0937 -0.2751  0.0305
12961W        W29035  18.950   3.463   1.923 -0.1424 -0.0621  0.0816
12962W        W29036  10.847   4.721   3.231 -0.0977 -0.1305 -0.0742
12963W        W29037  15.645  16.034   4.859 -0.4126 -0.3076  0.0403
12964W        W29038   3.350   1.267  11.603 -0.0297 -0.1746 -0.4364
12965W        W29039   2.731   4.038  11.747 -0.2675 -0.0491  0.0241
12966W        W29040   0.034   6.455   0.965  0.2115 -0.1698  0.0062
12967W        W29041   8.226   6.394  12.085 -0.0660  0.0587 -0.0459
12968W        W29042   7.776   1.561  11.901  0.3143 -0.0500 -0.0372
12969W        W29043   4.331   1.642   0.378 -0.0266  0.1011  0.1598
12970W        W29044   7.714   6.848  10.909  0.2674 -0.1547 -0.3930
12971W        W29045  12.683  10.889  12.374 -0.3922  0.0968  0.1156
12972W        W29046   4.702  11.584  14.402  0.1711 -0.3385 -0.0281
12973W        W29047  16.526   3.114  12.861  0.2148  0.1574 -0.2205
12974W        W29048   2.741  18.541  12.926  0.0696  0.1110  0.0191
12975W        W29049  17.671   7.860   3.254 -0.0005 -0.1205 -0.1704
12976W        W29050   6.773   0.391   2.603 -0.1267  0.3188  0.0043
12977W        W29051   9.331  12.893   3.440 -0.2604 -0.0079  0.2836
12978W        W29052   1.984   0.770   4.254  0.0132 -0.0643 -0.0360
12979W        W29053  14.273  15.650  10.789 -0.2319  0.1082  0.0100
12980W        W29054   3.075  11.590  13.139  0.1338  0.0628  0.4330
12981W        W29055   5.826  19.067   3.891 -0.1543  0.0908 -0.2827
12982W        W29056   2.125  17.035   4.159 -0.2549 -0.0312  0.1150
12983W        W29057  17.440   8.529   4.003  0.3462 -0.1001  0.0085
12984W        W29058  14.120   3.085   2.024  0.1267 -0.3395  0.0768
12985W        W29059  15.624  12.541   5.084 -0.1145  0.2232 -0.3066
12986W        W29060   8.421   9.592  10.426  0.3384 -0.0659  0.1896
12987W        W29061   8.784  11.009   0.107  0.2204 -0.1924 -0.0467
12988W        W29062  14.957   4.682  14.328  0.0570  0.0642  0.4466
12989W        W29063   7.488   3.245   2.172 -0.1661 -0.0593 -0.0723
12990W        W29064  10.546   8.264  14.859  0.0581  0.1806  0.0965
12991W        W29065  11.445  19.262  14.002 -0.1178 -0.2145  0.0377
12992W        W29066  15.942   9.734  12.622  0.0281  0.2242 -0.0493
12993W        W29067  17.411   5.754   4.670 -0.1255  0.2286  0.1143
12994W        W29068   5.914   1.597   0.656 -0.0537  0.1514  0.1315
12995W        W29069   4.389   4.081  14.368 -0.2623  0.1425 -0.1459
12996W        W29070  15.705  10.850   4.540 -0.3205 -0.0706  0.1065
12997W        W29071  19.293  12.369  12.913  0.1326 -0.3957 -0.0795
12998W        W29072  10.922  10.152  10.171 -0.2562 -0.2272 -0.0104
12999W        W29073  10.591   5.276  12.367 -0.1524 -0.0378 -0.1666
13000W        W29074  13.539  16.313  10.701  0.0054  0.2583  0.2031
13001W        W29075  18.068   7.755   5.292 -0.0926  0.3114  0.4130
13002W        W29076   5.247   0.487   4.615  0.0344 -0.0614 -0.3397
13003W        W29077  18.350   2.447  10.977  0.0501  0.1239  0.0197
13004W        W29078  15.011  11.972   3.434 -0.1589  0.1504 -0.0312
13005W        W29079   1.899  13.552   0.857  0.1309 -0.1076  0.0071
13006W        W29080  12.051   4.105   9.558  0.0318 -0.3974 -0.0555
13007W        W29081  10.491   6.124   3.150 -0.0281  0.2023  0.2331
13008W        W29082  13.422  10.998   1.207 -0.3093 -0.1956 -0.4047
13009W        W29083   4.694  13.170   2.725 -0.1444 -0.3269 -0.2803
13010W        W29084  15.402   0.879   3.232 -0.1425  0.0107  0.0577
13011W        W29085   0.641   6.330  11.427 -0.0225 -0.1393 -0.2648
13012W        W29086   1.187  11.598   1.313 -0.1268 -0.0436 -0.1203
13013W        W29087  17.071  12.111  11.232  0.3996 -0.3145 -0.2131
13014W        W29088   6.315   7.632   9.747 -0.2435 -0.1667  0.4167
13015W        W29089  11.346  12.973   9.223  0.3591  0.1664 -0.0751
13016W        W29090   2.187   9.471  13.495  0.1844  0.1249  0.0948
13017W        W29091  16.583   0.088   4.668 -0.0709  0.3316 -0.0898
13018W        W29092  14.299  18.727  11.158  0.1669  0.0462 -0.1202
13019W        W29093   7.590  18.634  12.216 -0.0215 -0.1510 -0.2529
13020W        W29094   9.737  15.147   4.822  0.0461 -0.1672 -0.1140
13021W        W29095   6.380  15.981   2.657 -0.2323  0.0765 -0.2177
13022W        W29096  15.523  17.357  14.116  0.3685 -0.1954  0.1837
13023W        W29097  16.678  18.689  14.635 -0.2373  0.1440  0.0086
13024W        W29098   5.481  15.364   4.234  0.1181 -0.3530  0.2076
13025W        W29099  16.820   6.931  14.979  0.2376  0.1657 -0.0890
13026W        W29100  12.785  18.053  14.152 -0.2757  0.1887  0.1403
13027W        W29101   6.789  11.189  12.375 -0.2720 -0.0106  0.0632
13028W        W29102  17.138  15.717   3.101  0.1354  0.0508 -0.3448
13029W        W29103   8.712   6.261   3.501 -0.2058  0.2035 -0.1528
13030W        W29104  18.641   8.134   1.905 -0.1435 -0.3752  0.3537
13031W        W29105   5.214  10.948  13.422  0.2040 -0.1443  0.0800
13032W        W29106  12.284   4.926   0.909  0.1789 -0.1681 -0.0857
13033W        W29107  18.452  16.930   4.837 -0.2257 -0.3640 -0.2065
13034W        W29108  12.418   5.941  11.478  0.2337  0.0185 -0.0205
13035W        W29109  16.993   6.958  14.331  0.5086 -0.3973 -0.0828
13036W        W29110   6.077   9.701  13.633  0.1621 -0.3318 -0.0568
13037W        W29111   0.920   9.389   5.329  0.0833 -0.2453 -0.2047
13038W        W29112   7.214  15.853  14.596  0.1979 -0.0168  0.1577
13039W        W29113  16.954  12.722   5.298 -0.1022  0.2308 -0.3136
13040W        W29114  16.083   7.201  12.205 -0.0918 -0.0149 -0.0519
13041W        W29115   2.496  16.298  14.923  0.0645  0.2206  0.2586
13042W        W29116  10.227  19.045  10.874  0.0169  0.0508 -0.0625
13043W        W29117   1.921   1.262   4.180  0.3692  0.1097 -0.1791
13044W        W29118   4.071  11.022  11.048 -0.0484 -0.1557  0.1584
13045W        W29119   7.268   0.588   3.274 -0.0712 -0.2263 -0.5166
13046W        W29120  11.318   6.260   2.081 -0.2235  0.0097  0.0084
13047W        W29121   7.304  10.401  12.737  0.2522 -0.2656  0.1762
13048W        W29122   4.672  12.242  11.272  0.0598  0.2924 -0.3201
13049W        W29123  17.815  13.945  11.346  0.1209 -0.2812  0.4212
13050W        W29124  15.893   8.856   0.640  0.0767 -0.0670  0.3738
13051W        W29125   1.153  14.249   5.084 -0.2559  0.0305 -0.0410
13052W        W29126  17.327  10.315   5.177  0.2262  0.2175 -0.2440
13053W        W29127   3.645  14.818  13.624  0.1106 -0.1756  0.3871
13054W        W29128  11.258   3.297   1.357 -0.2198  0.2404  0.2406
13055W        W29129   7.743  14.229  11.975  0.2314  0.0153 -0.2115
13056W        W29130   6.181  10.803  11.740  0.0352 -0.0489  0.1237
13057W        W29131  17.749   3.648   2.054 -0.3432 -0.4355  0.3038
13058W        W29132   4.380   3.751  12.937  0.0326 -0.2014 -0.0812
13059W        W29133  14.959  17.104   3.934  0.1199 -0.0716  0.2667
13060W        W29134   5.507   1.972   0.788 -0.0461  0.1009 -0.0258
13061W        W29135   9.151   9.247  13.032 -0.0178 -0.0900  0.0836
13062W        W29136  16.585  17.982  12.182  0.4181 -0.0967  0.0997
13063W        W29137   8.914  11.646   2.722 -0.1182 -0.0173  0.1276
13064W        W29138   9.031   9.622  14.452  0.2037 -0.1888 -0.0357
13065W        W29139  19.081   1.955  14.674  0.0958  0.4021 -0.0703
13066W        W29140   7.654   0.618  11.705 -0.1325 -0.2142 -0.0930
13067W        W29141   1.097   4.519  11.823 -0.3630  0.1243  0.2542
13068W        W29142   6.506  14.671  11.289  0.4072 -0.1204 -0.0546
13069W        W29143  12.198   3.860   0.097  0.0025  0.0592  0.2655
13070W        W29144  14.408   0.462   2.211 -0.3513 -0.1818  0.1492
13071W        W29145  18.860   4.696  10.762 -0.3713  0.1245 -0.0236
13072W        W29146  11.456  15.658  10.992  0.1602 -0.0053 -0.0785
13073W        W29147  17.083   8.392  13.135  0.0559  0.1837 -0.0816
13074W        W29148   5.676   9.406  11.295  0.0669 -0.0796 -0.2614
13075W        W29149   6.879  15.983  12.361  0.0939  0.1926  0.1094
13076W        W29150   6.228  17.798  10.858 -0.2075 -0.0948 -0.3557
13077W        W29151   3.286  16.640   9.011 -0.0962 -0.1419  0.0264
13078W        W29152   2.955   4.361  14.550 -0.1683 -0.1420 -0.1291
13079W        W29153  17.632  10.164   3.986  0.2742 -0.0262  0.3509
13080W        W29154   4.596   0.615   1.295  0.2871  0.0292  0.0122
13081W        W29155  10.940  17.184  12.887 -0.2294 -0.0353 -0.0728
13082W        W29156  15.069  12.101  11.119 -0.2269 -0.1532 -0.0143
13083W        W29157  18.723   4.678  13.959  0.0837  0.5794  0.2038
13084W        W29158   3.898  11.455  14.714 -0.0968  0.0173  0.0436
13085W        W29159   5.007  13.310  13.050 -0.1471 -0.0016 -0.1867
13086W        W29160  13.241   5.356   3.294  0.1723  0.1781 -0.2370
13087W        W29161  15.834   1.626   1.103  0.2604  0.0272  0.0435
13088W        W29162  12.249  15.196  12.741 -0.0277  0.3712  0.2696
13089W        W29163  11.523  14.610  13.070 -0.0296 -0.2193 -0.0702
13090W        W29164  14.661  13.265  12.735  0.1524 -0.3758 -0.2454
13091W        W29165  18.990  12.378  11.151  0.0915 -0.1276 -0.1852
13092W        W29166  13.650  10.054   3.765 -0.2370  0.1097  0.2161
13093W        W29167  12.898   2.660   4.164 -0.1330 -0.1426 -0.1984
13094W        W29168  15.658   4.477   0.810  0.0052 -0.0170 -0.1885
13095W        W29169   9.142  18.867   0.402  0.2017  0.1679  0.1618
13096W        W29170   1.375   1.419  13.658  0.1029  0.0542 -0.1250
13097W        W29171  11.175   6.092  10.889 -0.1415  0.1718 -0.0605
13098W        W29172   9.235  10.568  10.795 -0.1833 -0.2902 -0.0651
13099W        W29173   3.583   3.163  12.144  0.1328  0.0584  0.1366
13100W        W29174   7.030  16.496  12.029  0.0251  0.1260 -0.1358
13101W        W29175  13.115  11.823  12.726  0.1345 -0.3306 -0.0497
13102W        W29176   1.177  16.777   3.418  0.2763  0.3327 -0.0206
13103W        W29177   2.098  12.563   5.169 -0.1994 -0.1251  0.1881
13104W        W29178   1.979   8.415  12.264  0.4228  0.2926  0.1127
13105W        W29179  18.475  18.353  10.532 -0.0213  0.1604 -0.1576
13106W        W29180  11.222  11.977   3.347 -0.0098 -0.0790  0.0966
13107W        W29181   0.079  18.476   1.453  0.1071  0.1014  0.0408
13108W        W29182   8.762  18.626   0.854 -0.0130  0.0958  0.1062
13109W        W29183  10.002   6.772   1.942 -0.2261  0.0386 -0.0187
13110W        W29184  11.626  12.214   0.988 -0.1037  0.2411 -0.1691
13111W        W29185  17.173   4.266  14.967  0.1999 -0.0325  0.0249
13112W        W29186   0.246  11.232  10.849  0.1254 -0.0281 -0.0286
13113W        W29187   8.202   1.965  12.013  0.1024  0.2810 -0.4015
13114W        W29188   2.645   0.809  12.269 -0.4368  0.1333  0.4377
13115W        W29189   7.991   3.298  11.021 -0.1097  0.1249 -0.0315
13116W        W29190  18.036  18.901  12.489 -0.1178  0.0549  0.3712
13117W        W29191   7.004   1.988   1.450 -0.0014  0.1041  0.0080
13118W        W29192   4.983   8.170   0.507  0.0323  0.1584 -0.5164
13119W        W29193   0.919  11.779   2.873 -0.3355 -0.0256 -0.0055
13120W        W29194   4.519   8.371  14.225 -0.3064  0.1088  0.0931
13121W        W29195  17.239   7.137  11.518  0.2963 -0.2106  0.2516
13122W        W29196  16.001  13.718  11.447  0.0192  0.0164  0.3622
13123W        W29197  15.053  13.414  11.536 -0.4222 -0.4194  0.0404
13124W        W29198   5.012  16.300   1.174 -0.1003  0.0231 -0.2084
13125W        W29199   0.104  14.837   2.686  0.0880  0.0171 -0.1034
13126W        W29200  10.963   7.203  12.933 -0.0323 -0.2793 -0.2889
13127W        W29201   6.717   1.342  11.177 -0.0733 -0.1086  0.1120
13128W        W29202   1.223   2.387  13.801  0.2832 -0.2483  0.2851
13129W        W29203   5.949  19.104   2.715 -0.2362  0.1044  0.1224
13130W        W29204  16.671  13.619  13.814 -0.1556 -0.0389  0.2521
13131W        W29205   8.532   2.867  12.233 -0.0848  0.0362 -0.1914
13132W        W29206   2.079  18.233   3.052  0.0719 -0.0107 -0.0233
13133W        W29207  14.948  16.654   4.761  0.3943  0.0125 -0.0664
13134W        W29208   2.096   5.611   1.127 -0.0234 -0.0965  0.1721
13135W        W29209   4.541  15.452   1.672 -0.0978  0.1064  0.2042
13136W        W29210   7.602  15.127   3.670 -0.0809 -0.0462 -0.0514
13137W        W29211  18.665  13.955  14.696 -0.0477  0.0062  0.0162
13138W        W29212   3.341   4.032  14.377 -0.3860 -0.1833 -0.0153
13139W        W29213   9.000   3.870   2.302 -0.0350  0.1300  0.0272
13140W        W29214   0.236   1.852   1.595 -0.3338  0.0377 -0.1057
13141W        W29215   3.158  12.433   4.456 -0.1564 -0.2192  0.1133
13142W        W29216  18.740   4.144  12.441 -0.4597  0.0169 -0.0433
13143W        W29217  10.396  11.178  10.234 -0.2532  0.1506 -0.2888
13144W        W29218  18.990   0.193  11.234  0.0804 -0.0455 -0.4270
13145W        W29219   7.216  19.010   3.379 -0.0864  0.0348 -0.0576
13146W        W29220  16.189  16.320  11.457  0.1694 -0.0199  0.0318
13147W        W29221  14.003   8.210  14.710 -0.3128  0.1107 -0.1320
13148W        W29222   7.936  10.499   4.987 -0.1879  0.2607  0.0502
13149W        W29223  11.923  19.284  12.287  0.1702 -0.4064 -0.1457
13150W        W29224   4.471  12.743  11.279  0.1508 -0.0867  0.0075
13151W        W29225  13.548   1.622   1.844  0.0681  0.2549  0.2275
13152W        W29226  10.406   3.872   1.425  0.0670  0.1930  0.2817
13153W        W29227   4.208  13.283   2.952 -0.1579 -0.0000 -0.2472
13154W        W29228  17.430  11.962  13.966  0.1683 -0.0544  0.1769
13155W        W29229  10.167   0.939   3.980  0.2704  0.0972 -0.1047
13156W        W29230  12.273  17.822  11.921 -0.0291  0.2265 -0.2114
13157W        W29231  15.864   5.074  14.569 -0.1196  0.0046 -0.0542
13158W        W29232   7.442  19.015  10.499  0.2675  0.2121 -0.0542
13159W        W29233   9.124   1.708  13.402  0.2382 -0.0421 -0.0811
13160W        W29234   0.753  18.159  14.108  0.2447 -0.0175 -0.1635
13161W        W29235  11.820   2.540   1.455  0.1554  0.1884 -0.0398
13162W        W29236  18.478   0.419  10.629 -0.1433 -0.2149  0.2860
13163W        W29237  14.091   9.202  14.657 -0.0611 -0.0070 -0.1290
13164W        W29238  17.404   2.169   0.131 -0.2212 -0.3556  0.1069
13165W        W29239   9.992   8.767  12.937 -0.0055 -0.0690 -0.0442
13166W        W29240   8.911   3.510  14.627  0.0819  0.2629  0.0109
13167W        W29241   6.521   6.274   4.804 -0.1326 -0.0944  0.0807
13168W        W29242  14.190   4.970  10.445  0.0879  0.1455 -0.2831
13169W        W29243  14.572   1.860  12.101  0.0261  0.0161 -0.1092
13170W        W29244   5.786   5.207  14.876 -0.1222  0.3151  0.1347
13171W        W29245   9.153  12.053   4.551  0.1558  0.0941  0.0532
13172W        W29246  13.480  15.067   4.918  0.1768  0.1204 -0.0872
13173W        W29247   0.436  15.471   1.925  0.5357  0.1513  0.0507
13174W        W29248  17.480  15.838   2.021  0.0135 -0.1655 -0.1207
13175W        W29249   6.311  10.147   2.073 -0.1330 -0.1242  0.0290
13176W        W29250   5.429   6.341   1.282 -0.3999  0.4868 -0.0741
13177W        W29251  10.898  18.942   0.190  0.0555 -0.0988 -0.3946
13178W        W29252   3.717  15.932   2.526 -0.0792 -0.1039  0.2634
13179W        W29253   7.593   1.049  13.024 -0.1966 -0.2017 -0.1239
13180W        W29254  12.879  18.956   2.740 -0.0655  0.3885 -0.1113
13181W        W29255   8.487   1.013   2.796 -0.0585  0.2521 -0.1001
13182W        W29256   7.816   6.080  12.152 -0.2806 -0.0645  0.0647
13183W        W29257  17.643  14.866  10.484  0.0073 -0.3214 -0.4368
13184W        W29258  17.180   5.349  12.142 -0.2007 -0.0989 -0.0601
13185W        W29259   6.319  10.257   1.526  0.3009  0.0002 -0.0640
13186W        W29260  10.233   2.960   9.708  0.3842  0.2103 -0.2345
13187W        W29261   1.181   2.865   9.388  0.0449 -0.2172  0.1463
13188W        W29262  18.749   1.912   3.107 -0.0895 -0.0955  0.0406
13189W        W29263   2.648  12.558   0.342  0.0140  0.4042  0.0565
13190W        W29264   2.871   7.436   4.834  0.1283 -0.0794  0.0429
13191W        W29265  12.191   8.290   4.075  0.0096 -0.2323  0.0286
13192W        W29266   9.972  10.989  14.305  0.3613 -0.1016  0.0755
13193W        W29267  13.384   4.078  14.330  0.2115  0.0218 -0.1151
13194W        W29268   4.408   9.424   0.058 -0.0965  0.2077  0.2686
13195W        W29269  10.091  15.092   3.140  0.0759  0.1294 -0.3077
13196W        W29270   0.846  15.739  14.906 -0.0183 -0.0722  0.0539
13197W        W29271  12.110   1.108  12.695  0.4272  0.1688  0.2706
13198W        W29272   0.354  14.259   4.773 -0.3816 -0.1082  0.0228
13199W        W29273   7.245  15.881   1.237  0.2030  0.3263 -0.2660
13200W        W29274  17.479   1.285  10.632  0.2077 -0.4292 -0.2183
13201W        W29275   5.782   6.712   2.714 -0.0618  0.0169 -0.0471
13202W        W29276   2.575  10.861  11.240 -0.0740 -0.0084 -0.0038
13203W        W29277   1.484  19.196   2.796  0.0523  0.1899 -0.2335
13204W        W29278   6.880   4.740   0.289 -0.0214 -0.0997  0.0396
13205W        W29279   2.815  18.367  14.313  0.0619 -0.2157 -0.3528
13206W        W29280  12.985   7.433  11.049 -0.0809  0.0758 -0.0032
13207W        W29281  10.438   2.095   4.791 -0.0098  0.1461 -0.0139
13208W        W29282  10.685  19.300  14.660 -0.1031 -0.2717  0.1324
13209W        W29283  13.746  19.183  14.365 -0.1686  0.3214 -0.0562
13210W        W29284   9.246  13.192   0.052  0.1377  0.1346 -0.0040
13211W        W29285   8.175   9.901   2.347  0.0293  0.2408 -0.0741
13212W        W29286  14.284  11.422   3.491  0.1596 -0.1203 -0.4090
13213W        W29287   6.641   6.841   3.263  0.2630  0.2818  0.1464
13214W        W29288   2.251  16.787  11.609  0.0016 -0.1945 -0.2548
13215W        W29289   4.371  19.132  10.149 -0.2385  0.3258  0.1167
13216W        W29290  15.837   0.179   4.833  0.1956  0.1310  0.1953
13217W        W29291   5.449  11.309   3.370  0.3365 -0.0964 -0.1662
13218W        W29292   5.241  10.675   2.021 -0.2410 -0.2176  0.1237
13219W        W29293  14.071   8.286   3.201 -0.1505  0.0771  0.0691
13220W        W29294  14.451  19.145  10.878 -0.1333  0.0425 -0.0964
13221W        W29295   9.966   4.271   2.256  0.0252  0.0699 -0.1067
13222W        W29296   1.709  17.519   3.483  0.2493  0.0180 -0.3850
13223W        W29297   0.509   1.635  12.301 -0.0002  0.0503 -0.2276
13224W        W29298   4.454   4.093   2.816 -0.3650 -0.2214 -0.1374
13225W        W29299  16.589  11.952   0.789  0.0466  0.3597 -0.0043
13226W        W29300   0.117   0.974   4.787 -0.0428  0.0239  0.0840
13227W        W29301  12.349   2.863  12.097  0.2209 -0.0527 -0.0116
13228W        W29302  14.609   8.117   4.130  0.1579 -0.0333  0.0104
13229W        W29303  17.966   8.694  11.922  0.1806  0.0411  0.1718
13230W        W29304   2.010   4.849   3.768 -0.0591  0.0571 -0.0190
13231W        W29305  14.254   6.947   0.961  0.2115  0.2221 -0.0641
13232W        W29306  15.591  11.994  13.696 -0.0064  0.1799 -0.0005
13233W        W29307  17.719  18.621  14.233 -0.0250 -0.0971  0.1620
13234W        W29308  10.028   3.655  14.316  0.1573  0.1424  0.2811
13235W        W29309  13.337   0.687  14.448  0.0742 -0.0665 -0.0978
13236W        W29310  10.428  17.494  11.170 -0.3050 -0.0276  0.1151
13237W        W29311   6.269   0.387  10.926  0.2026 -0.1045  0.3024
13238W        W29312   2.522   8.945   9.745 -0.0677  0.2441  0.0809
13239W        W29313  10.717  16.688   3.480  0.0292 -0.1347 -0.2591
13240W        W29314   7.259   1.868  13.404  0.5549  0.0848  0.1872
13241W        W29315  11.299  14.867   1.194 -0.0451 -0.1558 -0.0183
13242W        W29316   0.000  11.926  14.375  0.3130  0.1131  0.0652
13243W        W29317   7.141   5.039  12.721 -0.0194 -0.0789  0.1429
13244W        W29318   1.929   0.834  11.420  0.0609 -0.1615 -0.2286
13245W        W29319  12.402  16.792   2.948  0.1191  0.0775 -0.0003
13246W        W29320   3.945  18.813  14.410  0.1837 -0.1543 -0.0204
13247W        W29321  15.749   2.250   3.186 -0.1137 -0.2367  0.4047
13248W        W29322  12.713   4.429   2.473 -0.0394 -0.3092  0.1713
13249W        W29323  12.850  18.496   4.875 -0.1065 -0.3981  0.0630
13250W        W29324  17.425  17.976  13.857  0.1819 -0.0344 -0.3484
13251W        W29325  16.381   5.285  11.511 -0.0687 -0.1553 -0.0860
13252W        W29326  18.937  17.042   5.267  0.1102 -0.0170  0.0133
13253W        W29327  12.171   6.468   1.907 -0.0388 -0.1734 -0.2156
13254W        W29328   1.575  13.203  11.497  0.4690  0.1438  0.0079
13255W        W29329   3.080  11.569   3.065 -0.0546  0.1347  0.0698
13256W        W29330  18.111   2.374   1.306 -0.1747 -0.0457 -0.0676
13257W        W29331  11.753   4.597  10.636 -0.3564 -0.1508 -0.0198
13258W        W29332   9.819   1.546   4.517 -0.2914  0.1319 -0.2173
13259W        W29333   2.489   8.070  14.284  0.0336  0.0436  0.0623
13260W        W29334  13.129  12.649   0.862  0.0009  0.1932  0.1572
13261W        W29335   7.366  11.901   4.172  0.0570  0.3126  0.1529
13262W        W29336  14.999  15.722  11.668  0.0685 -0.2706  0.1841
13263W        W29337   8.662   4.881  10.517 -0.1321 -0.2514 -0.0934
13264W        W29338  18.205  12.903  12.042 -0.1386  0.5797 -0.3895
13265W        W29339  10.803   7.817   2.144 -0.0193  0.0303  0.1913
13266W        W29340  14.878  13.939   0.163  0.2881 -0.2254 -0.0794
13267W        W29341   0.495  13.037   1.134  0.1772 -0.1931 -0.0761
13268W        W29342   9.584   9.959   2.919 -0.1126 -0.4334  0.1196
13269W        W29343  11.418  19.268  10.979  0.0265 -0.1912  0.2286
13270W        W29344   2.300   6.839   4.519 -0.0527  0.1019  0.0863
13271W        W29345   9.919   5.478   3.670  0.0655 -0.1586  0.0866
13272W        W29346  10.384  18.028   0.752  0.0572 -0.2844  0.1816
13273W        W29347  17.874   5.170   4.266  0.3469 -0.0554  0.0584
13274W        W29348  11.791   6.983  12.944 -0.0569  0.2010  0.0500
13275W        W29349  18.213   6.156  13.744 -0.4084 -0.0654 -0.1783
13276W        W29350   5.593  17.089   2.933  0.1588 -0.2089 -0.0304
13277W        W29351   3.974   9.705   0.716  0.0797  0.0703 -0.1558
13278W        W29352   3.617   1.259   3.803  0.0722  0.1029 -0.0351
13279W        W29353  19.181   3.748   3.229  0.4328 -0.1790  0.1082
13280W        W29354   8.716  10.289   3.974 -0.0604 -0.0869 -0.2782
13281W        W29355  16.145  16.660   6.078 -0.1585  0.2119 -0.0120
13282W        W29356   2.153  11.847   2.535 -0.3372 -0.0474  0.3308
13283W        W29357  12.426   9.348  14.252 -0.1724  0.2341  0.2362
13284W        W29358   3.123  15.389   1.206  0.3956  0.0364  0.1196
13285W        W29359   4.246   8.287   2.520  0.1267  0.5047 -0.1824
13286W        W29360   0.458   7.137   4.765  0.2830 -0.1410 -0.3308
13287W        W29361   2.412  15.343   0.201  0.2254 -0.1363 -0.0856
13288W        W29362   6.075   1.980  14.966 -0.2800  0.2252 -0.1043
13289W        W29363   2.945   7.697   0.355  0.1167  0.0872 -0.0120
13290W        W29364  10.484  16.551   0.481 -0.0320  0.1891 -0.0354
13291W        W29365  11.199  10.735  11.800  0.2763  0.1186  0.1099
13292W        W29366   3.484   8.068  14.137 -0.2858  0.2097  0.0556
13293W        W29367  10.998   8.695  12.964 -0.0167 -0.0158  0.1740
13294W        W29368   2.715  13.328  11.653 -0.1239 -0.0077 -0.2518
13295W        W29369  18.627   4.061  13.226 -0.0656  0.0141 -0.1163
13296W        W29370   8.915   4.543   3.604  0.1933  0.2623  0.0103
13297W        W29371   2.668  16.535  10.651  0.0973  0.1565 -0.0966
13298W        W29372   2.384  12.408  13.416  0.1500 -0.0460 -0.2606
13299W        W29373   0.591  10.440  13.039  0.1046 -0.1154 -0.2441
13300W        W29374   1.017   9.250  13.391 -0.0000  0.3623  0.0804
13301W        W29375  10.845  12.592  11.278 -0.0282  0.3112  0.2314
13302W        W29376  16.297   7.060  13.564  0.0237 -0.1677  0.0625
13303W        W29377  11.737   9.368   9.306  0.1867  0.1301  0.0690
13304W        W29378   0.381  15.166   1.050  0.1870  0.0687 -0.0477
13305W        W29379   0.419  11.928   0.436 -0.1374  0.0035  0.0391
13306W        W29380   9.591   2.933   5.137  0.4158  0.1757  0.2342
13307W        W29381  11.639   1.118   0.543 -0.0376  0.2521 -0.1727
13308W        W29382   6.209   8.193   0.804  0.0611  0.0241  0.0799
13309W        W29383  11.931  14.260   1.542  0.0042 -0.0579 -0.1246
13310W        W29384   5.220  11.085   9.524  0.2052 -0.1400 -0.1058
13311W        W29385   7.580  11.624  13.893 -0.1012  0.1375 -0.2712
13312W        W29386  15.283  17.914   1.894  0.2044  0.1223  0.2185
13313W        W29387   0.172   2.867  14.473  0.3329  0.0284  0.2665
13314W        W29388  18.714   9.123   5.208 -0.1512 -0.1102  0.0258
13315W        W29389  11.586   0.883  11.117  0.0088 -0.1124  0.1477
13316W        W29390  11.850   7.714   0.253 -0.2417 -0.0114  0.3879
13317W        W29391   8.432  16.651   1.722  0.0762 -0.2808 -0.0005
13318W        W29392  13.881  15.560  11.607  0.3597 -0.0252  0.1217
13319W        W29393   8.086  15.129   2.408  0.0109  0.0835 -0.0199
13320W        W29394   7.269   6.533  10.028 -0.0249  0.1288  0.0678
13321W        W29395  13.985  12.662   1.452 -0.1488 -0.2794 -0.2908
13322W        W29396  13.165  15.883  13.247 -0.2115  0.0683  0.1366
13323W        W29397   9.052   6.839   4.942 -0.2513 -0.1513  0.0939
13324W        W29398  17.156   7.907   1.863 -0.0600 -0.2970 -0.0882
13325W        W29399  12.858   6.630   1.435 -0.3471  0.0910 -0.1613
13326W        W29400   9.700   5.581   5.100 -0.0505  0.4070 -0.0210
13327W        W29401   7.800  16.733  14.731 -0.2262  0.1926 -0.4713
13328W        W29402   6.073  17.862   3.188  0.1125  0.2419  0.0339
13329W        W29403   7.941   4.932  14.265 -0.2000  0.0157 -0.1918
13330W        W29404   2.834   1.819  10.907 -0.1033  0.0515  0.2716
13331W        W29405  13.229   0.101  10.588  0.1404  0.1276  0.1978
13332W        W29406  15.349  18.357   4.106 -0.0500 -0.0367  0.2383
13333W        W29407  11.263  12.106  12.932  0.0262 -0.1109  0.1655
13334W        W29408   3.742   5.083   1.679  0.1548  0.0204  0.1705
13335W        W29409  17.332   8.968   5.709 -0.1022 -0.0273  0.0973
13336W        W29410   9.572   7.003  11.332 -0.0669 -0.0519 -0.1680
13337W        W29411   9.844  14.272  10.638  0.1796 -0.1271 -0.0666
13338W        W29412   8.524  12.449  12.396 -0.1123  0.1016 -0.5596
13339W        W29413   5.147  11.414  13.683  0.0182  0.1214  0.0448
13340W        W29414  18.372  18.366  14.230  0.1704  0.1940  0.4582
13341W        W29415  18.618   6.965   5.065 -0.0357 -0.1114 -0.1444
13342W        W29416   1.012   6.424  11.769  0.2292  0.1247  0.3879
13343W        W29417   9.030  18.876  14.551  0.4542  0.1169  0.0987
13344W        W29418  11.496   0.391   4.264  0.3436 -0.2200  0.2024
13345W        W29419   6.116   2.836   2.049  0.1449  0.1172  0.4337
13346W        W29420  15.209  10.172   5.163  0.1507  0.1469  0.0638
13347W        W29421  17.870   1.620   4.747  0.0259  0.2872  0.1695
13348W        W29422   3.059   7.111   4.065 -0.0789 -0.4143  0.1373
13349W        W29423   9.312   5.557  11.743 -0.0712  0.1245  0.0147
13350W        W29424   1.967   6.947   1.145 -0.2283  0.2244  0.0349
13351W        W29425  14.601   7.059  13.802 -0.6346 -0.0405  0.1738
13352W        W29426  16.739   6.689   1.405 -0.2108 -0.1641  0.2001
13353W        W29427   4.932   0.869  14.529 -0.0583  0.1273  0.0191
13354W        W29428  10.055   2.439   4.877  0.1670  0.0068  0.0876
13355W        W29429   6.993  12.817  10.597 -0.0108  0.3811  0.2193
13356W        W29430  16.833   1.787  14.749 -0.1266 -0.3605 -0.2207
13357W        W29431  12.477  18.419  12.451 -0.1632 -0.3240  0.4119
13358W        W29432  17.048  15.526  14.496 -0.0131  0.4577 -0.1075
13359W        W29433   2.794   4.392   3.349  0.0888  0.1556 -0.0829
13360W        W29434  12.085  17.804  11.391  0.0539 -0.0743 -0.1467
13361W        W29435  19.093   7.934  11.564 -0.0260  0.1070  0.0578
13362W        W29436  17.916   1.835   2.942  0.3197 -0.0243  0.2612
13363W        W29437   9.123   3.074  13.752  0.0882 -0.1398 -0.1308
13364W        W29438  16.739   4.442  14.266 -0.0143  0.0055  0.0514
13365W        W29439   1.017   6.976  13.555 -0.0797  0.2017 -0.2448
13366W        W29440  15.203   7.279  13.080 -0.0878  0.1390 -0.0652
13367W        W29441  15.762   3.978   0.902 -0.3357  0.1482  0.4833
13368W        W29442  13.309  14.528  11.823 -0.0561 -0.0946  0.3134
13369W        W29443   7.384   7.350  13.369 -0.5011 -0.1012 -0.1910
13370W        W29444   8.143  17.667  13.012 -0.0398 -0.0197 -0.0414
13371W        W29445  13.022   6.362   0.515  0.1604  0.4001  0.0911
13372W        W29446  10.798  16.686  11.103  0.1148 -0.0470  0.0334
13373W        W29447   6.697   9.046   0.578 -0.4290 -0.1086  0.3549
13374W        W29448   0.487   9.831  10.969 -0.1334  0.3840 -0.0149
13375W        W29449   3.875   1.617  14.467  0.0959 -0.2923 -0.2384
13376W        W29450   5.377   5.590   2.477 -0.2182  0.0877 -0.0630
13377W        W29451   0.341  16.175   0.790  0.5799 -0.0695 -0.0675
13378W        W29452  14.304  15.491  12.475  0.0871  0.1404  0.2892
13379W        W29453   3.063  18.814  14.408  0.2282 -0.3718  0.0968
13380W        W29454   1.325  14.547   4.509  0.1287  0.3892  0.0462
13381W        W29455   6.137  14.695  10.684  0.0608 -0.0633  0.2135
13382W        W29456  17.125  17.665   9.856  0.0263  0.0231  0.3310
13383W        W29457   0.091  16.852  14.687 -0.0549 -0.3269 -0.1005
13384W        W29458   5.846  13.267  11.482 -0.2719 -0.0436  0.0640
13385W        W29459  15.484   0.831  14.669  0.0617  0.0652  0.1245
13386W        W29460   4.204  15.752  10.193 -0.1892  0.0693 -0.1515
13387W        W29461  15.515  10.550  13.621 -0.1456 -0.0399 -0.4847
13388W        W29462  17.037  15.914  10.844 -0.3252  0.2210  0.2208
13389W        W29463   2.812   6.382   1.857 -0.1621  0.5110 -0.0888
13390W        W29464  15.107   6.214  14.495 -0.0960 -0.0982 -0.4054
13391W        W29465   7.672  15.734   1.000  0.2148 -0.0836 -0.0651
13392W        W29466  19.208  17.584   3.388  0.1459  0.2204 -0.2382
13393W        W29467  10.862  11.479  14.535  0.4334 -0.1625 -0.2771
13394W        W29468   3.139   5.898  14.753 -0.1240  0.3576  0.0424
13395W        W29469   4.950   2.110  12.149  0.3465  0.0311 -0.3508
13396W        W29470  17.796  17.009  13.330  0.1784 -0.3606  0.1495
13397W        W29471   1.322  13.476  11.846  0.0765 -0.4149  0.1909
13398W        W29472   5.294   0.953   1.788  0.1610  0.2248  0.1047
13399W        W29473  12.355   7.937   0.136 -0.0151 -0.0865  0.1791
13400W        W29474  15.975   0.948   0.568 -0.1808 -0.1813 -0.3218
13401W        W29475  12.893  12.091  10.477  0.0773  0.0265  0.0812
13402W        W29476  14.087  19.263  13.836  0.3071 -0.0143 -0.0618
13403W        W29477   5.995  17.528  10.562  0.1382 -0.2171  0.0670
13404W        W29478  18.815  10.197  10.937 -0.0129  0.3238 -0.3502
13405W        W29479  16.983  14.576   1.709 -0.1309  0.3551  0.2978
13406W        W29480   5.505   0.635   2.576  0.0811  0.3306  0.0054
13407W        W29481  14.292  12.215  13.383  0.1656  0.1070  0.1384
13408W        W29482  16.754   6.333   5.688 -0.2620  0.1224  0.0053
13409W        W29483   7.438  10.222  13.833  0.0591  0.1851  0.1603
13410W        W29484   1.490   9.487  14.757  0.0244 -0.0896  0.2212
13411W        W29485  15.225  12.409   3.663  0.1866  0.0281  0.0060
13412W        W29486  17.615  17.488  13.232 -0.1474  0.1103 -0.1123
13413W        W29487   4.002  15.182  13.905  0.3161  0.0290 -0.2156
13414W        W29488  17.705  15.353   1.765  0.0146  0.2198  0.0478
13415W        W29489  16.914   4.650   4.141  0.1570  0.2641  0.2338
13416W        W29490   5.196   4.066   0.596  0.1886  0.0988 -0.3612
13417W        W29491   3.211  11.660  10.330 -0.1017  0.2048 -0.1650
13418W        W29492   2.314  16.732  12.937  0.2729 -0.0770 -0.0092
13419W        W29493   5.751  12.116   0.975 -0.0137  0.2921  0.1748
13420W        W29494  12.119  19.206  14.754 -0.1067  0.0659  0.2335
13421W        W29495  11.915  16.415  12.590 -0.1046  0.2083  0.2495
13422W        W29496   4.868  11.790  13.948  0.0760 -0.2378 -0.2773
13423W        W29497   7.644  17.594  14.557  0.1653 -0.0581 -0.1923
13424W        W29498  14.706   6.893  10.456  0.1569  0.0596 -0.1560
13425W        W29499   0.404   4.856  10.964 -0.0144 -0.0335  0.1367
13426W        W29500   9.587   6.134   5.041  0.0660  0.2025 -0.0016
13427W        W29501   9.355   2.052  10.282 -0.1181 -0.0404  0.1691
13428W        W29502  17.713   7.326   2.393  0.1932 -0.3211  0.1220
13429W        W29503   0.331   0.327  14.124 -0.1624  0.5491 -0.2121
13430W        W29504   7.878  12.203  12.969  0.0533 -0.0621  0.4338
13431W        W29505   7.259   1.225   0.774 -0.0963  0.0202  0.0997
13432W        W29506  14.231  12.295   0.112 -0.1120  0.1733 -0.1787
13433W        W29507  13.999   1.841  13.662 -0.2489 -0.1296 -0.2773
13434W        W29508   9.012   4.094   3.367  0.2982 -0.1611  0.0751
13435W        W29509  18.045  11.678   2.593 -0.0981  0.0633 -0.1593
13436W        W29510   3.262  10.439   5.048  0.3176 -0.3049 -0.3978
13437W        W29511  10.329   5.825   4.343  0.1205  0.1738  0.4142
13438W        W29512   0.107  16.764  11.886 -0.3117 -0.0653  0.1236
13439W        W29513  10.588   7.826  10.476  0.0028  0.0559 -0.0193
13440W        W29514   7.251   2.305   5.192 -0.1174  0.2595 -0.1601
13441W        W29515   0.730  18.015   4.178 -0.0905  0.0149  0.0905
13442W        W29516  17.564   4.048   1.382 -0.0183  0.0550  0.0036
13443W        W29517   3.747  15.975  10.186 -0.1257 -0.2682  0.1486
13444W        W29518   1.285   9.139  12.225 -0.0376  0.1335  0.2666
13445W        W29519   1.456   0.727  12.324  0.1371 -0.2812  0.1047
13446W        W29520   2.671  13.021   3.880  0.3774  0.0422  0.0628
13447W        W29521  11.948   3.415   1.538 -0.0421 -0.0391  0.1093
13448W        W29522   8.220   4.162   3.980  0.0782  0.1148  0.1248
13449W        W29523   0.592  11.418   2.986 -0.0999 -0.1441 -0.2106
13450W        W29524  17.622  15.678   4.125 -0.0175  0.0063 -0.1990
13451W        W29525  15.589  17.965  14.859 -0.2268  0.2114 -0.0239
13452W        W29526  10.319   9.931   3.765 -0.1308 -0.0710  0.1769
13453W        W29527   6.285  10.316   4.026  0.1799  0.3746  0.0891
13454W        W29528   6.078   0.265  14.200 -0.1564  0.1969  0.0944
13455W        W29529   1.251   2.155   2.466 -0.0135  0.0733 -0.2577
13456W        W29530  17.892  11.759   3.118 -0.0642  0.1043  0.1439
13457W        W29531   7.755  10.260  13.014 -0.2360 -0.2812 -0.1192
13458W        W29532  18.638  11.829   0.861  0.1375  0.0878 -0.2464
13459W        W29533   5.722   1.272  13.131 -0.1412  0.0667 -0.0240
13460W        W29534   6.464   2.375   2.288 -0.0374  0.2356 -0.2534
13461W        W29535   1.360  10.569   0.830 -0.3512 -0.0570 -0.0240
13462W        W29536   9.025  18.441  10.494  0.1507  0.0267 -0.2005
13463W        W29537   1.861  16.763   3.790  0.0664 -0.0569  0.0072
13464W        W29538  11.757   6.130  14.036  0.0200  0.2935 -0.0030
13465W        W29539  12.816  15.839   1.005 -0.0076 -0.5280  0.1524
13466W        W29540   0.887   7.351   1.770 -0.3716 -0.1232 -0.0069
13467W        W29541   0.149   4.792  14.569  0.2163 -0.0877  0.0341
13468W        W29542  15.371  16.788   2.831 -0.1488  0.1460  0.0096
13469W        W29543   9.707  18.911  11.570 -0.1269  0.1035 -0.3383
13470W        W29544  18.275  18.557   1.201 -0.2848 -0.5939  0.3110
13471W        W29545   7.263  14.716   1.965  0.1654 -0.1433 -0.1857
13472W        W29546  11.543   2.654   9.864  0.1955 -0.0518 -0.0138
13473W        W29547  19.063   8.637  14.651  0.0515 -0.0449 -0.2105
13474W        W29548  14.637   3.358  11.759  0.1689 -0.0483  0.1665
13475W        W29549   6.814   5.784  11.385 -0.3011 -0.1339  0.2693
13476W        W29550  10.763   6.903   1.842 -0.2143 -0.1634  0.3473
13477W        W29551   7.894   2.283   4.229  0.1430  0.0646 -0.2412
13478W        W29552  17.113  10.633   4.467  0.3144 -0.2039 -0.1419
13479W        W29553   4.304  10.599   1.615  0.1225 -0.2466  0.0557
13480W        W29554  16.372  17.552  13.861  0.1048 -0.1980 -0.0718
13481W        W29555  11.776   7.454   0.970  0.1307  0.1348  0.0691
13482W        W29556   4.204   5.744  11.990  0.0784  0.2631  0.0668
13483W        W29557  11.913   6.731   1.298 -0.3497  0.2129  0.1389
13484W        W29558  17.342   5.729   0.805 -0.1472  0.1376 -0.1591
13485W        W29559  13.708   9.655  14.111  0.0755  0.1055 -0.1139
13486W        W29560  16.667   8.019   3.597 -0.0477 -0.0921  0.2004
13487W        W29561   6.328  13.399  11.684  0.0197  0.3160  0.1175
13488W        W29562   3.882  15.548   1.405 -0.1149  0.1207 -0.1783
13489W        W29563   9.823  12.376   0.353 -0.1129  0.0578 -0.0749
13490W        W29564  17.288   8.438  12.698  0.2256 -0.1152 -0.2590
13491W        W29565  13.138   8.096  13.015 -0.0030  0.0071  0.1623
13492W        W29566  10.056   1.844  10.421 -0.2224  0.0795  0.2944
13493W        W29567   9.821   4.489   4.852  0.0363  0.0630 -0.3061
13494W        W29568   4.483   6.127   1.243  0.2328 -0.1011  0.0161
13495W        W29569   8.465   6.128  14.878  0.2497 -0.1976  0.1100
13496W        W29570  11.743   9.298  10.940 -0.2517 -0.0553 -0.2015
13497W        W29571   5.569   3.111   2.484 -0.3771 -0.2602 -0.1603
13498W        W29572  13.953  18.489  14.855  0.2677  0.2143  0.0624
13499W        W29573   2.890   4.004  12.242 -0.0879 -0.1134  0.4719
13500W        W29574   7.040   4.791   2.482 -0.2766 -0.0952 -0.0004
13501W        W29575  12.354   6.717  10.710  0.1246  0.0956  0.0077
13502W        W29576   3.566  14.876   1.901  0.0212 -0.1838 -0.0394
13503W        W29577  11.382  16.953   4.318 -0.2243  0.1609  0.0060
13504W        W29578   7.769   0.234   2.338  0.0289 -0.1703 -0.0076
13505W        W29579  14.750  17.438  12.507 -0.0957 -0.1226  0.2985
13506W        W29580   3.312   3.346   1.356  0.0871  0.2072  0.1096
13507W        W29581  14.021   5.018   0.207 -0.0777 -0.0170  0.0518
13508W        W29582  15.641   9.991   5.811  0.1517  0.4457 -0.0100
13509W        W29583   6.942   3.242  13.054 -0.2690  0.0856 -0.0228
13510W        W29584   2.434  11.896  11.742 -0.0733  0.2740  0.0230
13511W        W29585  10.294   2.807  14.803  0.0252  0.5120  0.1294
13512W        W29586   3.127   5.572  12.702  0.1528 -0.0283  0.0611
13513W        W29587   0.165  11.438   5.033  0.0710  0.1386  0.0040
13514W        W29588   5.650   0.783  10.518 -0.2331 -0.0834 -0.2980
13515W        W29589  17.525  16.582  13.054 -0.2315 -0.1416 -0.0190
13516W        W29590   6.261  15.393   4.776  0.1570  0.0482 -0.0671
13517W        W29591  17.297  13.443   3.961  0.3945 -0.0629 -0.2425
13518W        W29592   4.871   3.366  12.179  0.0493  0.0254  0.0842
13519W        W29593  18.431  14.917   0.377 -0.2062  0.1180  0.0921
13520W        W29594   0.078  11.402  14.323 -0.1819  0.0453  0.2323
13521W        W29595   3.472  13.072   0.039  0.2617 -0.2298  0.3640
13522W        W29596  15.803  18.027  10.579 -0.1513  0.1207  0.1691
13523W        W29597   6.792  11.355  10.623  0.0892 -0.2405  0.0025
13524W        W29598   4.333  10.316   2.506 -0.0566  0.4432  0.2629
13525W        W29599   6.568   3.733  14.407 -0.0295 -0.0102 -0.2176
13526W        W29600   3.449  10.909   1.243 -0.1798 -0.2267  0.0418
13527W        W29601  11.886  14.945   5.044  0.1531  0.0025 -0.2947
13528W        W29602   6.642  14.209  13.512 -0.0871 -0.2562  0.0885
13529W        W29603   1.347   3.750   4.124  0.2449  0.1665  0.0692
13530W        W29604  13.414   8.285   5.268  0.0715 -0.0633  0.0454
13531W        W29605   7.756  15.137  14.274 -0.2811 -0.2411  0.1998
13532W        W29606  15.467  15.095   3.887  0.3219 -0.1373  0.0899
13533W        W29607   3.566  16.835  11.497  0.1134  0.1859  0.2951
13534W        W29608  12.254   8.869  12.678 -0.3847 -0.1331 -0.0297
13535W        W29609   8.282  10.614   3.041 -0.0212 -0.0048 -0.1145
13536W        W29610   1.523  11.192  12.278  0.1323  0.2978  0.3591
13537W        W29611   4.685   7.685   2.687 -0.0628 -0.0233 -0.1547
13538W        W29612  17.272   0.580  12.338  0.2488  0.0230  0.1721
13539W        W29613   1.632  11.507  14.212  0.3191 -0.0618  0.0666
13540W        W29614   0.255  14.616  11.749  0.0018 -0.0395 -0.0235
13541W        W29615   7.812  18.905   4.957  0.0775 -0.3706 -0.1819
13542W        W29616   0.598  16.202  13.391 -0.3742 -0.0020 -0.0777
13543W        W29617   8.129   4.935  12.393  0.1322 -0.1397 -0.0094
13544W        W29618  15.355  14.739  12.792  0.0358  0.4093  0.0508
13545W        W29619   0.823  17.221  13.684 -0.2480 -0.2952  0.3504
13546W        W29620  14.647   7.602  13.723  0.1626  0.1683  0.0504
13547W        W29621   5.992   6.885  14.327 -0.1386  0.0679  0.0264
13548W        W29622  11.121   9.066  11.878  0.1278  0.1098 -0.3680
13549W        W29623  15.347   8.672  13.098  0.0433  0.2554  0.0964
13550W        W29624  18.667  16.770   1.953 -0.4318  0.2618 -0.2266
13551W        W29625  17.317  18.951  11.755  0.2475  0.3143 -0.0141
13552W        W29626   3.251  16.897   3.631 -0.2858 -0.0805 -0.1967
13553W        W29627   8.030   3.841  11.841  0.0088  0.4214  0.3466
13554W        W29628   9.865   4.191   3.172  0.1077  0.0209  0.0972
13555W        W29629  12.225   1.090   1.050 -0.0228  0.1070  0.0872
13556W        W29630   4.606  12.286  13.812  0.2187  0.1666 -0.0585
13557W        W29631   0.807   9.511   2.782 -0.0898 -0.1702 -0.2247
13558W        W29632   1.940   1.128   9.855  0.0330 -0.2780 -0.0452
13559W        W29633   6.752   5.750  14.759  0.2710 -0.0386  0.1009
13560W        W29634  16.688   3.949  13.155  0.3213 -0.4862  0.0288
13561W        W29635   6.150   7.458  10.652  0.4108  0.1953 -0.0689
13562W        W29636   4.410  14.087   2.423 -0.0438  0.1832  0.2440
13563W        W29637   3.654   0.361  14.242 -0.5712  0.0536  0.0028
13564W        W29638  13.042   2.382   2.286  0.2499  0.2539  0.0320
13565W        W29639   9.009  17.064   2.822  0.0866  0.0458 -0.1928
13566W        W29640   4.874  15.156   1.321 -0.0976  0.0200 -0.1133
13567W        W29641   1.661  10.669  12.252  0.2975  0.0778  0.0986
13568W        W29642   6.105  12.768  10.400  0.2526 -0.1256 -0.1419
13569W        W29643   2.818   0.061   4.875  0.1508  0.0849 -0.2724
13570W        W29644  11.612  18.004  11.383  0.1119  0.1682  0.3232
13571W        W29645   0.032   1.711   3.070  0.1718 -0.1691 -0.0383
13572W        W29646  14.365   8.572   4.079  0.1163 -0.0007 -0.1106
13573W        W29647   0.207  13.860  11.178  0.1212 -0.2237 -0.0474
13574W        W29648   0.329  14.039   3.217  0.1393  0.1934 -0.3397
13575W        W29649   5.557  12.698   2.361  0.1367  0.0962  0.2396
13576W        W29650   9.656   5.329   3.256 -0.0978 -0.1502  0.0163
13577W        W29651  18.260   6.504   3.723 -0.2415 -0.1206 -0.1001
13578W        W29652   3.858   4.727   2.370 -0.0722 -0.1517  0.1494
13579W        W29653  15.349   4.948   6.002  0.2830  0.2615  0.1450
13580W        W29654   3.708   1.262  11.111  0.1384 -0.0994 -0.1884
13581W        W29655  12.214   4.942  13.929 -0.2470  0.1023  0.3266
13582W        W29656   2.246   0.318   3.352 -0.3183  0.2798 -0.2200
13583W        W29657  12.013  16.913  12.512  0.1008 -0.0818  0.1141
13584W        W29658   8.992   2.799   5.171  0.1187 -0.0865  0.1548
13585W        W29659  10.746  13.751   0.113 -0.1126 -0.2807 -0.1569
13586W        W29660   5.217   2.880  14.243  0.1273  0.3748 -0.1960
13587W        W29661   9.993   8.115   2.096  0.1610  0.3525 -0.0097
13588W        W29662   9.104  14.707  12.594 -0.4291 -0.3543 -0.0203
13589W        W29663   7.034  18.454  12.639 -0.0964  0.0681  0.1889
13590W        W29664  11.372  14.838  10.001  0.2176  0.3682  0.0904
13591W        W29665  17.585   6.938  12.535 -0.4058 -0.2171 -0.1663
13592W        W29666   9.830   6.391   4.187 -0.1188  0.0390 -0.0758
13593W        W29667  10.975   5.245   5.065  0.2896  0.0216  0.0351
13594W        W29668  16.321  11.977  11.667 -0.4925 -0.1094  0.0299
13595W        W29669  14.829  17.227  14.719  0.5170 -0.0401 -0.1938
13596W        W29670   4.325  15.015   9.103  0.1648  0.4005  0.1840
13597W        W29671  18.896  12.808  10.457 -0.0604  0.1664 -0.0785
13598W        W29672   6.065   6.458  13.944  0.0846  0.1461  0.0118
13599W        W29673  11.043  16.197  14.691 -0.1505  0.0528  0.0813
13600W        W29674  10.307  13.407  12.499  0.1199 -0.2930 -0.0126
13601W        W29675  12.593  16.501  11.272  0.0915 -0.1701  0.4540
13602W        W29676   9.839  18.220   0.846 -0.1282 -0.0810 -0.0224
13603W        W29677   8.707  16.986  12.593  0.2432 -0.3143  0.0920
13604W        W29678  18.867  16.288   1.377  0.2210 -0.2714  0.0128
13605W        W29679  18.541  17.767   3.219 -0.1825  0.0154 -0.2579
13606W        W29680  10.790   2.199  11.485 -0.3302 -0.1216  0.2987
13607W        W29681   6.938   2.536  10.406 -0.1217 -0.0056  0.0978
13608W        W29682  18.599   8.285   3.387  0.0645  0.1799  0.2562
13609W        W29683  15.391   4.644  11.549 -0.0231  0.3853  0.0416
13610W        W29684   6.622   3.902  14.917 -0.3452  0.0667  0.2760
13611W        W29685  14.945   8.087   1.569  0.0911 -0.3561  0.3928
13612W        W29686   7.499   0.344  10.287 -0.1417  0.3487 -0.1865
13613W        W29687   3.486   7.355  12.631 -0.0855  0.0658 -0.0146
13614W        W29688  15.091  11.734   3.879 -0.0572 -0.2072  0.4081
13615W        W29689   1.887   1.113   2.352  0.0178  0.0426  0.1479
13616W        W29690  10.888   4.328  14.966 -0.2447 -0.1702 -0.1469
13617W        W29691   7.074  11.823  12.982  0.2995  0.1652  0.0003
13618W        W29692   6.462   2.500  13.054 -0.0494 -0.1033 -0.2503
13619W        W29693   8.814  10.264   5.446 -0.1802  0.1198 -0.0401
13620W        W29694   4.456  15.015   2.133  0.0214  0.0281  0.1945
13621W        W29695  15.424   0.840  12.440  0.3097 -0.0407 -0.0684
13622W        W29696   3.503   8.757   3.384 -0.0065 -0.1050  0.1867
13623W        W29697   2.024   2.740   1.076  0.2057 -0.2236  0.0082
13624W        W29698   1.389  15.324   4.790 -0.1785  0.3757  0.1978
13625W        W29699  17.811  13.057  13.727 -0.3936  0.0388 -0.1361
13626W        W29700  14.812  14.571  13.356  0.0001  0.1056 -0.2231
13627W        W29701   6.761  11.594   9.294  0.2568  0.1437  0.0987
13628W        W29702   2.595   1.362  14.457 -0.3797  0.2955 -0.0725
13629W        W29703   7.779  11.219  13.602  0.2589 -0.2240  0.0820
13630W        W29704   1.579  16.026   2.801 -0.2991  0.4050  0.4690
13631W        W29705   8.489  17.714   3.232  0.2714  0.1289  0.1368
13632W        W29706  18.281   9.113  12.018  0.1456  0.3622  0.0949
13633W        W29707  16.451   9.331   1.820 -0.0771 -0.2248 -0.4375
13634W        W29708  10.150  12.695  13.095 -0.1552  0.3059  0.1363
13635W        W29709   0.152   8.074  11.192 -0.1091 -0.0528 -0.0072
13636W        W29710   1.373   7.318  12.796  0.1428  0.2244  0.5244
13637W        W29711   6.558   6.446  11.474 -0.3571  0.1807 -0.1503
13638W        W29712   0.240   1.358   1.903 -0.1523 -0.2872 -0.0540
13639W        W29713   2.644  18.866  12.549  0.1712 -0.0686 -0.1262
13640W        W29714   4.600   0.096   2.270  0.2395  0.2893  0.2215
13641W        W29715   9.427  13.047  13.281  0.3143 -0.2300  0.1749
13642W        W29716   1.028  11.729  12.579  0.0020 -0.1163  0.1542
13643W        W29717   2.835   8.085  14.739 -0.3767 -0.0196 -0.1043
13644W        W29718   4.817  17.451  13.675 -0.0156  0.1860  0.0717
13645W        W29719   4.487   6.636   1.100 -0.0871  0.0749  0.0733
13646W        W29720  10.534  11.970  11.930  0.0997  0.0342  0.2751
13647W        W29721   0.050  15.632   4.052 -0.3059  0.0498  0.1945
13648W        W29722   0.074  18.174  14.888 -0.0511  0.2963 -0.1068
13649W        W29723  11.593   0.555   2.289 -0.0326 -0.1263  0.0420
13650W        W29724   3.561   8.694  14.702  0.1664  0.2245  0.1309
13651W        W29725  19.261  11.976   2.550 -0.0277 -0.2219 -0.0485
13652W        W29726  17.601   8.182  14.480 -0.0458 -0.3820  0.0626
13653W        W29727  16.313   9.249   4.351 -0.3920  0.0263  0.2470
13654W        W29728  14.114  12.352  12.949  0.0176  0.2303 -0.0310
13655W        W29729   4.951  11.240   3.214 -0.4170 -0.1100  0.0169
13656W        W29730   3.565   5.996  10.284 -0.0030 -0.1147  0.0594
13657W        W29731  18.350   0.918   0.105 -0.0171 -0.3183  0.4291
13658W        W29732  13.261  10.818   5.372  0.0941  0.1990 -0.0873
13659W        W29733   0.475   1.057  13.949 -0.2182  0.1993 -0.0475
13660W        W29734   3.780   8.212   2.596  0.3717 -0.1180  0.2811
13661W        W29735  10.297   7.076   4.467 -0.3059 -0.0353  0.3575
13662W        W29736  15.226  19.003  11.415  0.0959 -0.0076  0.1376
13663W        W29737  15.933   3.632   4.990  0.1976  0.0275  0.0703
13664W        W29738  11.913   7.492   4.473 -0.1751  0.1235  0.2242
13665W        W29739  10.059  13.099   4.185 -0.1786  0.1964  0.0883
13666W        W29740  11.058   3.677   2.488 -0.0073  0.4818 -0.2858
13667W        W29741   4.650   3.497  11.137 -0.0420  0.0590 -0.2208
13668W        W29742  10.701  11.515  11.737  0.0608 -0.0815  0.1785
13669W        W29743   5.297  10.458  14.036  0.0667 -0.1308 -0.0951
13670W        W29744  17.423   6.033   3.707 -0.0484 -0.1715 -0.0365
13671W        W29745   6.338  10.449  12.638 -0.3860 -0.1362  0.2000
13672W        W29746  12.835   1.355   5.304 -0.0227  0.0360  0.2244
13673W        W29747   2.989   0.380   1.878  0.0273  0.0339  0.1094
13674W        W29748  17.716  15.803   3.040  0.1799 -0.0721  0.1786
13675W        W29749  10.222   2.839  12.191  0.2593  0.0981 -0.2914
13676W        W29750   8.300  15.535  10.610  0.0644 -0.1586  0.1507
13677W        W29751  10.894   7.449   0.542 -0.2919  0.1303  0.1738
13678W        W29752   4.078  18.628   1.974  0.0122 -0.4231  0.1690
13679W        W29753   5.454  15.421  11.877 -0.2034  0.1075  0.1296
13680W        W29754  14.604  18.439   2.899 -0.0439 -0.3235 -0.1746
13681W        W29755   6.276  11.995  14.951  0.2362  0.0517 -0.2444
13682W        W29756  18.627   8.846  12.463 -0.2312 -0.1719 -0.0223
13683W        W29757   1.536  10.569   4.386  0.0279 -0.1048  0.1195
13684W        W29758   5.441   9.300   3.570  0.0739  0.2090 -0.0220
13685W        W29759  16.295   8.617  13.272 -0.0138  0.3393 -0.0402
13686W        W29760   2.231  15.241   1.747 -0.0696 -0.1988 -0.0724
13687W        W29761   9.923   1.946   2.758  0.0408 -0.2091  0.2712
13688W        W29762  10.369  12.150   3.208 -0.2409  0.0683 -0.0199
13689W        W29763  13.223   2.994  11.191  0.0348  0.1418 -0.0110
13690W        W29764   2.614   6.605   3.532  0.1907 -0.0959  0.2197
13691W        W29765   3.957   1.704  10.841 -0.1134  0.0341  0.0572
13692W        W29766   6.382   7.006   4.970 -0.2648  0.0239  0.1383
13693W        W29767  10.068  13.363   2.332  0.2971 -0.2692 -0.3751
13694W        W29768   1.395  16.922  11.773  0.0388  0.1077  0.1342
13695W        W29769  13.123   3.964   3.598 -0.6067 -0.0899  0.0001
13696W        W29770   7.707  17.069   2.843  0.0000 -0.3547 -0.2238
13697W        W29771   7.167   7.995   1.131 -0.0914 -0.0140  0.0734
13698W        W29772   8.074  17.687  13.561 -0.1930  0.1669 -0.3049
13699W        W29773   8.176  14.677  13.057  0.2347 -0.0795  0.0648
13700W        W29774  16.281   4.886   5.050 -0.3855  0.1076  0.3070
13701W        W29775   2.168   9.220  13.892  0.0453 -0.1157  0.2273
13702W        W29776  12.065  17.073   1.870  0.0947  0.0053  0.1731
13703W        W29777  18.714  12.037  13.568 -0.0016  0.1407  0.1277
13704W        W29778  18.912  14.772   1.297 -0.3468  0.0376 -0.0988
13705W        W29779  16.532   1.149  12.573 -0.1012 -0.0166  0.0542
13706W        W29780  10.042  14.941   3.869  0.1198  0.0131 -0.1673
13707W        W29781   9.719  16.392  11.270  0.0571 -0.0694  0.1977
13708W        W29782   3.996   9.855   4.527 -0.3376  0.0632  0.4098
13709W        W29783   2.828   3.462  10.537 -0.1927  0.0300 -0.2263
13710W        W29784  15.310  14.409  10.341  0.0279  0.0111 -0.0314
13711W        W29785   2.658   9.841   1.991 -0.0403  0.0276  0.1648
13712W        W29786  18.742  16.454   2.366 -0.1653 -0.0825  0.1435
13713W        W29787   3.828  15.553  11.076 -0.2986 -0.0989 -0.2374
13714W        W29788  17.154   4.962  10.992  0.1117  0.0454 -0.3338
13715W        W29789  13.851   2.434  12.335 -0.1152 -0.2550 -0.4261
13716W        W29790  14.000  12.744   0.243  0.1299 -0.2759  0.1636
13717W        W29791   7.463  10.028  11.440 -0.1044 -0.0960 -0.1555
13718W        W29792   0.986   4.808   5.877 -0.2622 -0.2480 -0.1813
13719W        W29793   3.093  11.445  12.132 -0.2807  0.0785  0.1329
13720W        W29794   3.066   4.401  13.606  0.1025  0.0391 -0.1746
13721W        W29795  11.494  17.786   4.908  0.0609  0.0196  0.1865
13722W        W29796   7.082  16.821   3.698  0.1569  0.2934  0.3212
13723W        W29797  14.396  12.470   1.652 -0.0223  0.2699 -0.0285
13724W        W29798   6.694   9.224   3.573 -0.0946  0.0663 -0.1947
13725W        W29799  18.556  16.731  12.156 -0.0074 -0.2711  0.1065
13726W        W29800  14.890  14.708   0.586 -0.1916 -0.2780  0.1442
13727W        W29801  19.161  18.292   1.831 -0.1342 -0.0397 -0.2907
13728W        W29802   6.440  12.982   4.250 -0.0805 -0.2062  0.1212
13729W        W29803  16.679   3.370   0.221 -0.4891  0.1742  0.2120
13730W        W29804   7.892  16.544  10.432 -0.4278 -0.1241  0.0056
13731W        W29805   4.831   7.317  14.398  0.2050 -0.0237  0.0625
13732W        W29806   1.857  17.209  13.468 -0.3434  0.1840 -0.1930
13733W        W29807  15.683   2.444   9.506 -0.0295  0.0372  0.0555
13734W        W29808  16.554   4.043  11.747 -0.1841 -0.1276 -0.0128
13735W        W29809  10.639  18.353   0.426  0.0573  0.2864  0.3912
13736W        W29810  14.340  13.417   0.874 -0.1314 -0.1273  0.0539
13737W        W29811  15.187  16.373  11.720  0.0072  0.0901 -0.0246
13738W        W29812  18.299  10.954   4.458  0.0453 -0.1931  0.1308
13739W        W29813  15.890  13.091   3.698 -0.1861  0.2805 -0.0821
13740W        W29814   9.544  16.983  12.439 -0.1306  0.2715 -0.0967
13741W        W29815   3.899   0.330  13.691 -0.1568 -0.0537 -0.0395
13742W        W29816  10.809  16.268   9.458  0.0627 -0.3269 -0.0273
13743W        W29817   0.098  13.899  10.546  0.1244 -0.1761 -0.0248
13744W        W29818  18.219  18.799   2.195  0.0884 -0.3311  0.0634
13745W        W29819  14.638  18.742   4.459 -0.0116  0.0262 -0.0002
13746W        W29820   6.744   3.616   4.000  0.2075 -0.0361  0.1766
13747W        W29821  10.447  11.186  12.020  0.1022 -0.0242  0.0975
13748W        W29822  11.671   2.850   3.756 -0.1194  0.1737 -0.1282
13749W        W29823  14.857   5.272   0.816  0.1423  0.1012 -0.2885
13750W        W29824  12.331   8.096   1.541 -0.0598  0.1581  0.2176
13751W        W29825   6.334  18.955  13.701 -0.3618 -0.0551  0.0809
13752W        W29826   8.985  12.662   1.912 -0.2266 -0.3539  0.2997
13753W        W29827  11.108   2.618   5.026  0.2991  0.0040  0.0923
13754W        W29828  12.754  14.427   4.829  0.0490 -0.1007 -0.0731
13755W        W29829  11.048  17.545   1.955 -0.1143  0.0840  0.3222
13756W        W29830  17.252   1.026   2.940 -0.0168  0.2323 -0.0318
13757W        W29831   4.919   6.322  12.023 -0.0241 -0.2959 -0.1195
13758W        W29832  11.799  13.005   1.150 -0.0687  0.0361  0.0692
13759W        W29833   7.945  11.709  13.052 -0.0960  0.2178  0.2579
13760W        W29834   8.462  17.305   4.358 -0.1892  0.2871  0.1761
13761W        W29835  15.752  11.730   1.953 -0.2628 -0.0336  0.1692
13762W        W29836  17.534   2.676  13.685 -0.0020  0.0823 -0.2249
13763W        W29837   1.923  12.877   0.315 -0.2215 -0.2451 -0.0245
13764W        W29838   9.540   4.535   1.295  0.0027 -0.0451  0.0208
13765W        W29839   1.596  11.805  11.370 -0.0059  0.2817  0.1283
13766W        W29840  17.470   6.959  11.114 -0.0035  0.0930 -0.3382
13767W        W29841  10.052   0.860  11.174 -0.0741  0.1276 -0.0540
13768W        W29842  12.701  17.142   4.425 -0.0569  0.1791  0.0407
13769W        W29843   6.054   5.802  11.828  0.0610 -0.1182 -0.0928
13770W        W29844   5.658   6.341   4.997  0.0968  0.1248  0.2286
13771W        W29845   8.365   9.954  10.762  0.3997 -0.0436  0.2607
13772W        W29846   0.868  14.248   0.990 -0.2558  0.0287  0.0417
13773W        W29847   0.967  18.512  14.397 -0.1102  0.1361 -0.1784
13774W        W29848  15.844   9.250   9.983  0.0247  0.1663 -0.2143
13775W        W29849   1.164  16.767   1.058  0.0435  0.1433 -0.1756
13776W        W29850  13.299   4.231  12.830 -0.0639  0.0074  0.2041
13777W        W29851   0.497  16.711   1.452 -0.1997 -0.1250 -0.2693
13778W        W29852   8.455  18.277   3.322  0.0701  0.2005 -0.0442
13779W        W29853  14.840  12.134   5.268 -0.2429  0.1201 -0.1215
13780W        W29854   7.260  18.594   3.750  0.2701  0.3348 -0.1008
13781W        W29855  13.012   8.391  14.959 -0.2025 -0.2587  0.1142
13782W        W29856  13.750  16.545  14.826  0.0029 -0.3949 -0.1824
13783W        W29857   7.684   0.875  14.653 -0.1662  0.1852 -0.1521
13784W        W29858  12.958  18.323  12.076  0.1832 -0.0715 -0.1536
13785W        W29859   4.826   1.049   9.365  0.1273  0.2827 -0.4007
13786W        W29860  15.749  14.688   1.258 -0.0024 -0.4200  0.1964
13787W        W29861   8.202   8.107   4.437 -0.3238 -0.0693 -0.3975
13788W        W29862   3.349  11.096   5.874  0.0257  0.2465  0.3695
13789W        W29863   0.486   7.521  12.367 -0.0090 -0.1719 -0.0885
13790W        W29864  10.337  13.537   4.082  0.2800 -0.0948  0.3223
13791W        W29865  17.596  13.122   1.624  0.0396 -0.0403 -0.0473
13792W        W29866   6.631  14.320  13.987 -0.1422  0.1348  0.0996
13793W        W29867  12.308   0.694   4.921 -0.1289 -0.0551 -0.1019
13794W        W29868   2.557   9.342  11.758  0.0651  0.0761  0.1633
13795W        W29869   6.696  10.683  11.770  0.0487 -0.0886  0.1846
13796W        W29870   2.582   6.317   5.297 -0.0881 -0.2370  0.0991
13797W        W29871  11.343  12.889   0.974  0.2922  0.0213 -0.3152
13798W        W29872  14.306  12.969   1.726  0.0067 -0.1912  0.0854
13799W        W29873  13.283  13.079  13.737 -0.2266  0.1428 -0.0408
13800W        W29874   9.420  14.388  11.431  0.0958 -0.2999  0.2535
13801W        W29875  10.848  15.642   3.972  0.1399  0.0452  0.0281
13802W        W29876   5.739   4.526  10.926  0.0234 -0.0493  0.0132
13803W        W29877  17.546  18.053  12.545  0.3173  0.2777  0.0846
13804W        W29878   7.718  18.333   4.703  0.0042 -0.0327 -0.1334
13805W        W29879  18.721  15.154  12.961 -0.0323 -0.1819 -0.0214
13806W        W29880   7.808  16.274   2.334  0.0677  0.1177  0.2139
13807W        W29881  17.952  18.215  11.783 -0.0217 -0.3770 -0.0707
13808W        W29882   8.396  19.007  12.502  0.0756  0.0394  0.3094
13809W        W29883   9.410   2.259   3.947  0.1006  0.3301 -0.0393
13810W        W29884  17.209  17.715   1.500  0.1646  0.2359  0.0841
13811W        W29885  14.380  15.919  14.300  0.0215  0.0802 -0.2859
13812W        W29886   9.541  15.751  12.654 -0.0688  0.0684  0.1999
13813W        W29887  15.364   4.930  13.642  0.2797 -0.1501  0.1431
13814W        W29888   9.187  18.497   4.163  0.1043  0.0754 -0.1907
13815W        W29889  11.601  12.157   3.637 -0.1414 -0.1499  0.0002
13816W        W29890   6.237  13.669  14.660  0.0492  0.0793 -0.0885
13817W        W29891   1.366   2.021   0.686 -0.1686  0.1422 -0.0791
13818W        W29892  16.552   0.477  13.610 -0.2532 -0.1682  0.2456
13819W        W29893  14.702   6.575   9.421  0.2199 -0.2515  0.2010
13820W        W29894  10.557   0.721  11.923  0.1251 -0.1396 -0.1377
13821W        W29895   6.043   1.832   3.050 -0.0572 -0.1255  0.0432
13822W        W29896   3.037   6.712  14.380 -0.1703  0.1870 -0.0049
13823W        W29897  12.726  16.381   2.256  0.0154 -0.0258 -0.0108
13824W        W29898   6.776  10.536   2.994 -0.1299 -0.1079 -0.1276
13825W        W29899  13.680  19.321   2.767  0.0945  0.2096  0.1305
13826W        W29900  14.364   6.605   4.120 -0.0194  0.1785 -0.0967
13827W        W29901  16.155   6.120   1.349  0.0221  0.1969 -0.2373
13828W        W29902  18.663  10.392  14.961  0.3302 -0.0577 -0.3255
13829W        W29903  11.995  11.465   3.668  0.0958 -0.0739  0.1549
13830W        W29904  11.008  17.533  14.317 -0.0556  0.1360 -0.0221
13831W        W29905  17.974  14.324   1.967 -0.1366  0.1420  0.0629
13832W        W29906   7.639  10.445   4.507  0.1578  0.1617  0.2338
13833W        W29907   1.890  14.738   2.612 -0.2319  0.0870 -0.1397
13834W        W29908  18.963   7.502  14.654  0.1197 -0.0463  0.0133
13835W        W29909  14.230   2.307  14.461 -0.1866  0.1563 -0.4844
13836W        W29910   8.661  13.571  13.877  0.1091  0.1241 -0.2528
13837W        W29911   1.244   6.672   5.141  0.2094 -0.1765  0.2362
13838W        W29912  15.536  10.531   1.939  0.3271 -0.0722  0.3023
13839W        W29913  18.947  16.675   0.551 -0.0572  0.1573  0.0283
13840W        W29914   6.637  18.114   4.302 -0.0693 -0.0518  0.0165
13841W        W29915  10.794  15.227   2.786 -0.1537  0.0065  0.0849
13842W        W29916  12.700  16.879  14.044 -0.1471 -0.2489  0.0372
13843W        W29917  11.944   5.271  13.137  0.1142  0.2216 -0.0741
13844W        W29918   4.922  11.540  14.942 -0.0823  0.0384 -0.0822
13845W        W29919   0.207   5.787   0.900 -0.2088  0.1047  0.0020
13846W        W29920   8.187  16.040  10.434  0.0412  0.0667 -0.2401
13847W        W29921  11.413   7.972  13.690 -0.0306 -0.0583  0.1103
13848W        W29922   3.381  18.270  12.666 -0.2760  0.2235  0.1378
13849W        W29923   9.256   5.997   0.664 -0.1508  0.0580 -0.2246
13850W        W29924   3.212   8.830  14.292 -0.1502 -0.1409  0.1073
13851W        W29925  14.783  16.198   3.918 -0.0380  0.1348 -0.0500
13852W        W29926   0.960   3.914  11.632 -0.2802  0.0933 -0.0758
13853W        W29927   6.915  17.875   1.357 -0.3823 -0.2256 -0.0982
13854W        W29928  13.080   8.957   4.705 -0.0062 -0.1156 -0.4556
13855W        W29929   0.167   8.827   5.576 -0.0738  0.1912  0.0331
13856W        W29930  17.764  17.960  14.160  0.1189 -0.2352  0.0566
13857W        W29931   0.947   9.961   1.990  0.2900 -0.1537 -0.0297
13858W        W29932   5.077   5.927   9.973 -0.0315 -0.2545 -0.2733
13859W        W29933   9.647   7.230  12.803  0.1614  0.1080  0.0365
13860W        W29934   9.852  15.906   1.624  0.0869 -0.0002 -0.2066
13861W        W29935   4.257  16.057   3.321 -0.0216  0.1516 -0.1104
13862W        W29936   1.265   0.728  11.096 -0.1126  0.2479  0.0154
13863W        W29937   3.226  13.827   0.663  0.0329  0.0132  0.0166
13864W        W29938   6.090   0.350   4.672  0.1211 -0.0995  0.0865
13865W        W29939  12.023  12.395  12.932  0.1578  0.0172  0.1088
13866W        W29940   5.464   4.713  13.151  0.1279  0.0774 -0.4704
13867W        W29941  12.846  11.168   3.724 -0.2491  0.2430  0.1895
13868W        W29942   8.680   8.977  11.890 -0.3186  0.1214 -0.1137
13869W        W29943   4.467  16.576  14.787 -0.3035 -0.1723  0.1332
13870W        W29944  13.349  11.389  12.869 -0.0797 -0.0820 -0.0938
13871W        W29945  19.256  16.002  14.421  0.1582  0.2014 -0.0503
13872W        W29946  18.280  18.955   2.860 -0.0090  0.3161 -0.0420
13873W        W29947   3.274   2.010   3.303  0.1392  0.2906  0.0206
13874W        W29948  18.856  17.622  13.119 -0.0817  0.0612 -0.0345
13875W        W29949  13.756   6.095   1.227 -0.3329  0.1386 -0.0087
13876W        W29950   8.272  10.912   3.679 -0.2023  0.1116 -0.4282
13877W        W29951  19.133   4.625   3.699 -0.1902  0.3653  0.0810
13878W        W29952  11.429   5.707   2.319  0.1609  0.3214  0.0030
13879W        W29953   7.330  15.031   0.133  0.3653 -0.1531 -0.0313
13880W        W29954  18.571   3.051   3.867 -0.1750  0.1310 -0.1303
13881W        W29955  12.878  16.143  10.165  0.0210  0.1126  0.1823
13882W        W29956   1.256   9.290   4.099  0.0085  0.3276 -0.0573
13883W        W29957   1.843  11.378  13.462  0.1394 -0.3021 -0.1547
13884W        W29958   9.265  14.012  12.178  0.2047  0.2705  0.2082
13885W        W29959   1.856  14.833   4.458  0.0864  0.1334  0.3531
13886W        W29960  15.376  16.825  11.884 -0.1215 -0.0169  0.2111
13887W        W29961  16.644  19.011  14.200 -0.2283  0.1737 -0.0419
13888W        W29962  19.006  15.930   1.718  0.0555 -0.3084 -0.0005
13889W        W29963   6.261  17.382   1.388 -0.1610 -0.0264  0.0432
13890W        W29964   8.751  14.250  11.741 -0.0266  0.0881 -0.2437
13891W        W29965  16.835  13.327   0.723  0.0746 -0.1466 -0.3104
13892W        W29966   2.744   9.022   3.895 -0.0912  0.2792 -0.2029
13893W        W29967  13.535  10.977   3.970  0.0494  0.0181  0.1119
13894W        W29968  17.678   9.033   0.788 -0.0750  0.3140 -0.0733
13895W        W29969  11.127  14.713  11.447  0.1082 -0.2187  0.0537
13896W        W29970  12.702  12.970  10.794 -0.0938 -0.2524 -0.0511
13897W        W29971  16.463   8.932   9.909 -0.1619 -0.3195 -0.1451
13898W        W29972   5.642  11.723   1.280  0.3695  0.0364  0.1061
13899W        W29973   6.755   8.250   3.193 -0.0075  0.0115  0.2138
13900W        W29974   7.336  12.046  10.955  0.1874  0.3039 -0.0796
13901W        W29975   3.979  19.304   9.842 -0.0233 -0.2068 -0.0565
13902W        W29976   9.666   1.097  13.989 -0.4793  0.1595  0.2847
13903W        W29977  11.898  16.679   1.217  0.2016 -0.2905 -0.1125
13904W        W29978   3.875   6.989   1.068  0.1557 -0.0884  0.0021
13905W        W29979   6.669  13.284  11.325  0.1290 -0.2967 -0.1264
13906W        W29980  11.535  12.603   2.939  0.0586  0.1068 -0.1086
13907W        W29981   5.373   1.841   5.145  0.2139  0.1495  0.2828
13908W        W29982  16.334   7.627  14.435 -0.0015 -0.2059  0.0788
13909W        W29983  18.305  10.953  13.219 -0.0410 -0.0411 -0.1241
13910W        W29984  14.888   2.196   1.567  0.1443  0.1040 -0.2785
13911W        W29985   6.980   8.598   0.223  0.2748  0.3572  0.0210
13912W        W29986   4.119   3.282  14.209 -0.0290 -0.0906  0.1711
13913W        W29987  16.190   9.894   4.896 -0.0288 -0.0295 -0.0226
13914W        W29988   6.649  16.158   3.762  0.1798 -0.0008 -0.1392
13915W        W29989   8.944  16.185   3.702 -0.1762 -0.0129 -0.2301
13916W        W29990   5.834  19.096  11.717 -0.0427 -0.0739 -0.0375
13917W        W29991   8.739  17.378   1.103  0.1611  0.0626 -0.1093
13918W        W29992  16.183  14.300  14.898  0.2001 -0.6076  0.1240
13919W        W29993  11.979  13.456   1.387 -0.1619  0.0955 -0.0497
13920W        W29994   0.368  13.090  11.660 -0.0770 -0.0523  0.2313
13921W        W29995  11.254   6.479  14.780 -0.0446  0.0581 -0.1528
13922W        W29996  11.300   2.992  11.031 -0.1369 -0.2175 -0.0906
13923W        W29997   0.312   8.559  11.312  0.0973  0.0454  0.1608
13924W        W29998   2.528  17.709   1.028 -0.1340  0.0427  0.0445
13925W        W29999   9.899  12.283   3.144 -0.0029 -0.0746  0.2911
13926W        W30000   1.081  15.353  11.009 -0.4088  0.0980  0.0965
13927W        W30001  11.540   1.371   1.017  0.3727  0.0695  0.2796
13928W        W30002   7.376   2.529   4.516 -0.1066  0.2206 -0.0364
13929W        W30003  17.041   5.082  12.805  0.0068 -0.0734 -0.0521
13930W        W30004  12.618  12.617   0.965 -0.0308 -0.2100 -0.1382
13931W        W30005   6.992  16.154  10.452 -0.0910 -0.0032 -0.2115
13932W        W30006  17.928  12.035  10.106  0.0561 -0.0838 -0.1168
13933W        W30007  13.246   7.981   2.853 -0.2385  0.3093  0.1056
13934W        W30008   5.247   9.052   0.853 -0.0790 -0.0878  0.2310
13935W        W30009  17.227  19.291  10.929  0.0928 -0.0340  0.0113
13936W        W30010   0.172  18.254  12.064 -0.0533  0.1926 -0.1859
13937W        W30011   2.892   8.214   3.704  0.0186 -0.0240  0.1767
13938W        W30012  19.280   1.552  11.193 -0.3164  0.2303  0.5353
13939W        W30013   4.424  14.335   0.947 -0.0263  0.1058  0.0500
13940W        W30014   9.768  15.379   9.858 -0.3625 -0.2256 -0.0619
13941W        W30015   4.846   6.431  13.147  0.0377 -0.2108  0.0854
13942W        W30016   4.504   0.749   9.088 -0.2492 -0.4478 -0.2843
13943W        W30017  17.192  15.939   5.397 -0.2333 -0.1933 -0.0198
13944W        W30018   0.022   3.411   2.403  0.1164 -0.3586 -0.2479
13945W        W30019   3.905   5.155  13.942 -0.1139 -0.0304 -0.2954
13946W        W30020   8.974  13.706   0.400 -0.4803  0.1410 -0.0498
13947W        W30021  17.159  17.183  10.678 -0.2806 -0.2090  0.2123
13948W        W30022   2.864   9.303   2.021  0.0512 -0.3514  0.0394
13949W        W30023   4.620   1.450  10.127 -0.0638  0.4616 -0.2096
13950W        W30024   9.178   0.448   9.653  0.4436 -0.0357 -0.0510
13951W        W30025  17.695   0.572   5.329  0.1967 -0.1546 -0.3414
13952W        W30026   7.589  18.004   2.152  0.0952  0.0693  0.2763
13953W        W30027   7.623  10.495   5.594 -0.0077 -0.1244  0.2510
13954W        W30028  18.666  14.676   0.832  0.0663  0.0650  0.3567
13955W        W30029   0.593  17.083   2.437 -0.2104  0.0489 -0.0212
13956W        W30030  11.887  15.712   4.821 -0.2051  0.2068 -0.3252
13957W        W30031  12.884  13.454   3.417  0.2407  0.2774 -0.1584
13958W        W30032   6.565   1.250   1.299 -0.0158 -0.0565  0.4536
13959W        W30033  11.075  18.786   1.028 -0.2275  0.2262  0.0423
13960W        W30034  18.451   8.008   0.365  0.0811  0.0422 -0.3880
13961W        W30035   5.153  13.036   2.523  0.1697  0.0511  0.0896
13962W        W30036   2.671   6.419  11.912 -0.0718 -0.2877  0.2211
13963W        W30037  19.278  14.397  13.876 -0.3339 -0.3562 -0.1665
13964W        W30038  13.948   0.546  12.602  0.1447  0.0527 -0.2717
13965W        W30039  15.904  16.959  14.352  0.2659  0.2583  0.0923
13966W        W30040   9.468   1.435   4.039  0.1222 -0.0691 -0.3124
13967W        W30041   4.296   3.193  12.855 -0.0503 -0.2006 -0.2470
13968W        W30042  11.946   8.546   3.394 -0.1557 -0.1474 -0.1975
13969W        W30043  12.813  15.263  10.946 -0.0716 -0.2548 -0.1854
13970W        W30044   1.668  17.665  13.301 -0.0852 -0.1415 -0.1137
13971W        W30045   9.584   9.850  13.496 -0.2704 -0.3490 -0.2010
13972W        W30046   6.589   5.132  12.730  0.0177  0.0519 -0.0318
13973W        W30047   5.104  12.447  13.102 -0.1084  0.1956 -0.1058
13974W        W30048  11.161   5.324   2.379 -0.0202  0.0781  0.0069
13975W        W30049  16.671  10.073   3.401 -0.2912  0.2798 -0.5635
13976W        W30050   0.848   0.477  10.025  0.1726  0.1068 -0.1910
13977W        W30051   0.501   7.613   0.968  0.0021  0.0401  0.1104
13978W        W30052   7.644  13.539   1.068  0.0308 -0.3625  0.0388
13979W        W30053  14.278   0.392   2.676 -0.3465 -0.0443 -0.1071
13980W        W30054   1.718   2.941   1.955  0.1281 -0.1037  0.0909
13981W        W30055   6.616  10.649  14.587 -0.2073 -0.1247  0.0750
13982W        W30056   9.317   1.445  11.520  0.1036 -0.1440  0.1452
13983W        W30057  10.995   5.243   3.277 -0.0778  0.0443  0.1288
13984W        W30058   6.256  12.874   9.504  0.1561 -0.3076  0.2317
13985W        W30059  16.219   6.408   0.411  0.2732  0.0271  0.2122
13986W        W30060   0.983  17.230   1.916  0.0270  0.0469 -0.0732
13987W        W30061  18.961   0.240  12.875 -0.0219 -0.0529  0.1080
13988W        W30062  17.535  12.841   2.111 -0.1367 -0.0798 -0.0995
13989W        W30063  13.919   5.839  14.775  0.2367 -0.2637  0.1855
13990W        W30064   5.276  18.327   4.034  0.0045  0.0107  0.0407
13991W        W30065   1.943  17.240  11.391  0.0002 -0.1682  0.1428
13992W        W30066  11.787  11.908  11.227  0.0666  0.4582 -0.0677
13993W        W30067  15.493  14.073  12.424  0.0297  0.1106  0.0616
13994W        W30068   3.796   5.546  11.224  0.2279  0.0031  0.1387
13995W        W30069  10.620  17.901   4.692 -0.1651  0.0868  0.1497
13996W        W30070   8.061   0.097   4.581  0.1241 -0.2289 -0.0514
13997W        W30071   4.282  15.470  11.177  0.1102  0.3394  0.1232
13998W        W30072   0.121   1.997  11.749 -0.0698  0.0063 -0.0872
13999W        W30073   8.922  15.073  12.360 -0.3216 -0.0736 -0.1121
14000W        W30074   4.355   0.498  10.405 -0.3077 -0.0356 -0.3988
14001W        W30075  13.002   2.136   4.066  0.0277  0.0523 -0.2759
14002W        W30076   5.244  16.480  14.536 -0.1868 -0.0177 -0.0853
14003W        W30077   4.541  10.397  12.133  0.2647  0.3816  0.6355
14004W        W30078   4.787   1.196  12.531 -0.1245  0.1430  0.2073
14005W        W30079   2.071  13.435  10.474 -0.4147  0.3984 -0.0347
14006W        W30080   7.931   1.174   3.715  0.1828  0.1383 -0.1459
14007W        W30081   5.583  17.527   0.233  0.1423 -0.1026  0.0854
14008W        W30082   8.234   9.004  10.436 -0.2402  0.1082 -0.0117
14009W        W30083   4.811  18.027  10.509 -0.0687 -0.1595  0.1205
14010W        W30084   1.268   0.265   2.598  0.2548  0.1319  0.4933
14011W        W30085   5.369  10.580   4.726 -0.2090 -0.1375  0.2074
14012W        W30086  12.002  14.799  10.251  0.2422  0.0137 -0.1040
14013W        W30087  15.259  10.363  14.802  0.0387 -0.1908  0.5128
14014W        W30088   5.086   5.435  14.323 -0.0621 -0.2232  0.2386
14015W        W30089  11.540   5.456  13.316 -0.0047 -0.1662 -0.0552
14016W        W30090  10.134  18.816  11.340 -0.0739 -0.2335 -0.1275
14017W        W30091  10.044   7.073   0.578  0.0918 -0.0019 -0.0201
14018W        W30092   3.800  15.325  14.389  0.2399  0.1804  0.4525
14019W        W30093  12.378  11.524  14.566 -0.1418  0.1015  0.0289
14020W        W30094  17.093  16.399   2.932 -0.2576 -0.0657 -0.0548
14021W        W30095   0.420   8.304  13.038 -0.2013  0.3386  0.2449
14022W        W30096  15.988   8.532   2.728  0.0345  0.3016  0.1820
14023W        W30097  11.018  12.413   0.830 -0.3300 -0.0624  0.1485
14024W        W30098  11.717  14.507  13.525 -0.2062 -0.2430 -0.0143
14025W        W30099  11.363  14.411   1.734  0.2211 -0.0427 -0.0551
14026W        W30100   4.922   3.595   4.128  0.0663 -0.1409 -0.1548
14027W        W30101   7.888   2.023  14.729  0.0270  0.2357 -0.0631
14028W        W30102  18.093   5.944   1.936 -0.2675 -0.0604 -0.3935
14029W        W30103   5.425  15.206  12.403 -0.2262  0.1517 -0.3375
14030W        W30104   1.628   0.014  14.442 -0.2174 -0.1325  0.1568
14031W        W30105  10.588   3.688  11.141  0.4152 -0.1467  0.1839
14032W        W30106   7.004  11.683  12.511 -0.1893  0.2180 -0.0466
14033W        W30107  17.722   6.510   2.044 -0.0551 -0.0732 -0.2192
14034W        W30108   5.754   7.529   4.248 -0.0446 -0.1360  0.0177
14035W        W30109   7.019   7.511   0.383 -0.1833 -0.0089  0.0775
14036W        W30110  18.708   2.100  15.000 -0.5256  0.3741 -0.0098
14037W        W30111  11.291   3.432  14.346 -0.0051 -0.0660  0.5658
14038W        W30112  19.257  10.112  11.751 -0.1608 -0.1468  0.0543
14039W        W30113   0.004   8.439   0.399 -0.0937  0.0630  0.4362
14040W        W30114   2.729   7.764  11.821 -0.2565 -0.2471  0.0975
14041W        W30115  11.162   0.642   1.348 -0.2234  0.4522  0.3573
14042W        W30116   9.405   9.524   3.725 -0.4476  0.0934 -0.1636
14043W        W30117   4.498   1.966  12.857 -0.1467  0.1387  0.2537
14044W        W30118   1.643   9.817   4.916 -0.1551  0.0437  0.3383
14045W        W30119  17.241   2.529  13.306  0.1278  0.1576  0.2423
14046W        W30120   4.584  14.815  14.037  0.1300  0.1517  0.1684
14047W        W30121   9.714  18.721  10.831  0.0517  0.5469  0.0321
14048W        W30122  11.948  13.982   2.574 -0.1545 -0.3332 -0.0071
14049W        W30123   2.530   9.706  14.670 -0.1560 -0.1337 -0.2900
14050W        W30124  10.265  11.457  14.204 -0.1124 -0.1520  0.3443
14051W        W30125   9.113  14.180  12.632 -0.0622  0.0042 -0.0597
14052W        W30126   3.646  12.928  10.640  0.1930  0.2960  0.0185
14053W        W30127   7.457  19.231  14.164  0.0731  0.1136  0.0221
14054W        W30128   0.522   7.272  12.893  0.0872 -0.5714  0.0144
14055W        W30129   6.960   4.443  12.284  0.0423 -0.1712  0.3466
14056W        W30130   7.888   2.533   2.665  0.1065  0.0169 -0.2572
14057W        W30131  12.178  14.525   0.024 -0.0985 -0.3103 -0.1715
14058W        W30132   8.861  12.662   3.642  0.1333 -0.1124  0.1424
14059W        W30133   9.778  10.520  12.182 -0.1018  0.2187 -0.0650
14060W        W30134   6.288   0.802   4.711  0.1565 -0.3527  0.0112
14061W        W30135  12.807   1.429   0.291  0.0495 -0.0685  0.0465
14062W        W30136  11.177   1.906   1.003 -0.0447 -0.0399 -0.1981
14063W        W30137  13.968  18.310   0.702 -0.1825 -0.0868 -0.1492
14064W        W30138  17.539   8.716   0.309 -0.2434 -0.3238  0.2518
14065W        W30139  19.228   0.156   1.976 -0.0167 -0.1451  0.0923
14066W        W30140  10.592  11.655   0.374  0.3173  0.0362 -0.1075
14067W        W30141   6.415   2.147   0.363 -0.3828  0.1708  0.3320
14068W        W30142   2.799  18.344   1.831 -0.2112 -0.2314 -0.1652
14069W        W30143  16.396  10.258  13.407 -0.0020  0.0104 -0.0827
14070W        W30144  10.876   2.118   1.922 -0.0184  0.2489  0.3219
14071W        W30145  15.955  16.593   2.464 -0.1688 -0.0043  0.1216
14072W        W30146   4.362   5.262  13.699  0.1512  0.3225 -0.0658
14073W        W30147  11.421   9.184   0.552 -0.0960  0.1015 -0.0535
14074W        W30148  13.430   8.187  10.440  0.0285 -0.1108 -0.0639
14075W        W30149   4.064   8.829   2.050  0.2437 -0.3339  0.5013
14076W        W30150  16.396   4.776  14.552  0.0345  0.1929 -0.4099
14077W        W30151   4.319   5.277   3.696 -0.2223  0.0273 -0.3521
14078W        W30152   1.000  11.310   1.695 -0.0320  0.2117  0.3690
14079W        W30153   1.525   4.562   3.165  0.2435 -0.0898  0.2974
14080W        W30154  15.292   9.426  11.901  0.0662 -0.2386 -0.0801
14081W        W30155  18.636   4.543   3.598  0.1691 -0.3031 -0.0027
14082W        W30156  15.459   2.210  11.454 -0.2221 -0.1198 -0.0844
14083W        W30157  16.472  14.029   1.051  0.3211 -0.2911 -0.1126
14084W        W30158  10.237   3.961  11.883  0.0833 -0.1385  0.1288
14085W        W30159  14.689   9.611   3.107 -0.2027  0.1474 -0.4927
14086W        W30160  16.069   2.033  14.178 -0.1555 -0.1152  0.2000
14087W        W30161  10.810   6.132  14.789  0.3097 -0.0327  0.0706
14088W        W30162   5.706  15.229  13.926  0.0867 -0.2304 -0.2997
14089W        W30163   4.252  12.180  13.340  0.3003 -0.0201 -0.2438
14090W        W30164  12.894  16.080   0.122  0.2562 -0.0236  0.0857
14091W        W30165   2.810   6.771  13.532  0.0938 -0.1637 -0.0500
14092W        W30166   2.785  18.739   4.750  0.2144  0.1244 -0.2397
14093W        W30167  16.913  19.185   2.380  0.1877  0.3134  0.1357
14094W        W30168   8.188   8.127   3.912 -0.1645  0.0066 -0.0846
14095W        W30169   2.084   7.077   0.439 -0.1626 -0.1557  0.0209
14096W        W30170   5.516   5.660   0.017 -0.3648 -0.1236 -0.1862
14097W        W30171  13.714  16.433   4.351  0.0233  0.0653 -0.2883
14098W        W30172  10.384   0.847  13.947 -0.0282 -0.3770 -0.1020
14099W        W30173   2.604   4.928   4.643 -0.2177  0.0349 -0.1843
14100W        W30174   9.841   2.333  14.235 -0.1309 -0.2324 -0.2829
14101W        W30175   1.711  15.345   0.440  0.2635  0.0729  0.1756
14102W        W30176  14.154  13.243  12.589 -0.1234 -0.0532 -0.2725
14103W        W30177  17.369  18.208  10.812 -0.1326 -0.1518 -0.0706
14104W        W30178   6.816   6.603  10.700  0.1542  0.0016 -0.1723
14105W        W30179  14.853   9.118   4.834  0.0450 -0.1927 -0.0507
14106W        W30180  15.811   5.298   5.774 -0.1061 -0.1354  0.1813
14107W        W30181   3.704   4.919  11.000 -0.1742  0.2119 -0.1854
14108W        W30182   4.780   2.469   9.902  0.1965  0.0431 -0.0543
14109W        W30183   3.556   4.073   3.886  0.1238  0.0148  0.0514
14110W        W30184   0.161   6.198  10.335 -0.0123  0.1568 -0.0350
14111W        W30185   8.713   8.028   3.563  0.0488  0.2845  0.1013
14112W        W30186  18.607   0.277   4.397 -0.0072 -0.1196 -0.1981
14113W        W30187   0.939   1.898   0.221  0.2637  0.1137  0.1659
14114W        W30188   8.160   7.442   3.598  0.0179  0.0901  0.1316
14115W        W30189  18.257   6.222   0.425  0.0262 -0.3188  0.0644
14116W        W30190  11.323   3.845   5.293  0.0736  0.3062 -0.1488
14117W        W30191  13.602   6.280   0.734  0.3125  0.3338 -0.1130
14118W        W30192   3.177   5.162   4.002  0.3696  0.0094 -0.1316
14119W        W30193   5.886   4.995  11.705  0.0696 -0.4281  0.2133
14120W        W30194  15.320   0.193  11.188  0.1562 -0.3300 -0.0806
14121W        W30195   1.460  15.621   3.768 -0.1111 -0.0898  0.2563
14122W        W30196   7.268  15.289  14.170 -0.3208 -0.1143 -0.1898
14123W        W30197   8.209   9.908  11.680  0.0779 -0.2696 -0.0493
14124W        W30198  10.021   9.819   0.097  0.1749  0.0091  0.0498
14125W        W30199  11.713   8.239   3.807  0.1754 -0.0046 -0.1532
14126W        W30200  17.691   0.930   0.366  0.0427  0.1775  0.0795
14127W        W30201  17.063   5.365   4.658 -0.2844 -0.0392  0.1251
14128W        W30202   8.793  17.251   2.330 -0.1475  0.0399 -0.1362
14129W        W30203   2.267  16.255  13.219  0.2620 -0.0550 -0.2761
14130W        W30204  15.443  18.438   2.031  0.0503  0.3831 -0.0134
14131W        W30205   4.465  19.303  12.018  0.1656 -0.0718 -0.3581
14132W        W30206  15.079   0.369  14.340  0.1597 -0.1903 -0.0041
14133W        W30207  19.248  16.862   0.173  0.0998  0.0952 -0.1744
14134W        W30208   9.704  12.901   9.776  0.2038  0.0072  0.0280
14135W        W30209   3.183   3.143  11.791  0.0857  0.1806  0.1476
14136W        W30210  10.794  12.936  14.030 -0.1936  0.0404 -0.0535
14137W        W30211  14.519  16.729  12.901 -0.2326  0.0502 -0.8159
14138W        W30212   0.021  11.313   2.677 -0.1974  0.2981  0.0473
14139W        W30213   0.261   0.793   3.363 -0.1275 -0.0806  0.6045
14140W        W30214  17.402   1.776   2.762  0.1598  0.0894  0.2427
14141W        W30215   8.092   2.114   2.880 -0.3067  0.1610 -0.1282
14142W        W30216  10.422  11.650  14.720  0.1355 -0.3189  0.0918
14143W        W30217  13.271   1.948  10.834 -0.1802  0.1191 -0.1296
14144W        W30218  12.603   2.280   3.376  0.1822  0.0933  0.1561
14145W        W30219   5.243   9.872   0.777 -0.0444  0.1619  0.0313
14146W        W30220  16.550   3.827  14.433 -0.0352  0.2210 -0.0653
14147W        W30221   2.186   2.887   1.524 -0.1236 -0.0908  0.0406
14148W        W30222  14.367   3.490   3.681 -0.3109  0.1444 -0.1947
14149W        W30223   4.802   3.427   2.305  0.1053 -0.1566 -0.3876
14150W        W30224  15.091   4.083   9.567 -0.0091 -0.0627  0.3326
14151W        W30225   2.023  10.161   4.692  0.2933  0.2223  0.1237
14152W        W30226  12.674   4.557   1.303  0.0172 -0.0905  0.2772
14153W        W30227  17.271  10.824  12.181  0.3051 -0.1380 -0.0318
14154W        W30228   0.052   4.182   4.397  0.0738  0.1053  0.0315
14155W        W30229  11.589   8.544  12.301 -0.0029 -0.0484  0.0603
14156W        W30230   6.183   6.489   1.819 -0.1291 -0.0994  0.1761
14157W        W30231   1.954  16.679  10.045 -0.0818  0.0733  0.0625
14158W        W30232   0.708  11.822   4.273 -0.1380  0.1592  0.1635
14159W        W30233   7.387  16.056  10.774 -0.0949 -0.0040 -0.1559
14160W        W30234  18.043  16.158  11.966  0.0716  0.2356 -0.1072
14161W        W30235  14.435   1.191   1.602  0.3008 -0.0047 -0.1099
14162W        W30236  18.194  18.701   0.102 -0.2217  0.1547  0.0141
14163W        W30237   3.452   0.161   0.590  0.2442  0.1749  0.1235
14164W        W30238   3.772   6.362   2.221 -0.4514 -0.0947  0.1586
14165W        W30239   4.582   3.531  10.372  0.0663 -0.0048  0.1252
14166W        W30240   5.297  18.295  14.712 -0.1003  0.1589 -0.1239
14167W        W30241  10.407  17.443  14.990 -0.0498  0.0554 -0.2219
14168W        W30242   2.397   0.543  14.791 -0.2344  0.1094  0.2308
14169W        W30243   4.966  14.391   3.022  0.3180 -0.1157 -0.2108
14170W        W30244   3.898  15.863   2.972  0.0593 -0.2145 -0.0864
14171W        W30245   6.869   2.927   3.779 -0.3096  0.0572 -0.0394
14172W        W30246  13.873  15.796  14.098  0.1664 -0.3722 -0.4789
14173W        W30247   8.228   8.947   3.393 -0.0968  0.1055  0.1702
14174W        W30248  12.290  16.057  11.367 -0.1364  0.0484  0.1629
14175W        W30249   7.252  12.029  14.787  0.1326 -0.4683 -0.0006
14176W        W30250  19.115  13.573  10.920  0.1346  0.5653 -0.0555
14177W        W30251   0.906   3.535   4.326  0.0232  0.0829 -0.0029
14178W        W30252   1.646  17.301   2.490  0.4409  0.0898 -0.1095
14179W        W30253   9.881   9.228   9.819  0.1786 -0.3186  0.1074
14180W        W30254  14.216  14.543   2.531  0.2557 -0.1514 -0.1237
14181W        W30255  13.748   6.898   5.510  0.1421  0.0032  0.2281
14182W        W30256  18.675   9.075   2.966 -0.0550 -0.0525 -0.1337
14183W        W30257  16.628   5.778  11.636  0.4064  0.4088  0.2435
14184W        W30258   1.174  16.875  12.753 -0.1805 -0.0777 -0.0947
14185W        W30259  15.378  12.141  10.035  0.1339 -0.3806  0.1958
14186W        W30260   2.775  19.243   1.883 -0.1285  0.2849 -0.1400
14187W        W30261  15.835  13.803   5.265  0.1047  0.1767  0.2593
14188W        W30262   8.923  11.521   0.115 -0.4278  0.1114  0.0338
14189W        W30263  15.613  13.973   1.909  0.2363 -0.2127 -0.2685
14190W        W30264   1.826   1.805  12.379 -0.4402  0.3252 -0.0677
14191W        W30265  19.192  11.255  12.098  0.0467 -0.0708 -0.0179
14192W        W30266   5.581  15.236   0.129  0.1719 -0.2493  0.3041
14193W        W30267   2.633  18.470   0.868  0.0021 -0.3677  0.0746
14194W        W30268  11.832  17.152   4.394  0.2577  0.2084 -0.2149
14195W        W30269  11.957  12.826   3.157 -0.1592  0.0863  0.2688
14196W        W30270  18.781  13.880   4.770 -0.0323  0.0477  0.2770
14197W        W30271   1.210   7.606  14.122 -0.0056  0.2724 -0.2566
14198W        W30272   4.927   6.203  14.876  0.1172 -0.0272  0.4338
14199W        W30273   2.908  14.808   1.140 -0.2590 -0.0146 -0.1259
14200W        W30274   6.318   3.840   2.806  0.1201  0.1224 -0.2774
14201W        W30275  18.822   8.584   2.318  0.0709  0.0511  0.0218
14202W        W30276   5.712   9.787  14.605  0.2171 -0.1739  0.4647
14203W        W30277  11.338  14.656  12.625  0.0876 -0.0837 -0.0351
14204W        W30278   1.467   7.355  10.532 -0.1395  0.1177  0.4344
14205W        W30279   0.298  15.822  10.890 -0.0765  0.0226 -0.0596
14206W        W30280   4.235   3.745   9.284 -0.1262 -0.1006 -0.0825
14207W        W30281  17.574   1.429  12.208 -0.2771 -0.3062 -0.0088
14208W        W30282   6.888   7.625  10.504  0.2202 -0.2184 -0.2468
14209W        W30283  13.717   3.726  11.248 -0.0878  0.1037 -0.1778
14210W        W30284  12.368   7.073   3.934  0.1873  0.1313  0.0884
14211W        W30285   8.518   9.061  13.760 -0.2085 -0.0177  0.1037
14212W        W30286   5.124  15.447   0.163 -0.0814  0.1111  0.0439
14213W        W30287   5.737  11.850  11.102  0.1107  0.0048 -0.0951
14214W        W30288   2.671   4.453  12.036 -0.2650 -0.2613 -0.0592
14215W        W30289  13.701  16.142   0.630  0.1206 -0.2418 -0.2309
14216W        W30290   8.681  16.215  10.380 -0.2442  0.2666 -0.1841
14217W        W30291  10.234   2.035   0.534 -0.1490  0.3928 -0.0079
14218W        W30292  16.203   2.970  10.028 -0.2535  0.0956  0.0936
14219W        W30293  17.461   9.033   5.216  0.1689 -0.1918 -0.1585
14220W        W30294   0.175  17.768  14.540  0.0763 -0.0992  0.1462
14221W        W30295   8.742  17.676   3.994 -0.3458  0.0829 -0.0700
14222W        W30296   2.201  16.515  13.900  0.3732 -0.1034  0.2013
14223W        W30297  14.404   7.438   3.282 -0.0497 -0.0312 -0.0631
14224W        W30298  12.305  14.385  12.199  0.0506 -0.0950 -0.0679
14225W        W30299   7.888  18.984  10.726  0.1378 -0.0205 -0.2834
14226W        W30300   3.331   7.356   0.696  0.1801  0.0177 -0.1924
14227W        W30301   5.225  17.699  13.955  0.1487 -0.0592  0.2237
14228W        W30302  16.032   7.818   1.027  0.0807 -0.2105  0.0894
14229W        W30303  17.066  18.204  13.550 -0.1128 -0.0658  0.0819
14230W        W30304  13.248  10.160  12.665  0.2547 -0.2939 -0.1739
14231W        W30305  14.629   2.416  13.396 -0.1252 -0.3010 -0.1353
14232W        W30306  13.945  12.139  11.710  0.0175  0.1281  0.1002
14233W        W30307   5.474  19.260  11.105 -0.0749 -0.0391  0.0226
14234W        W30308   3.224   6.042  12.408 -0.0899 -0.2067 -0.1446
14235W        W30309  12.215   1.957  11.737 -0.0851 -0.1661 -0.2929
14236W        W30310  13.312  10.255  14.840  0.0043 -0.1971 -0.5071
14237W        W30311  10.547   1.825  11.193 -0.1767  0.0226 -0.0360
14238W        W30312   1.122  17.816  10.395 -0.0911 -0.3421 -0.1043
14239W        W30313  15.629  15.253   2.071 -0.0182  0.0714 -0.0727
14240W        W30314   1.090  14.348  10.738  0.1552 -0.2416 -0.0426
14241W        W30315  10.679  13.631   3.097 -0.5675  0.4436  0.2906
14242W        W30316  16.490   8.326   2.795  0.2181  0.0401  0.2356
14243W        W30317  11.798   1.736  14.964  0.4540 -0.1229 -0.0294
14244W        W30318  13.090   5.466  10.360  0.1810  0.0647 -0.2588
14245W        W30319  14.438  16.543   0.711 -0.0157  0.0024  0.0132
14246W        W30320   1.260   6.514  13.951 -0.2373 -0.1964  0.2428
14247W        W30321   1.875  14.162   2.578 -0.1528  0.1722  0.1658
14248W        W30322   6.891  10.293  13.332 -0.1448  0.1796 -0.1273
14249W        W30323   5.633   6.819   0.427 -0.1756  0.2591  0.0946
14250W        W30324  13.291   8.068   0.634  0.0860 -0.0855  0.3874
14251W        W30325   9.359   7.455  13.498 -0.1008  0.3196 -0.3191
14252W        W30326  18.527   7.590  11.301 -0.1539  0.1814 -0.4501
14253W        W30327  17.658  13.071   0.744  0.0806  0.0101 -0.1393
14254W        W30328   3.114  14.094  14.328 -0.0897  0.1999 -0.1883
14255W        W30329  10.644  11.662   2.540  0.1138  0.1008 -0.2328
14256W        W30330  18.766  16.334   3.397  0.0079 -0.0161 -0.1288
14257W        W30331   6.653   0.076   3.598  0.0682  0.2824  0.0032
14258W        W30332  15.892   3.005   6.160 -0.0389 -0.0068  0.3283
14259W        W30333  17.785  17.960  12.966  0.0373 -0.1787 -0.0972
14260W        W30334  13.918  14.460   2.962  0.0376  0.2842 -0.6181
14261W        W30335  18.460   5.616   2.215 -0.4147 -0.1044  0.2837
14262W        W30336   9.051  12.521   1.406 -0.1212 -0.3246 -0.1702
14263W        W30337  16.736   2.106   1.345  0.0099  0.2613  0.1059
14264W        W30338  15.543   3.345  12.795 -0.0005  0.2240 -0.0268
14265W        W30339   3.676   2.303  12.605  0.3362  0.4041  0.0296
14266W        W30340   7.773   8.741   4.953 -0.2619 -0.0861 -0.3513
14267W        W30341   1.178   5.977   5.037  0.0439 -0.2705 -0.0919
14268W        W30342  18.246  14.486  13.421 -0.1255 -0.0831  0.2065
14269W        W30343  18.093  16.553  14.064  0.1873 -0.0063  0.1286
14270W        W30344   8.785   3.863   9.531  0.3763  0.2457 -0.1080
14271W        W30345  17.140  18.575  13.302 -0.3014  0.0598  0.2598
14272W        W30346  14.963  11.633   5.498 -0.2268  0.2546 -0.4113
14273W        W30347  16.283  10.782   2.357  0.1926  0.3368  0.0349
14274W        W30348  14.224   5.796   2.013 -0.0310  0.1644  0.2761
14275W        W30349   9.700  17.867  10.615 -0.1159  0.1102  0.0511
14276W        W30350   9.197  12.466  11.446  0.3793 -0.0395  0.1621
14277W        W30351  15.525  15.931  10.913 -0.3241  0.0049 -0.0654
14278W        W30352   2.568   6.339  13.581 -0.0895  0.0061 -0.3972
14279W        W30353   5.765   2.950   9.175  0.2025 -0.0531  0.3098
14280W        W30354  11.467  17.795  14.508  0.2630  0.0485 -0.7380
14281W        W30355  17.534  12.598   0.718 -0.2559 -0.0737  0.2628
14282W        W30356  19.064  13.385  14.194  0.0897  0.3000 -0.0573
14283W        W30357  16.073  14.377  10.915  0.0890  0.0801  0.2884
14284W        W30358  12.139   7.025   4.789  0.0928 -0.0846 -0.0357
14285W        W30359   7.445   7.595   1.227  0.1446 -0.1411 -0.3447
14286W        W30360   3.108   6.829   2.635 -0.0996 -0.1538  0.0534
14287W        W30361   8.430   2.751  10.683 -0.1253  0.1694 -0.1698
14288W        W30362   7.822  16.969   3.355 -0.3711 -0.1144 -0.0637
14289W        W30363   3.499  17.216   1.066 -0.0408  0.0030 -0.0905
14290W        W30364   6.510  18.341   2.336  0.1871  0.0951 -0.0472
14291W        W30365   5.304   0.536   0.869 -0.1506  0.0769 -0.0737
14292W        W30366   3.157  18.716  14.968 -0.2899  0.2160 -0.1357
14293W        W30367   3.933  19.060  10.904  0.2836  0.1756 -0.1378
14294W        W30368   7.157   2.489  14.424 -0.0923  0.2936 -0.1377
14295W        W30369  15.535   0.632   2.138 -0.3007 -0.2648  0.3374
14296W        W30370   6.822  12.642   1.782 -0.0632  0.0252  0.7014
14297W        W30371   5.427   6.996  12.620 -0.1017 -0.0354  0.0075
14298W        W30372  16.333  19.103  10.370 -0.0414  0.2134  0.2021
14299W        W30373   6.855  10.487  12.186 -0.0695 -0.2616 -0.0342
14300W        W30374  17.466  10.125  14.226 -0.1639  0.0331  0.2396
14301W        W30375   6.002   7.923  12.114 -0.0452  0.2165 -0.1303
14302W        W30376   3.148   6.273   3.632  0.0572  0.2769 -0.1460
14303W        W30377   4.218  17.944   2.183 -0.4710  0.2041  0.4310
14304W        W30378  17.412   5.110  10.491  0.0046  0.1796  0.1395
14305W        W30379   5.170   9.180   4.900 -0.1370  0.1939  0.2378
14306W        W30380  17.537  16.168   3.323 -0.1722 -0.1766 -0.1221
14307W        W30381   6.456   8.608  14.571 -0.3055  0.0775  0.3384
14308W        W30382   2.351   9.087  10.964  0.1089 -0.2535  0.0735
14309W        W30383  18.533   0.088   2.885 -0.3583 -0.0370 -0.0073
14310W        W30384   9.781  16.160  14.493  0.2092  0.1220  0.2742
14311W        W30385   8.954  13.675  12.437  0.3142  0.2755 -0.0192
14312W        W30386   1.080   0.278  11.819 -0.1518 -0.2597 -0.0793
14313W        W30387   4.866  11.785  11.022 -0.2585  0.0747  0.0992
14314W        W30388  12.301  10.335  12.741  0.1657 -0.3769 -0.0177
14315W        W30389   7.864  17.819   3.888 -0.0401  0.2933 -0.0790
14316W        W30390  19.097   7.674  13.529 -0.1734 -0.0856  0.0858
14317W        W30391   4.290  10.907   3.905  0.1809  0.0165  0.0449
14318W        W30392   8.943   6.758  10.792  0.3208 -0.0045  0.3743
14319W        W30393  10.679  14.146   1.234 -0.1332  0.1756 -0.0154
14320W        W30394   1.116   4.196   0.164 -0.0257  0.1742  0.2161
14321W        W30395  19.106   3.161  11.597  0.2392  0.0642  0.4212
14322W        W30396  14.875   7.099   4.501  0.0523  0.1077 -0.2045
14323W        W30397   0.911   7.025  11.615  0.3417  0.0032  0.0973
14324W        W30398  10.247  10.610  13.512 -0.0325 -0.1516 -0.0240
14325W        W30399  11.562   7.859   2.286  0.0145 -0.0908 -0.0556
14326W        W30400  16.091   6.673  12.133  0.0142 -0.0938  0.0529
14327W        W30401   9.518   2.156  10.768  0.1039  0.2533 -0.1468
14328W        W30402   3.070   8.966   5.776 -0.0703 -0.2134 -0.0462
14329W        W30403  11.077   7.685  14.085  0.1499  0.0132  0.1031
14330W        W30404   0.911   2.335   5.305 -0.0195  0.1364  0.0636
14331W        W30405  17.938   3.069  11.328  0.2196 -0.0781 -0.0113
14332W        W30406   2.335   3.779   5.130  0.0368  0.1182  0.3527
14333W        W30407  16.820   2.094   5.179 -0.1298  0.0806  0.0760
14334W        W30408   1.889   2.638   0.220 -0.1709  0.1231  0.0750
14335W        W30409   5.794   7.339   2.804 -0.1632 -0.1545 -0.2855
14336W        W30410   9.275   4.449   2.998 -0.1380  0.0156 -0.1589
14337W        W30411   1.288  13.487   0.131  0.2544  0.0244  0.1962
14338W        W30412  12.588   0.466   2.202 -0.1382 -0.3464 -0.0378
14339W        W30413  18.932   4.408   1.661  0.1915  0.1196  0.0925
14340W        W30414   0.662   2.215   2.757  0.0760  0.1067 -0.0662
14341W        W30415   8.796  17.679   2.556 -0.0167 -0.1317 -0.5589
14342W        W30416  13.301  10.093   1.959 -0.1097  0.3698 -0.2737
14343W        W30417  19.215   8.565  11.617  0.1084  0.0346 -0.0649
14344W        W30418  17.556   3.903  12.357 -0.0409  0.2204 -0.2933
14345W        W30419  17.500  15.823   1.330 -0.0012 -0.3636  0.3298
14346W        W30420   1.884  13.758  14.320 -0.1596  0.2134 -0.0213
14347W        W30421   1.310  11.861  13.909 -0.0189 -0.1795 -0.0422
14348W        W30422   7.909  13.729   0.252 -0.2344 -0.0390  0.0030
14349W        W30423  17.948   3.767  11.980 -0.3316 -0.1289 -0.2154
14350W        W30424  11.800   0.028  13.536  0.2639  0.0969 -0.1872
14351W        W30425   1.449   2.423  11.149 -0.2668 -0.1462 -0.3975
14352W        W30426  11.294   6.691  14.308  0.2005  0.0174  0.0332
14353W        W30427  11.500   2.946  13.270 -0.0090 -0.0928 -0.1259
14354W        W30428  19.306   9.030  11.222  0.0653 -0.4481 -0.0912
14355W        W30429  18.498  13.209  11.022  0.1062 -0.3167  0.0151
14356W        W30430   2.138  14.698   0.153 -0.2851 -0.1160 -0.0923
14357W        W30431  15.365  17.254   5.304 -0.0002 -0.0803 -0.0428
14358W        W30432  17.913   0.204   0.333  0.0214  0.2000 -0.1899
14359W        W30433   5.348  16.452  10.946 -0.0223  0.1162  0.1258
14360W        W30434   2.854   2.975  12.347  0.1673 -0.0680  0.0827
14361W        W30435   4.655   1.822   4.048  0.1059 -0.0810 -0.1079
14362W        W30436   7.117  16.393   0.015  0.1021  0.1403  0.0397
14363W        W30437  10.558   7.631   2.824 -0.1171 -0.1082  0.1832
14364W        W30438   7.081   5.346   3.251  0.0155 -0.3132  0.1992
14365W        W30439   5.314   3.805   0.170  0.2945 -0.0386 -0.0324
14366W        W30440  15.211  12.595  10.337 -0.0506  0.4358 -0.1878
14367W        W30441  16.945  17.846   1.960  0.1046 -0.2892 -0.1848
14368W        W30442  14.140  10.377  12.391 -0.0557  0.1576 -0.1340
14369W        W30443   0.489   7.299   0.044 -0.0772 -0.0557 -0.2378
14370W        W30444  11.737   2.363  14.189 -0.1701  0.4490 -0.0428
14371W        W30445  18.958   3.458  14.984 -0.0555 -0.2942  0.1451
14372W        W30446   6.865  17.604   3.238 -0.0852 -0.3091 -0.0970
14373W        W30447   2.410   4.826   3.420 -0.2055 -0.2015  0.0812
14374W        W30448  18.906   5.212   5.767  0.0733 -0.0726  0.0616
14375W        W30449   0.576  19.274   1.645 -0.0256  0.4596 -0.1381
14376W        W30450   8.694   7.039   0.321 -0.2867 -0.1949  0.0885
14377W        W30451   9.898   1.084   2.325 -0.0248 -0.2148  0.3577
14378W        W30452   0.953   8.933   2.813 -0.2435  0.3922 -0.0247
14379W        W30453   5.042  12.877   2.029 -0.0075  0.3709 -0.2003
14380W        W30454   4.043  15.709  14.189 -0.5184 -0.0361  0.0050
14381W        W30455   7.752   5.665  11.243 -0.1207 -0.1888  0.0285
14382W        W30456  11.835  19.002   0.520  0.2760  0.2782  0.3914
14383W        W30457   8.903  16.507   4.139  0.0467  0.1410  0.1049
14384W        W30458   7.381   4.852   0.101 -0.0199 -0.2793  0.0377
14385W        W30459  14.097  12.495  13.766  0.0697 -0.1084  0.0794
14386W        W30460   1.073  14.812  12.012 -0.0646  0.1380 -0.2647
14387W        W30461   5.488   0.210   3.950  0.3957 -0.0408  0.2105
14388W        W30462   1.131   3.450  11.907 -0.1941 -0.2213  0.0858
14389W        W30463  17.053   1.332   1.986  0.3361 -0.0413 -0.2048
14390W        W30464   4.355  14.174   3.921 -0.1069  0.0481 -0.0443
14391W        W30465   4.696   9.907   2.405  0.0818 -0.1432  0.0865
14392W        W30466  12.062  15.832   2.755 -0.0676  0.1258  0.1952
14393W        W30467   9.219   9.923   3.364 -0.0393 -0.4237 -0.0913
14394W        W30468  12.231  18.727  13.967 -0.3478 -0.1766  0.0011
14395W        W30469   6.060  15.685  13.272  0.1355  0.0071 -0.1170
14396W        W30470  13.703  11.575  10.965 -0.0965 -0.1441 -0.1033
14397W        W30471  14.924  16.338   5.215  0.0995 -0.0855 -0.1391
14398W        W30472  11.981   4.732   0.478 -0.2401 -0.2399 -0.1611
14399W        W30473  18.729   0.942   2.580 -0.2560 -0.2432  0.0725
14400W        W30474   5.394  17.691  12.198 -0.2949  0.1218 -0.2493
14401W        W30475  18.512  10.099   0.743  0.4395  0.1438  0.4826
14402W        W30476   0.016  10.394   4.463  0.1442 -0.0451  0.0243
14403W        W30477   6.021  18.236  13.996 -0.0486  0.0704  0.1124
14404W        W30478   9.156   0.213  13.839 -0.3653  0.2191 -0.1637
14405W        W30479   1.965   5.343  14.707  0.0057 -0.0233 -0.0879
14406W        W30480   4.363  12.476   2.878 -0.2731 -0.2263 -0.3232
14407W        W30481  17.663  17.411   2.006  0.1097  0.0587 -0.0067
14408W        W30482   1.671  17.478  14.536 -0.1630 -0.0293 -0.2329
14409W        W30483  12.630   1.626   3.706 -0.1442  0.4014 -0.1472
14410W        W30484   2.538   5.173  13.536 -0.2298  0.0403  0.1435
14411W        W30485  17.955   1.009  10.608  0.0364  0.1866 -0.1163
14412W        W30486  15.259   5.190   0.540  0.0397 -0.0525 -0.1549
14413W        W30487   8.389   1.981  14.449 -0.1298  0.0356 -0.1281
14414W        W30488   8.600  18.971   0.377 -0.3435 -0.0651 -0.0504
14415W        W30489  15.140  18.390   0.030  0.0833 -0.0030  0.0733
14416W        W30490  12.496   0.135  14.617 -0.0341  0.0040  0.1717
14417W        W30491   9.117  12.202   2.153 -0.4285  0.0459 -0.0975
14418W        W30492  17.466   6.084   5.051  0.0095 -0.2497  0.1061
14419W        W30493  16.529   0.084   3.142  0.0376  0.0070 -0.1796
14420W        W30494   3.173   1.123   1.961 -0.0890  0.2786  0.2245
14421W        W30495  14.366   9.744  12.946  0.0295 -0.1699 -0.2807
14422W        W30496  17.034   4.812  14.391  0.3030 -0.4074  0.0803
14423W        W30497  15.445  13.436   2.807 -0.6091 -0.0559 -0.0949
14424W        W30498   5.217   9.769  14.717 -0.0269  0.3852  0.0934
14425W        W30499  14.143  14.205   1.006  0.2242 -0.1053 -0.0141
14426W        W30500   6.451  15.478  11.889  0.4011  0.1203  0.2141
14427W        W30501  15.932  13.368  14.395 -0.0918 -0.1462 -0.3487
14428W        W30502   9.691   0.189  10.776  0.1472  0.2446  0.0878
14429W        W30503   5.430  11.728   3.112  0.0488 -0.2843  0.0196
14430W        W30504   4.357   1.362   2.281 -0.0502  0.3355 -0.2586
14431W        W30505  10.276  14.333  14.246 -0.0736  0.0508  0.0901
14432W        W30506   0.915  13.237   5.299  0.0867  0.3233  0.2019
14433W        W30507   4.646  17.613  10.684 -0.1423 -0.0431 -0.0720
14434W        W30508   6.955  13.310  12.990 -0.3403  0.3809  0.1317
14435W        W30509  12.590  16.163   4.242 -0.2137  0.3522  0.0601
14436W        W30510   6.071  18.741  13.330  0.0467  0.1596  0.1799
14437W        W30511   3.545  11.292   3.081  0.1025 -0.0399 -0.3345
14438W        W30512  10.232   8.996   2.048  0.0581 -0.0187  0.1420
14439W        W30513   1.320  11.519   0.528  0.0628  0.0626 -0.1584
14440W        W30514   0.109  10.679  12.915 -0.2319 -0.2800  0.0558
14441W        W30515   5.094  13.139   3.070  0.3384  0.1569 -0.3217
14442W        W30516   5.523   7.908  11.823  0.0315 -0.1233  0.2051
14443W        W30517   6.249   0.284   3.300 -0.1360 -0.1879 -0.2465
14444W        W30518   3.099   7.614   6.114  0.0174  0.1988 -0.0444
14445W        W30519   7.222   9.251   2.400 -0.0740 -0.0920 -0.1170
14446W        W30520  11.712  17.571  11.635 -0.0868  0.1309  0.0408
14447W        W30521   3.462   9.976   2.205 -0.1138  0.1006 -0.0405
14448W        W30522   2.118   8.469  11.338  0.0644 -0.1213  0.1045
14449W        W30523   0.637   5.323   3.141 -0.0132 -0.2542  0.0590
14450W        W30524   5.572   1.314  10.601  0.0872  0.0213 -0.3053
14451W        W30525  16.883   0.669  14.001 -0.1108  0.2964 -0.1489
14452W        W30526  19.234   0.409   1.291  0.0873  0.0276  0.0816
14453W        W30527  19.098   1.232   3.446  0.0016  0.2640 -0.2009
14454W        W30528   6.117   0.438   1.910 -0.0274  0.0257 -0.2200
14455W        W30529   3.985  17.002  12.418 -0.1498  0.3435 -0.2894
14456W        W30530   1.251  18.398   1.695  0.2957 -0.3073  0.2248
14457W        W30531  11.700  13.583  11.300  0.1919  0.0560  0.1780
14458W        W30532   5.362   2.350  14.257 -0.1565  0.1192 -0.1290
14459W        W30533  18.010  10.056   2.901  0.1695 -0.1265 -0.1922
14460W        W30534   5.480   7.377   2.419  0.0770 -0.0732 -0.0026
14461W        W30535  17.933   6.821   1.017  0.0750  0.0084 -0.1868
14462W        W30536  16.433   2.583  14.890 -0.0135  0.1694 -0.0132
14463W        W30537  10.870  10.665   0.925 -0.2507 -0.1934  0.1160
14464W        W30538   9.143  10.712  13.823  0.1349 -0.3098 -0.1251
14465W        W30539   4.007   1.398  12.258  0.1277 -0.2520 -0.2541
14466W        W30540   0.983   6.773  14.420 -0.0362  0.0597  0.0465
14467W        W30541  15.593  12.753   3.333  0.0266 -0.0431  0.0516
14468W        W30542  16.928   4.769   5.155  0.0356 -0.0739 -0.1788
14469W        W30543  10.921   2.819   0.656  0.1723  0.0278  0.0514
14470W        W30544   5.742   4.816  14.210 -0.0203 -0.3102 -0.0617
14471W        W30545   2.637   7.574   1.558  0.1448  0.2792 -0.1937
14472W        W30546  14.724   5.123   4.991 -0.4756 -0.0476  0.0590
14473W        W30547  15.638   7.003  12.932 -0.2129 -0.2691  0.3410
14474W        W30548  15.323  16.935  12.376  0.0664  0.2568  0.0335
14475W        W30549  13.244   6.039  12.685 -0.3916  0.0725 -0.2727
14476W        W30550   9.718  13.660   1.868  0.1631 -0.0440  0.1827
14477W        W30551   9.683   6.333   1.133 -0.3335 -0.2648 -0.0585
14478W        W30552  13.772   9.431   4.815 -0.5545 -0.0325  0.0842
14479W        W30553  16.223   9.086  13.420 -0.0608 -0.2819 -0.1155
14480W        W30554   6.513   4.379   0.199  0.2717  0.0361 -0.0282
14481W        W30555  16.854  12.776  14.316 -0.1479 -0.2836  0.0459
14482W        W30556  13.780   1.044  12.956 -0.0120 -0.0597  0.0392
14483W        W30557  11.906  11.394  11.815  0.1969 -0.0114 -0.2149
14484W        W30558   6.809   1.683  12.439  0.1247  0.0862  0.0017
14485W        W30559   9.007  14.238   3.556 -0.0525 -0.0808  0.0300
14486W        W30560   9.452   1.345  14.901  0.2122  0.1904  0.1460
14487W        W30561  18.863   1.128  12.840 -0.1294 -0.2549  0.1935
14488W        W30562   7.809  18.102  13.268  0.1158  0.3477 -0.2815
14489W        W30563   1.977   5.953   1.787  0.0105  0.3061 -0.3730
14490W        W30564  18.623   8.769   1.065  0.1019  0.0607 -0.2445
14491W        W30565  19.163  16.066   1.061  0.0271  0.2168 -0.2131
14492W        W30566  10.898   4.142   3.143  0.0736  0.2057  0.0632
14493W        W30567   8.083   5.037   3.706 -0.0582 -0.1614  0.2789
14494W        W30568   5.469  16.641  14.058  0.4882 -0.1120  0.1441
14495W        W30569   5.974  16.800   3.094  0.0206 -0.0392  0.2720
14496W        W30570   8.268  12.068   2.732 -0.0614  0.1233 -0.3025
14497W        W30571   0.047  15.813  12.125  0.1553 -0.0262  0.0260
14498W        W30572  15.890  16.258  11.038  0.1269 -0.1587 -0.0642
14499W        W30573  18.059   3.315   1.091 -0.2346  0.0775  0.4366
14500W        W30574  15.218   6.559  14.918  0.1214 -0.1384 -0.0760
14501W        W30575  19.100   1.021  11.865 -0.0866  0.0902  0.2047
14502W        W30576   5.735  19.177  12.761  0.2512  0.1446 -0.4756
14503W        W30577   5.092  17.596  12.562 -0.2123  0.4598 -0.3885
14504W        W30578   3.761  10.427  13.623 -0.0468 -0.1230  0.1615
14505W        W30579  12.447  12.122   4.613  0.0133  0.4427 -0.0204
14506W        W30580  11.525   3.851   2.307  0.1678 -0.0145  0.1330
14507W        W30581   8.055   4.141   2.286  0.3032  0.1546  0.1201
14508W        W30582   5.801  14.140  11.866 -0.1256  0.0458  0.5593
14509W        W30583  11.232   6.830  13.014 -0.0647 -0.1778 -0.1379
14510W        W30584   1.505  15.510  14.387  0.1519 -0.1824 -0.1485
14511W        W30585   8.633  10.888   4.100  0.2008  0.1499  0.1493
14512W        W30586  10.367   5.311   4.659 -0.0826  0.1245  0.1309
14513W        W30587  13.860  15.694  10.466  0.3646  0.0582 -0.1239
14514W        W30588   4.531  16.513  14.136 -0.2999  0.0193  0.0775
14515W        W30589   3.602   9.088  14.016 -0.0312  0.1783  0.1375
14516W        W30590  16.078  19.144   0.868 -0.0257  0.1802 -0.1150
14517W        W30591   3.083   5.903   1.564 -0.2503 -0.1180 -0.2740
14518W        W30592   8.977   5.037   4.825 -0.0977  0.1447  0.0433
14519W        W30593  16.169   0.404   3.076 -0.4090 -0.0388  0.1916
14520W        W30594   3.554   7.717  13.771 -0.0903 -0.5326  0.3073
14521W        W30595  16.417  17.859   1.712  0.1747  0.1101 -0.2501
14522W        W30596   1.529   7.936   5.314  0.2124 -0.0143  0.0204
14523W        W30597   0.634  16.944   1.007  0.3660  0.1169 -0.2157
14524W        W30598  16.222   1.151  12.077  0.1196  0.2088  0.3142
14525W        W30599   7.436  17.182   3.991  0.1116  0.1818 -0.0964
14526W        W30600   7.431   1.194  10.789  0.5836 -0.2801  0.0572
14527W        W30601   9.740   8.003   4.448 -0.0346 -0.0840  0.0551
14528W        W30602  12.903  11.852   3.319  0.2664 -0.1685 -0.0005
14529W        W30603   6.054   7.251  12.421 -0.2160  0.0441 -0.1904
14530W        W30604   4.545  19.334   3.471 -0.1870  0.0429  0.2551
14531W        W30605   4.685   4.081  12.708 -0.0827  0.0383  0.1314
14532W        W30606  11.221   5.769   5.004 -0.0522  0.1885 -0.1794
14533W        W30607   9.045  18.495   2.602  0.2505  0.0045  0.1310
14534W        W30608  10.416  16.633  10.614 -0.2748 -0.0600  0.0803
14535W        W30609  18.705  12.051   4.542 -0.1169  0.1279 -0.1855
14536W        W30610   1.828   8.204  11.832  0.1547  0.0323  0.1302
14537W        W30611  11.129   8.612   2.264  0.0586 -0.1690 -0.5028
14538W        W30612   7.421   9.024   1.917  0.1561 -0.3098 -0.0631
14539W        W30613   9.349  11.516   4.047  0.0262  0.1604 -0.0682
14540W        W30614  18.217   1.452  14.012  0.0369  0.0391  0.0581
14541W        W30615  12.905   8.713  11.770 -0.1461  0.2372  0.1202
14542W        W30616   2.258   8.904  13.485 -0.1485  0.1947  0.1948
14543W        W30617   8.949   6.686   0.936  0.0607  0.0865  0.3653
14544W        W30618   4.652  17.776   2.249 -0.3032 -0.2325  0.2126
14545W        W30619  13.578  16.487   9.809  0.0142 -0.0461 -0.0090
14546W        W30620   9.425  12.726  11.799  0.0299 -0.0748  0.2577
14547W        W30621   8.759  16.763  10.461 -0.4161 -0.0714 -0.2869
14548W        W30622   9.102  15.239   4.153 -0.3084 -0.0565  0.1941
14549W        W30623   6.659  15.152   0.048 -0.0068  0.0144 -0.2765
14550W        W30624  14.068  10.451   4.661 -0.2740  0.0743 -0.1055
14551W        W30625   9.237  11.812   3.074  0.2313  0.1081 -0.0326
14552W        W30626  13.771  11.755  11.433 -0.0807  0.2739 -0.1247
14553W        W30627   4.157  19.009  11.584 -0.0798 -0.4331 -0.0122
14554W        W30628   2.831  12.548   4.098  0.0152 -0.0021  0.3048
14555W        W30629  14.322   6.528  14.407  0.1970 -0.0655  0.0445
14556W        W30630  15.384  13.407   9.840 -0.1190 -0.1203  0.0825
14557W        W30631   3.703   4.079  10.459 -0.0378  0.3100  0.1207
14558W        W30632  10.528  12.810  14.898 -0.0736  0.3227 -0.1112
14559W        W30633  15.879   7.047  13.858  0.2021  0.0824  0.1068
14560W        W30634  18.980   8.710  12.057  0.0128  0.1304 -0.4200
14561W        W30635  17.807   3.092   4.323 -0.0767 -0.0330  0.0845
14562W        W30636  15.851   7.078   0.407 -0.4379  0.1691  0.0392
14563W        W30637   4.220  12.374   3.311  0.2075  0.4493 -0.1450
14564W        W30638  18.461  11.035   3.031 -0.2084  0.1411 -0.0524
14565W        W30639  13.103  16.707   9.881  0.2072 -0.1250 -0.0359
14566W        W30640  17.723   5.243  14.859 -0.0205 -0.2551 -0.1392
14567W        W30641  18.910  11.516   5.240 -0.2878 -0.0497 -0.4995
14568W        W30642  12.946  17.493  14.942 -0.0274 -0.1850 -0.2846
14569W        W30643  18.107  13.288   2.879 -0.3164 -0.0677  0.0690
14570W        W30644   3.964  12.439  14.495  0.1903  0.0980 -0.2815
14571W        W30645  15.581   5.137   2.379 -0.3311  0.1262 -0.2698
14572W        W30646  17.141   9.102   0.165 -0.1419 -0.0803 -0.2278
14573W        W30647  10.728   9.772   2.059 -0.0943 -0.0800 -0.2143
14574W        W30648   9.298   7.270   5.565 -0.1024  0.0768  0.0716
14575W        W30649  13.034   7.391  11.522  0.0305 -0.2522 -0.0331
14576W        W30650  18.889   0.544  10.879 -0.1119  0.3080 -0.0802
14577W        W30651  11.048  18.749  10.310 -0.0976  0.0515 -0.1579
14578W        W30652  13.749   2.170   2.096  0.1048  0.2060  0.2211
14579W        W30653  15.736   4.918   0.523  0.3276  0.0360  0.1621
14580W        W30654  16.585   3.682  11.329 -0.2146 -0.1491  0.0490
14581W        W30655   7.330  12.009  14.146  0.1443 -0.0391  0.0141
14582W        W30656  14.852  10.332   1.379 -0.1264 -0.0856  0.2397
14583W        W30657  13.031   7.366   5.327  0.5505  0.1343  0.7153
14584W        W30658   3.110  17.587   4.067 -0.1596  0.2267  0.0388
14585W        W30659   8.154  14.479   0.670 -0.2614 -0.3806 -0.0131
14586W        W30660  18.156   3.257  14.654  0.2961 -0.0123 -0.0725
14587W        W30661   4.932   3.868   2.077 -0.1463  0.0218 -0.1279
14588W        W30662  16.710   4.209  11.316  0.0031 -0.0795 -0.0898
14589W        W30663  13.836  13.274  14.392 -0.1689 -0.2894  0.1597
14590W        W30664   8.137  15.633   9.304  0.0109  0.0336 -0.0571
14591W        W30665   2.227  10.121  14.431 -0.0930 -0.0430  0.0179
14592W        W30666   3.567   7.127   2.570  0.1509  0.1206  0.3702
14593W        W30667  16.954   3.578  13.290  0.0427 -0.4322  0.0789
14594W        W30668   7.190   0.848   2.754  0.2584  0.1057 -0.0891
14595W        W30669   4.263  11.576   2.179  0.4425  0.1490  0.1335
14596W        W30670   8.633  13.329  12.711 -0.2375 -0.2198 -0.1351
14597W        W30671   7.544  10.922  11.550 -0.2677 -0.1388  0.0281
14598W        W30672   5.569  16.433   3.489 -0.1480 -0.2020  0.1142
14599W        W30673   6.583   2.914  13.971 -0.2007  0.0138  0.0241
14600W        W30674   8.694  18.782   1.791 -0.1040  0.0271 -0.0493
14601W        W30675  10.441   0.400   4.009 -0.1255  0.1065  0.0442
14602W        W30676  10.358  14.492   3.706  0.1222  0.0067  0.0269
14603W        W30677   2.197  10.450   2.544  0.0684 -0.0758  0.0449
14604W        W30678   9.855  16.287   4.362 -0.1734  0.0387 -0.0561
14605W        W30679   3.338   8.265   4.879 -0.1087 -0.1493  0.1863
14606W        W30680  16.780  18.697   2.253 -0.0798  0.0711 -0.3552
14607W        W30681   9.575  18.881   9.134 -0.3239 -0.0060  0.3521
14608W        W30682   3.883   7.518   1.802 -0.2235  0.2941 -0.1841
14609W        W30683  18.326  17.503  11.281 -0.0945  0.2085 -0.2361
14610W        W30684  14.739  11.052   4.259  0.1819 -0.4356  0.1564
14611W        W30685  13.884  12.872  12.816 -0.0453  0.2333  0.0429
14612W        W30686   5.784   7.201   3.288 -0.0161 -0.0160  0.1883
14613W        W30687  12.286  10.481   4.167 -0.0663 -0.1126 -0.3039
14614W        W30688  12.421  17.206   0.816 -0.1289 -0.0810  0.1019
14615W        W30689  12.971   1.294   0.705 -0.0911  0.4577 -0.0799
14616W        W30690   8.236   1.594   3.542  0.1576  0.2473  0.1505
14617W        W30691   2.440   2.437  10.665 -0.0457 -0.1076  0.1222
14618W        W30692  16.283  13.637   0.761  0.1358 -0.2830  0.1294
14619W        W30693   6.884   6.100   0.120 -0.0422  0.0927  0.0212
14620W        W30694  18.891   8.406   0.185  0.0910  0.0917  0.1218
14621W        W30695   2.186  15.111  13.435 -0.2613 -0.0902 -0.3361
14622W        W30696   5.756  16.439  12.599  0.2694  0.1802 -0.1735
14623W        W30697  12.990  14.451  14.956 -0.1797  0.0832  0.0077
14624W        W30698   0.065   6.916   0.807 -0.2318  0.2598  0.3035
14625W        W30699  15.724   3.757  11.281 -0.1997  0.0025 -0.1482
14626W        W30700   4.249  16.640  13.767 -0.0420 -0.1558  0.1538
14627W        W30701   1.040   4.930  14.416  0.1743  0.2982 -0.0607
14628W        W30702   4.240  15.036  11.427 -0.2605 -0.2400  0.4247
14629W        W30703   1.229  15.126   2.112 -0.1719 -0.8476  0.2998
14630W        W30704  12.780   8.170   2.850 -0.0329  0.1583  0.2636
14631W        W30705  15.821  13.527   2.005  0.1601 -0.1878 -0.0332
14632W        W30706  18.216   5.297   1.065 -0.2262 -0.0055  0.2041
14633W        W30707   0.413  19.267  11.643 -0.2442 -0.2269 -0.0998
14634W        W30708  16.060   3.430   3.288 -0.0760 -0.2345  0.2010
14635W        W30709   1.388  14.093   3.817 -0.1948  0.3898  0.0531
14636W        W30710  15.748  17.463  10.714 -0.1579 -0.0040  0.2906
14637W        W30711   8.101   9.266  12.463 -0.1995 -0.3945 -0.1580
14638W        W30712   9.013  13.781   3.007 -0.0293  0.3212  0.0447
14639W        W30713  17.791   0.626  13.396 -0.0876  0.1968  0.1698
14640W        W30714   0.907  16.337   4.971  0.0647  0.1576 -0.1631
14641W        W30715  16.659  14.548   1.257 -0.0291 -0.1201  0.2267
14642W        W30716   6.390   9.864   0.105  0.0442  0.5539 -0.1392
14643W        W30717   2.142  17.988   0.217 -0.2039  0.2198 -0.3110
14644W        W30718  15.927   6.070   0.042  0.0548 -0.0413 -0.2016
14645W        W30719   2.375   0.768   3.185 -0.1320 -0.1995  0.2548
14646W        W30720   7.631  17.877   0.433 -0.0845 -0.0024  0.0933
14647W        W30721   6.285   4.624  11.053 -0.1716  0.1102  0.0229
14648W        W30722  14.820   8.647  11.043  0.1478 -0.3506  0.1340
14649W        W30723  16.486  18.422   4.599  0.0995 -0.1009 -0.0939
14650W        W30724   7.892   8.469   4.120  0.0648  0.0660  0.1513
14651W        W30725   2.086   1.092   1.136 -0.3449 -0.0976 -0.3991
14652W        W30726  15.470   5.307   3.207 -0.2567  0.0115  0.0024
14653W        W30727   4.012   2.992  10.350 -0.2319 -0.1831 -0.0013
14654W        W30728  16.089  15.735  11.420 -0.0437 -0.0425 -0.2703
14655W        W30729   4.729  17.441   4.363  0.0048 -0.2966 -0.2428
14656W        W30730   8.377  16.144   1.709  0.2241 -0.1695  0.1865
14657W        W30731  14.753   4.640   2.928 -0.1177  0.1568  0.1698
14658W        W30732  17.247  14.997  14.310  0.1603 -0.5511  0.3457
14659W        W30733  10.737  13.486  10.900 -0.0177  0.1540 -0.1890
14660W        W30734  16.006  10.551   2.729 -0.1740 -0.2490  0.1157
14661W        W30735  14.085  14.010   4.681 -0.1164  0.2056  0.0049
14662W        W30736  11.546   2.573  11.455 -0.1227  0.2280  0.0402
14663W        W30737  19.204   0.800  11.226 -0.0907 -0.0979  0.2935
14664W        W30738  16.851  12.479   2.484  0.0241 -0.1611  0.1464
14665W        W30739  12.170   5.153  12.006 -0.1667  0.1020  0.2005
14666W        W30740   1.794  14.809  10.193 -0.2283  0.0808 -0.3099
14667W        W30741  16.474   9.949   0.139 -0.3759  0.2718  0.1208
14668W        W30742  11.598  16.636  14.024 -0.1410  0.0765 -0.3380
14669W        W30743  11.063   4.789   0.476  0.2376 -0.0089 -0.3203
14670W        W30744  11.942  10.505   1.284 -0.4352 -0.2186  0.3353
14671W        W30745  15.928   8.743   2.222 -0.0604 -0.1416 -0.2249
14672W        W30746   8.851  14.745   3.538  0.2326 -0.0675  0.1110
14673W        W30747  14.722   2.520   3.560  0.1069  0.0566  0.1706
14674W        W30748  11.193  16.279   2.321 -0.2162  0.1534  0.1309
14675W        W30749   8.871  12.656  11.835 -0.0867 -0.0554 -0.2456
14676W        W30750  14.255  11.901  14.505  0.0552  0.0396  0.0195
14677W        W30751  15.127   1.141   0.182 -0.1522 -0.0360  0.0952
14678W        W30752  14.609  13.182  13.790  0.1856  0.1877  0.2653
14679W        W30753   8.248   9.747  14.815  0.2994 -0.1851  0.1898
14680W        W30754   9.486  13.916   4.268 -0.2310  0.3322  0.2873
14681W        W30755   6.593  12.424   4.184  0.1998  0.1180 -0.1212
14682W        W30756  17.298   1.100   3.454  0.3465  0.1917  0.4212
14683W        W30757   3.579   5.051  12.273  0.1959  0.0884  0.1360
14684W        W30758  18.191   1.874   3.949  0.3408  0.0993 -0.0448
14685W        W30759  10.666  16.810  14.264 -0.1182 -0.0396 -0.1936
14686W        W30760   2.898   1.614   0.324 -0.0410  0.0940 -0.2738
14687W        W30761  13.099  19.088  12.767  0.0761  0.2167 -0.1793
14688W        W30762  17.183  16.746   2.614 -0.0215 -0.0572  0.1277
14689W        W30763  18.467   4.699  14.792  0.3566  0.0122  0.2183
14690W        W30764  19.160  15.582  14.135  0.1913  0.0086  0.2618
14691W        W30765  12.938   0.382   3.785 -0.1628 -0.2307 -0.0163
14692W        W30766  14.156  14.090   2.662 -0.1918 -0.1111 -0.1326
14693W        W30767   2.381   1.260  12.471  0.1554  0.0942  0.1586
14694W        W30768  11.924  11.517   2.556  0.1219  0.0257  0.3295
14695W        W30769  17.332  17.993  13.075  0.0526 -0.0866 -0.1674
14696W        W30770  16.321  18.465   3.603  0.0989 -0.0185 -0.0499
14697W        W30771   9.677  16.232   2.019  0.0421 -0.1636  0.0090
14698W        W30772  12.393   7.657   3.327 -0.4676 -0.2149  0.2504
14699W        W30773  16.724   4.774   1.716  0.2507  0.0340 -0.0160
14700W        W30774  16.195  18.890   5.226 -0.2226 -0.0219  0.1482
14701W        W30775   6.011  17.273   0.971  0.0777 -0.2050  0.0969
14702W        W30776  11.815   0.160  10.659 -0.2657  0.0142 -0.2697
14703W        W30777  13.232   2.660   0.070 -0.3996 -0.0763 -0.1775
14704W        W30778   0.890  15.732  11.729  0.1783  0.0442  0.0090
14705W        W30779  12.172   2.938   1.483 -0.0320 -0.0831  0.0237
14706W        W30780  12.645  15.350   4.553  0.0094  0.1427 -0.0983
14707W        W30781   6.709   0.886   2.878  0.1183 -0.1233  0.4524
14708W        W30782  11.050  18.689  12.198  0.2170  0.0541 -0.3680
14709W        W30783  14.966  14.466  12.437 -0.1742  0.0389  0.2857
14710W        W30784  17.827   5.826   5.521  0.0769 -0.0674  0.1677
14711W        W30785   0.215  16.757  14.199  0.0935 -0.2355  0.1347
14712W        W30786   0.105   7.597   0.325  0.0394 -0.0586 -0.1757
14713W        W30787   9.890  10.923   5.133  0.1095  0.1739 -0.2239
14714W        W30788   3.786  11.073  10.479  0.2249  0.0861 -0.2334
14715W        W30789  12.539  12.421  10.910 -0.2565 -0.0651  0.0154
14716W        W30790   3.948   6.133  14.140 -0.0667 -0.5275 -0.2755
14717W        W30791   6.293   4.811   3.106 -0.1472  0.1950  0.1178
14718W        W30792   6.304  17.172   4.247 -0.0000  0.0520 -0.0138
14719W        W30793  16.427   2.496  12.674  0.0370 -0.0188  0.5614
14720W        W30794   1.660  16.854   0.069  0.4194 -0.1216  0.0707
14721W        W30795  14.157  17.872   2.351 -0.1003 -0.2185 -0.2421
14722W        W30796  11.886   0.329   3.928 -0.0392  0.0152 -0.1950
14723W        W30797   0.298   8.276  10.559 -0.0724  0.1880  0.0098
14724W        W30798  13.521   5.240   5.342  0.1762  0.3564 -0.0008
14725W        W30799  13.452   0.374   1.518 -0.2000  0.0195  0.1497
14726W        W30800  18.336  10.542   4.699 -0.0767 -0.0552 -0.1656
14727W        W30801  11.666  11.342  11.387 -0.0853  0.4443 -0.0955
14728W        W30802   3.293   8.108   2.561  0.1562  0.2061 -0.1139
14729W        W30803   5.547  13.460   1.568  0.0019  0.0423  0.1232
14730W        W30804   7.209   9.857  12.541  0.0305 -0.1092  0.2689
14731W        W30805   9.407   2.892   0.143  0.0942  0.0455 -0.2760
14732W        W30806  12.290   2.519   4.729  0.1018 -0.3846  0.0477
14733W        W30807   7.713   1.191   4.697 -0.3720 -0.1565  0.3379
14734W        W30808   4.948  19.057   3.508 -0.0760 -0.0323 -0.1685
14735W        W30809   3.198  18.996  13.937  0.0908 -0.2451 -0.0498
14736W        W30810   1.299  17.642   2.559 -0.2528  0.0887  0.0476
14737W        W30811   3.415   8.216   5.371  0.0973  0.1266  0.2642
14738W        W30812  14.370   1.377  11.971  0.2144  0.0717 -0.0819
14739W        W30813   9.900  11.152   1.927  0.1145 -0.1054  0.2070
14740W        W30814   4.960   3.721   3.664  0.0569 -0.1598 -0.1809
14741W        W30815   9.134   0.051   5.439  0.1578  0.0754 -0.1054
14742W        W30816   7.966   4.365  14.924 -0.2331  0.1521 -0.1397
14743W        W30817  12.973  11.092  13.377  0.0893  0.2408  0.0472
14744W        W30818   8.358   3.659   4.211 -0.0555  0.2604  0.0248
14745W        W30819   3.233   0.493  11.198 -0.0484  0.4328  0.2202
14746W        W30820  10.267  13.354  11.052 -0.0461  0.0637 -0.0327
14747W        W30821  11.807  13.863  10.430  0.2317  0.1525 -0.2860
14748W        W30822   6.999  17.588  14.542 -0.1399 -0.0471 -0.2644
14749W        W30823  14.328  13.984  14.926 -0.1955 -0.0755 -0.2271
14750W        W30824   6.413   5.960  13.304 -0.1217 -0.0122  0.0758
14751W        W30825  17.244   9.660  14.582 -0.3796  0.0480 -0.0446
14752W        W30826  18.994  14.634   2.734 -0.0249 -0.2342 -0.3132
14753W        W30827  10.276  18.146  11.913  0.2666  0.0107 -0.0545
14754W        W30828  14.121   6.993   3.202  0.0150 -0.1250 -0.2050
14755W        W30829  15.347   7.602  14.416  0.3803 -0.0380  0.2592
14756W        W30830   6.090  12.918  11.834  0.1177  0.0422 -0.0134
14757W        W30831   0.891   8.678   0.416  0.1321 -0.3529 -0.1360
14758W        W30832  16.389   6.372  11.060  0.2228  0.1464 -0.0380
14759W        W30833   4.784  12.584   0.622  0.1757  0.1862 -0.0415
14760W        W30834   7.337  17.419  12.467  0.0059 -0.0517 -0.4589
14761W        W30835  13.945  12.653  11.836  0.2222 -0.1866  0.0960
14762W        W30836   6.703   3.888   2.132 -0.0320 -0.0015  0.0156
14763W        W30837  16.245   9.369   3.897  0.0572 -0.1321  0.1173
14764W        W30838   3.222   7.576  11.824 -0.0028  0.1747 -0.0202
14765W        W30839  10.896  11.534  11.016 -0.0626 -0.2440  0.1113
14766W        W30840  10.870   8.495  10.794 -0.1687 -0.4465  0.2830
14767W        W30841  14.522  18.127  10.597  0.3528  0.4762  0.1636
14768W        W30842  10.414  18.673  13.735 -0.2457  0.4291 -0.2504
14769W        W30843   7.185   9.571  11.533  0.1024 -0.2517  0.1465
14770W        W30844   4.039   1.651   2.035 -0.0610  0.0502  0.2581
14771W        W30845  10.627  13.509  10.388  0.1124  0.3113  0.2357
14772W        W30846   3.166  12.675   2.242  0.2773  0.1972  0.0667
14773W        W30847   4.175  16.252  10.454  0.1615 -0.0818  0.0130
14774W        W30848  15.701   6.996   1.130 -0.0239  0.0187 -0.2098
14775W        W30849  12.066  15.846  10.943 -0.1472  0.1238  0.2672
14776W        W30850   2.807   0.337   3.229 -0.1083 -0.0475 -0.3865
14777W        W30851  15.672   1.419   4.835 -0.0726 -0.1327  0.0418
14778W        W30852  15.325  12.211  11.958  0.2070 -0.1288  0.1125
14779W        W30853   5.118  16.089   4.847 -0.0762 -0.0541 -0.3588
14780W        W30854   9.265  12.372  14.322  0.1514 -0.0496  0.2804
14781W        W30855  15.504  15.156   3.100 -0.2165  0.0993  0.1673
14782W        W30856  11.296  13.733  13.132 -0.1792 -0.2323  0.0822
14783W        W30857  13.250   9.487  13.991 -0.2813 -0.2241  0.5572
14784W        W30858   6.288  16.878   0.668  0.4088 -0.0493 -0.2776
14785W        W30859  15.832  11.907   5.200 -0.1410  0.1374 -0.1254
14786W        W30860  18.672  13.285   3.659  0.2737  0.0955 -0.1771
14787W        W30861  14.500   0.885   3.308  0.1762  0.1443  0.1674
14788W        W30862   1.193  16.346   5.350  0.3285  0.2465  0.2606
14789W        W30863  13.863  18.001  13.990 -0.0627 -0.1291 -0.2977
14790W        W30864  17.019   1.235  12.650  0.1460  0.0301 -0.2486
14791W        W30865   6.436  15.979   0.266  0.3315 -0.1935 -0.2075
14792W        W30866  14.037   9.980   1.855 -0.1250 -0.0452  0.0521
14793W        W30867   4.057   3.530  13.267  0.0235 -0.0210 -0.1540
14794W        W30868  10.438   9.774   1.455 -0.2210  0.0719  0.0649
14795W        W30869  13.434  14.628   2.922 -0.2304 -0.1002  0.1350
14796W        W30870  18.986   8.824   5.557 -0.1023 -0.1159  0.0327
14797W        W30871  16.234  13.522  14.018  0.0954  0.3472 -0.1323
14798W        W30872  10.429   3.230  11.293 -0.0951 -0.0961 -0.3047
14799W        W30873   4.866  14.930   4.018  0.0609 -0.4108  0.0932
14800W        W30874   6.320  12.923  12.318  0.2363  0.1398 -0.0462
14801W        W30875   3.887   5.965   1.225 -0.0180 -0.2643  0.1610
14802W        W30876   3.283  15.814  10.199  0.2574 -0.0546 -0.0049
14803W        W30877  10.542   5.162  11.273  0.0073 -0.1737  0.1032
14804W        W30878   8.063  17.946   3.396 -0.2078 -0.1018 -0.2027
14805W        W30879   7.252   5.848  12.717  0.0817  0.0995  0.0212
14806W        W30880  18.610  18.619   5.755  0.0449  0.0926 -0.0434
14807W        W30881   3.120  14.956  10.707 -0.1463  0.0245 -0.1831
14808W        W30882  11.108  10.745  10.808 -0.1302  0.2498 -0.2423
14809W        W30883   8.448  18.532   2.742  0.0979 -0.1976 -0.0244
14810W        W30884   3.078   3.759  11.277  0.0310  0.1063 -0.2072
14811W        W30885  12.087   6.579  14.529 -0.1908 -0.0063  0.2154
14812W        W30886   6.452  18.617   4.109 -0.2536 -0.0933 -0.2827
14813W        W30887  16.967  14.440  10.780 -0.0189 -0.1206  0.2225
14814W        W30888  18.225  12.555  14.876 -0.0800 -0.1719 -0.0582
14815W        W30889   1.190  13.285  14.632 -0.1115 -0.5416 -0.0447
14816W        W30890   3.155   8.952  13.802  0.2226 -0.0176  0.0176
14817W        W30891  16.340   0.809  12.915  0.0876 -0.1693 -0.0277
14818W        W30892  17.584   5.164   3.897 -0.0102  0.0732  0.0507
14819W        W30893  18.924   0.664  13.111 -0.1748 -0.0981 -0.1599
14820W        W30894   4.096  17.239   3.877  0.1799  0.0638 -0.0579
14821W        W30895   9.799   3.499  13.160  0.0794 -0.0754 -0.0408
14822W        W30896   9.089  17.051   3.496  0.1677  0.2110 -0.1872
14823W        W30897  10.669   1.185  10.680 -0.2039 -0.2817  0.4101
14824W        W30898  11.119   3.761   4.076  0.1256 -0.0107  0.1490
14825W        W30899  16.338  12.827   6.027  0.2143  0.3753 -0.0445
14826W        W30900   3.487   3.564  12.451 -0.1085 -0.2523  0.1585
14827W        W30901   2.023  17.327   3.128 -0.0322 -0.0658 -0.1104
14828W        W30902   8.485   6.837  11.797 -0.1265 -0.0505 -0.0497
14829W        W30903  15.689  15.540  12.712 -0.1657 -0.0201 -0.1656
14830W        W30904  17.346   8.694   4.534 -0.0297 -0.2204 -0.0251
14831W        W30905   6.480   0.539   2.217  0.1749  0.0242 -0.3445
14832W        W30906   6.893  13.023  12.448  0.5613 -0.1727  0.1490
14833W        W30907  15.276  12.581  12.645  0.0118  0.1009 -0.0155
14834W        W30908  13.762   9.193   2.176 -0.1276 -0.3503 -0.1084
14835W        W30909   1.844   1.327  13.650  0.2698  0.1048 -0.2240
14836W        W30910   8.609  16.441  13.277  0.0766 -0.0387  0.0216
14837W        W30911   1.742  11.101  10.236  0.2733 -0.0506  0.1291
14838W        W30912   2.814  13.221  11.153 -0.1782 -0.0818 -0.4308
14839W        W30913   5.396  12.554  14.908  0.2412  0.0122 -0.1484
14840W        W30914   3.022   5.163   3.259  0.0865  0.2095  0.2224
14841W        W30915   6.431   1.900   2.267  0.3067  0.1893 -0.3543
14842W        W30916  18.130  10.128  11.412 -0.1985  0.1744 -0.0887
14843W        W30917   1.397   9.723  12.199 -0.2898  0.1913 -0.1013
14844W        W30918   3.740  11.980   3.868 -0.0896 -0.1875 -0.1199
14845W        W30919  14.835   1.817   5.053  0.1703 -0.1372 -0.3400
14846W        W30920  11.164  12.561  14.063  0.3007  0.0594 -0.3072
14847W        W30921   0.600   0.581   0.357 -0.3447  0.3251  0.1832
14848W        W30922  10.210  15.800   1.074 -0.4091 -0.0009  0.0471
14849W        W30923   8.469   3.604   4.743  0.0123 -0.0649 -0.2524
14850W        W30924   3.369  16.899   2.626  0.2380  0.1572 -0.0639
14851W        W30925   4.397   9.885  13.341 -0.0287 -0.1612 -0.1092
14852W        W30926  11.278  11.346   1.947  0.0662 -0.3641  0.0234
14853W        W30927  13.216   7.335   2.519  0.0477  0.1117  0.1430
14854W        W30928  12.014  10.789  14.663 -0.2011  0.0642 -0.2060
14855W        W30929  10.165   1.836  14.016 -0.0031  0.1268  0.0600
14856W        W30930  15.359   7.177   5.382 -0.1211 -0.2578  0.1869
14857W        W30931   0.971   7.605  12.713  0.1364  0.1199  0.1930
14858W        W30932   2.497  11.294   3.993  0.0689  0.2114  0.2018
14859W        W30933  16.960   5.243  11.681  0.0301 -0.1327  0.1918
14860W        W30934  12.103  17.257   0.402 -0.1481  0.1313 -0.4854
14861W        W30935  13.395   1.706   4.802  0.1982 -0.2508  0.3409
14862W        W30936   4.112  16.591  14.380 -0.1018  0.0911 -0.1134
14863W        W30937   5.207   7.069   0.287 -0.1603  0.4465 -0.1933
14864W        W30938   8.094  15.889   2.029 -0.1628 -0.1166 -0.0592
14865W        W30939   9.876  12.104  13.537  0.2524 -0.3112  0.2579
14866W        W30940   5.309  16.759   4.190 -0.2815 -0.1734 -0.2485
14867W        W30941  10.389   4.058   3.188 -0.2959  0.0035 -0.4118
14868W        W30942   2.446  18.781  14.285  0.0544 -0.1192 -0.1821
14869W        W30943  10.402   7.052   3.636  0.1179  0.1664 -0.1884
14870W        W30944   0.681   9.208   6.281  0.2795  0.0391 -0.1256
14871W        W30945  13.018  18.664  13.119  0.5278  0.1356 -0.0788
14872W        W30946   8.811  11.213   3.658 -0.0790 -0.3970  0.2117
14873W        W30947  17.157   4.161   1.022  0.3460 -0.1888 -0.1925
14874W        W30948  15.368   0.783   2.575  0.2659  0.0914 -0.1122
14875W        W30949  11.812   3.530  11.546 -0.2933 -0.3508  0.3036
14876W        W30950  13.298  17.516   1.721 -0.1952 -0.4775  0.0219
14877W        W30951   3.627   1.788   1.134  0.0032 -0.0636  0.0883
14878W        W30952   8.103   3.009   9.934  0.2188  0.0380  0.1143
14879W        W30953  16.078  14.055   1.674  0.3413  0.4355 -0.1675
14880W        W30954  15.097  17.464  13.331 -0.1401  0.0019 -0.0496
14881W        W30955   7.306  10.722   2.911 -0.0340  0.2418 -0.1673
14882W        W30956   2.906   8.413   2.327  0.1621 -0.0230  0.2923
14883W        W30957  12.836  16.474   1.786  0.0529 -0.1109 -0.0493
14884W        W30958   4.529  16.690  11.886  0.1904 -0.0286 -0.1009
14885W        W30959  18.039  15.102  10.369  0.1042 -0.2526 -0.3655
14886W        W30960  14.379   0.436   4.875 -0.0966  0.0748  0.1152
14887W        W30961  12.880   0.120  13.321  0.1913 -0.0720 -0.1752
14888W        W30962  11.040   9.108   1.463  0.0249  0.4311 -0.2490
14889W        W30963  14.019   3.963   3.184 -0.0399  0.5469  0.2323
14890W        W30964   6.147  13.223   0.020 -0.0315 -0.2083 -0.2219
14891W        W30965   4.952  12.917  13.372 -0.0017  0.0802 -0.3923
14892W        W30966   1.253  18.796  10.811 -0.4737  0.1730 -0.2389
14893W        W30967  14.436   4.328  11.258 -0.0095 -0.1243  0.1951
14894W        W30968   6.294  17.949   9.733  0.0730  0.2436  0.1369
14895W        W30969  13.997  10.895   3.554  0.0240  0.1047  0.1404
14896W        W30970  18.975   4.262   4.053 -0.1913 -0.4087  0.0956
14897W        W30971   7.639  11.349   4.070 -0.0864  0.1165  0.3587
14898W        W30972  12.114  15.280  12.239 -0.2746  0.3050 -0.1142
14899W        W30973  12.586   3.278  11.863 -0.2770  0.0770 -0.0616
14900W        W30974   2.298   2.645  12.999 -0.3600  0.2430 -0.1603
14901W        W30975   1.564  16.139  10.158 -0.1634  0.0043 -0.2907
14902W        W30976   8.426  14.516  13.947  0.2015  0.0829  0.1448
14903W        W30977   4.249  10.947  10.563  0.1437  0.2710  0.0979
14904W        W30978  12.379  11.328  11.614  0.0985 -0.3451 -0.0556
14905W        W30979  18.412  15.508   1.142 -0.3258  0.0360  0.2346
14906W        W30980  12.257   5.663   4.260  0.1487 -0.1784  0.0808
14907W        W30981   1.517   0.677  10.532  0.0321 -0.2514 -0.0572
14908W        W30982  18.444  14.369   1.472 -0.1868 -0.1854 -0.0998
14909W        W30983  12.586  15.329  14.754 -0.0565 -0.0497 -0.1357
14910W        W30984   5.045   7.636  10.988  0.3141  0.0731  0.2798
14911W        W30985   5.265  14.773   3.033  0.1587  0.3375 -0.1825
14912W        W30986  16.053   6.129   3.418 -0.0617  0.1102  0.2239
14913W        W30987  10.728   2.499   4.640  0.3444 -0.3067 -0.1036
14914W        W30988   2.495  11.656   3.156  0.0379  0.1989 -0.4140
14915W        W30989  14.632   8.209   3.283 -0.0689  0.1701  0.2668
14916W        W30990  15.883   7.527  11.278  0.1491  0.1370 -0.2497
14917W        W30991   6.831  14.039   3.540 -0.0455  0.4841 -0.2417
14918W        W30992   5.923   0.282   2.801  0.1058 -0.2533  0.1781
14919W        W30993   3.392   0.981  12.649  0.0468  0.1648 -0.0132
14920W        W30994   7.631  11.953   0.098  0.2564  0.1274 -0.1914
14921W        W30995  13.331  16.113   2.835  0.0136 -0.1207  0.1487
14922W        W30996  10.898   7.447  14.525 -0.1811 -0.1626  0.1855
14923W        W30997   5.474  17.426  14.352 -0.3633  0.2781 -0.0936
14924W        W30998  12.844  10.607   2.805 -0.1393  0.1480 -0.1322
14925W        W30999  19.076   3.662  10.621  0.0371  0.2262 -0.0229
14926W        W31000  17.925  14.657  12.918 -0.2330 -0.2711  0.2713
14927W        W31001  16.672   3.395  14.714  0.2742 -0.0114  0.0351
14928W        W31002  18.710  14.230  13.054  0.0045 -0.1555  0.4423
14929W        W31003   8.917  14.805  13.690  0.2428  0.0455 -0.3165
14930W        W31004  14.276   2.757  14.183  0.0061 -0.2579 -0.0627
14931W        W31005  16.014   0.524  10.937 -0.1114  0.1658  0.1730
14932W        W31006  11.906   9.293   2.657 -0.1464 -0.2811  0.0742
14933W        W31007  15.571  18.748   0.013 -0.2360 -0.0811 -0.0091
14934W        W31008  17.470   1.736   0.367 -0.1746 -0.0389  0.2966
14935W        W31009   4.788  10.397   1.467  0.0254  0.1917  0.0703
14936W        W31010  14.355   2.133   4.235  0.2226  0.0092  0.2050
14937W        W31011  15.913   2.143   2.156  0.0556 -0.3157  0.1209
14938W        W31012   6.035   8.414   3.656 -0.1616 -0.3490 -0.2422
14939W        W31013  11.212  18.958   5.482 -0.2075 -0.0191 -0.0782
14940W        W31014   0.052   5.661   2.892  0.1998  0.0711 -0.0026
14941W        W31015   3.240   4.473   0.754 -0.0694  0.3154 -0.0895
14942W        W31016  13.043   4.930   0.399 -0.0152 -0.1276 -0.1145
14943W        W31017  18.745  11.974   5.290  0.2208  0.0369  0.1244
14944W        W31018  17.382  16.683  13.556 -0.0228 -0.5822 -0.1848
14945W        W31019  11.164   1.313  12.248 -0.1835  0.0361 -0.2756
14946W        W31020  13.796  15.246   2.428 -0.0720  0.1930  0.0703
14947W        W31021   2.883  17.442  12.505 -0.0309 -0.1613  0.1552
14948W        W31022  18.361   3.748  14.764 -0.3389 -0.1914 -0.1760
14949W        W31023   2.190   7.406   3.182  0.0639 -0.3903  0.0498
14950W        W31024  13.260  18.196   0.410  0.0797  0.3358  0.1738
14951W        W31025   6.771   5.431   2.295 -0.0091  0.0602 -0.0503
14952W        W31026   3.231  11.346   4.886  0.0490  0.1113  0.0263
14953W        W31027  14.317  10.607   0.773 -0.1035  0.2293  0.0027
14954W        W31028  14.258   3.588   1.322 -0.2090 -0.1970  0.2235
14955W        W31029  19.069  14.644  10.502  0.1780  0.1191  0.2244
14956W        W31030  10.413   9.476   2.606 -0.0804 -0.0813 -0.1370
14957W        W31031  17.238   7.851  14.238 -0.1508  0.3222 -0.1097
14958W        W31032   6.924   3.740  13.015 -0.1692 -0.0650 -0.1223
14959W        W31033  14.769  12.490  11.089  0.0748 -0.2230 -0.0174
14960W        W31034  15.071  17.630   5.146  0.2712  0.2679  0.1324
14961W        W31035  10.959   3.154  10.508 -0.1119  0.1430  0.0887
14962W        W31036   5.781   0.367  13.284 -0.1347 -0.0629 -0.0412
14963W        W31037   1.245   3.795   1.366  0.0786  0.0264  0.1448
14964W        W31038  12.637  14.213   2.933  0.0016 -0.1242 -0.2713
14965W        W31039  16.851  10.823  11.380  0.1074  0.3014 -0.1182
14966W        W31040   9.797   9.391  10.305 -0.0233 -0.4610 -0.2586
14967W        W31041   6.236  18.825   2.959  0.0193 -0.0133 -0.5101
14968W        W31042  14.799   4.902   1.878  0.0051  0.1300  0.1614
14969W        W31043  14.885   6.596  10.820  0.1586  0.2017  0.2318
14970W        W31044   9.597   9.033  10.546 -0.1413  0.0642  0.0125
14971W        W31045   3.072   3.134  10.273 -0.1389  0.1489  0.2643
14972W        W31046   0.757   2.897   5.509 -0.0284  0.3280 -0.3499
14973W        W31047   5.865   4.081   2.624 -0.0693  0.1667  0.3524
14974W        W31048  13.509  15.962   4.545 -0.1384 -0.2235  0.1514
14975W        W31049  18.895  16.990  11.084 -0.2535  0.3204 -0.0480
14976W        W31050  11.755  15.223   4.553  0.3715 -0.0507  0.0405
14977W        W31051  15.809  11.360   5.633  0.0795 -0.2529 -0.1536
14978W        W31052  16.458  13.907  13.095  0.2558  0.0009 -0.0602
14979W        W31053   1.679   1.594  14.006 -0.3287 -0.2697 -0.2482
14980W        W31054  15.823   3.952   0.072 -0.0402 -0.2602 -0.2348
14981W        W31055   3.074  16.379  13.627 -0.2324 -0.1516 -0.0052
14982W        W31056  11.640  16.749  11.176  0.0165 -0.0135  0.0411
14983W        W31057  16.172   2.421   3.451 -0.1956 -0.3398  0.1540
14984W        W31058  17.959   4.795  12.003 -0.0726 -0.2304  0.3124
14985W        W31059   4.514   0.791  11.623 -0.1494 -0.2909 -0.1685
14986W        W31060   8.077   7.119  11.732  0.1497 -0.0019  0.0935
14987W        W31061  18.668  18.331   1.810  0.1384  0.1271  0.4254
14988W        W31062   0.390  12.016  11.362  0.0455 -0.0548 -0.0942
14989W        W31063   2.258   5.222   2.696 -0.1410  0.0566  0.1951
14990W        W31064  13.995  15.553   0.915 -0.0084  0.2381  0.1261
14991W        W31065   6.522  13.250  14.684  0.1623 -0.0326  0.2723
14992W        W31066  13.025  15.123   3.661 -0.1438  0.0911  0.0402
14993W        W31067  15.154  14.755  11.425 -0.1081  0.3114 -0.0474
14994W        W31068  15.681  17.316   4.961 -0.0275 -0.0686 -0.4348
14995W        W31069   0.627   6.529  12.504 -0.1135  0.0437 -0.1050
14996W        W31070   5.489   0.259  12.871  0.2402 -0.2927  0.1749
14997W        W31071   1.633   5.554  10.918 -0.1443  0.0206 -0.2473
14998W        W31072  11.572  14.318   1.164 -0.0438 -0.0872  0.0262
14999W        W31073   2.207  10.268   5.651  0.1834  0.0390 -0.3764
15000W        W31074   6.252  14.555  14.782  0.2595  0.1845  0.2978
15001W        W31075   3.650   3.424   0.359 -0.0981 -0.0088 -0.1749
15002W        W31076   8.119  17.756  11.059 -0.0271 -0.0466 -0.1807
15003W        W31077  11.233   0.585   1.894  0.0390  0.3385 -0.1043
15004W        W31078  11.350   4.179   1.917 -0.0211  0.0493 -0.1848
15005W        W31079  16.277  15.127  13.515  0.0054 -0.4465  0.1790
15006W        W31080  12.629  18.802  11.893  0.3901 -0.0740 -0.0119
15007W        W31081  12.267  13.367  11.209 -0.1590 -0.0013 -0.1186
15008W        W31082   6.093   1.564   4.922 -0.2212  0.1610 -0.1966
15009W        W31083   4.978   5.243  10.880  0.3361 -0.1333  0.0434
15010W        W31084   5.892  18.426   2.895 -0.0402 -0.1295 -0.3904
15011W        W31085   3.693  14.984   0.521 -0.0247 -0.1117 -0.2090
15012W        W31086   7.223   9.338  12.921 -0.1369 -0.1524 -0.1638
15013W        W31087  10.636   5.819  14.351  0.0569  0.0487 -0.3519
15014W        W31088   6.508  15.968   0.865 -0.4272 -0.0926 -0.2984
15015W        W31089   3.876  18.822   9.498  0.0316  0.0707  0.0408
15016W        W31090  16.827   9.460   0.022 -0.0141  0.0399 -0.0380
15017W        W31091   0.354   0.530  10.872 -0.0114 -0.0930  0.1075
15018W        W31092  10.475   5.909   2.704 -0.1556  0.3242 -0.1025
15019W        W31093  18.413   5.012  12.143 -0.1316  0.0966 -0.0059
15020W        W31094   1.483  17.068   1.994  0.0471  0.2979  0.2706
15021W        W31095   9.616   1.402   2.598 -0.1015 -0.0971 -0.1068
15022W        W31096  14.155   4.144  13.499 -0.0863  0.0814 -0.1040
15023W        W31097   9.005   3.539   1.941  0.1055  0.2935  0.0272
15024W        W31098  18.668  18.897   1.322 -0.2171 -0.3683 -0.3628
15025W        W31099  17.814   0.272   3.950  0.1151 -0.0421 -0.1278
15026W        W31100   2.887   2.874  10.784 -0.1837 -0.0536 -0.0304
15027W        W31101   2.514  12.545  10.656  0.1883 -0.2818  0.1779
15028W        W31102  18.233   4.199  12.865  0.0325 -0.3218  0.2494
15029W        W31103   8.420  14.935  14.866 -0.2085 -0.1026 -0.0808
15030W        W31104   8.964   6.465  13.262  0.0576  0.3418  0.0643
15031W        W31105  12.771   8.746   1.870 -0.5099 -0.4593  0.2357
15032W        W31106  10.927   3.435   1.709 -0.1585  0.1658  0.1776
15033W        W31107   7.813  17.898  14.205 -0.1598 -0.0784 -0.1676
15034W        W31108   6.342   6.238  14.340  0.1846 -0.0233 -0.2112
15035W        W31109  13.167   8.100   1.909  0.0667 -0.2535  0.2220
15036W        W31110   0.752  11.941  14.742  0.2890 -0.4220  0.1299
15037W        W31111  13.252   0.142   5.380  0.1608 -0.0012  0.1772
15038W        W31112   3.227   2.291   0.457 -0.0201 -0.0207 -0.3100
15039W        W31113   4.288   6.955  10.758  0.0189 -0.2770  0.1861
15040W        W31114  14.627  18.668   3.402 -0.1964  0.3195  0.0155
15041W        W31115  11.830  10.290  10.779  0.1162 -0.0608 -0.0288
15042W        W31116  16.677   1.731   3.498  0.1322  0.1802  0.0052
15043W        W31117   8.031  16.205   3.174  0.0616  0.0229 -0.1258
15044W        W31118   3.506   1.278  14.199 -0.0075  0.3371  0.0708
15045W        W31119  11.570  15.720  14.922 -0.2286  0.0832  0.1044
15046W        W31120  16.367  11.366   0.716  0.0565  0.0311 -0.0433
15047W        W31121  12.979   2.427  11.545  0.0373 -0.0386 -0.0357
15048W        W31122  11.148   5.645   0.553 -0.1595 -0.3424  0.2771
15049W        W31123  11.370   1.339  13.594  0.2172  0.0436  0.0152
15050W        W31124   3.660   3.007   4.136  0.1458 -0.0724  0.2946
15051W        W31125  16.926  16.824  13.418 -0.0696 -0.0170 -0.1693
15052W        W31126   1.247   8.080   1.290 -0.1115 -0.1786 -0.5600
15053W        W31127  13.170  19.321   9.199 -0.4243 -0.0968 -0.3717
15054W        W31128  10.606   3.048  13.156 -0.2493  0.0501 -0.1352
15055W        W31129  13.596   0.362  13.276  0.2416  0.0766  0.1478
15056W        W31130  12.878   6.812   0.976 -0.0041 -0.0030 -0.0349
15057W        W31131  11.295  18.191  10.214 -0.2214 -0.0519  0.1333
15058W        W31132   7.210  17.251   2.953 -0.0276  0.0574 -0.0313
15059W        W31133   9.284   7.783   4.650  0.0749  0.2161  0.1674
15060W        W31134   4.614  14.786  13.288  0.0054 -0.2023 -0.2807
15061W        W31135  16.196  14.256   5.070  0.2456 -0.1004 -0.2656
15062W        W31136   7.897  12.855   9.807 -0.1911 -0.0057 -0.0591
15063W        W31137   5.226   8.220  14.157  0.0964 -0.1592 -0.1660
15064W        W31138  19.163   8.702   5.131  0.2933 -0.0576  0.1723
15065W        W31139  12.576   0.662   3.393 -0.2836  0.0745  0.0229
15066W        W31140   3.584  13.309   2.289 -0.0677 -0.0352 -0.2649
15067W        W31141  17.652   8.215  12.964  0.4162 -0.0194  0.0935
15068W        W31142   0.387   5.772  10.714  0.3743  0.0223 -0.0702
15069W        W31143  10.839  16.331   3.131 -0.0626 -0.0047  0.1405
15070W        W31144   6.956   6.674  11.653 -0.1652 -0.1919  0.0673
15071W        W31145   8.589   3.088   2.846 -0.0182 -0.0944 -0.2964
15072W        W31146   8.523  18.468  13.739  0.3232  0.1072  0.1780
15073W        W31147   5.466   9.635   4.915 -0.1492 -0.1277 -0.0484
15074W        W31148  12.689   4.701   4.035 -0.0091 -0.0605 -0.0101
15075W        W31149  14.270   1.517  13.239  0.2651 -0.0543 -0.1805
15076W        W31150  10.210   0.769  14.419  0.1219  0.2796 -0.2100
15077W        W31151   0.005  18.676  12.252  0.1923  0.1148 -0.1634
15078W        W31152  14.285   7.964   2.875  0.0371 -0.4736 -0.3972
15079W        W31153   0.627  18.001  12.119  0.0460 -0.1478 -0.1442
15080W        W31154  12.408  15.259   2.868  0.0890 -0.0901 -0.1294
15081W        W31155   6.042  15.482  11.215 -0.1330  0.0531 -0.0851
15082W        W31156   9.118   3.344  10.690  0.1035  0.0645  0.0421
15083W        W31157   3.688  11.387  12.260 -0.2125 -0.2932  0.0703
15084W        W31158  15.504  16.001  12.618 -0.0565 -0.0504 -0.2430
15085W        W31159   5.457   7.945   0.383  0.0470 -0.2351  0.1542
15086W        W31160  13.256  16.514  12.694  0.3699 -0.0188 -0.0786
15087W        W31161   1.584  14.952   3.013  0.0312  0.0932 -0.2295
15088W        W31162   9.520  12.625   0.606  0.0668  0.1846 -0.1861
15089W        W31163  12.040  18.484  10.644 -0.1354 -0.3056 -0.2534
15090W        W31164   3.073  17.451   2.009 -0.3040 -0.1741 -0.1644
15091W        W31165  16.570  11.821  14.977 -0.1612 -0.3215 -0.0288
15092W        W31166  18.625   9.179  12.965 -0.1073 -0.1107 -0.2752
15093W        W31167  18.917  14.743   4.854 -0.0103  0.0204 -0.3440
15094W        W31168  15.231  12.872   1.455  0.1976  0.1086 -0.0142
15095W        W31169   1.639   3.638   3.182  0.0919 -0.0534  0.3558
15096W        W31170  10.818  18.412  14.505 -0.0418  0.0022 -0.0154
15097W        W31171  13.115   2.943   0.520  0.0610 -0.2058 -0.1700
15098W        W31172   7.972  13.862  14.676 -0.0663  0.1529 -0.2088
15099W        W31173   3.472   0.270   2.011  0.0981  0.2118 -0.2415
15100W        W31174  15.061  18.321  14.190  0.1788 -0.1585 -0.0345
15101W        W31175  10.151   2.411   3.572  0.1236 -0.0399  0.0296
15102W        W31176   9.034  17.597   2.975 -0.1610 -0.2204 -0.0820
15103W        W31177  10.366   9.848  13.323 -0.1614 -0.2328  0.1530
15104W        W31178   7.116  11.441  13.353  0.4413  0.2595  0.2498
15105W        W31179  12.857   6.241  11.660  0.0868  0.1854 -0.1086
15106W        W31180  13.285   6.648  13.651  0.1966 -0.0799 -0.2401
15107W        W31181  17.107  15.904  12.932  0.0747  0.1975  0.0262
15108W        W31182  18.601   3.980   0.503 -0.1861 -0.3990  0.2940
15109W        W31183  18.332   4.242  14.843 -0.0359 -0.2207  0.0870
15110W        W31184   9.999   8.320  14.815 -0.0237 -0.1107  0.2283
15111W        W31185   0.509  12.386   2.487  0.0313 -0.0601 -0.1994
15112W        W31186   4.722  11.048   4.017 -0.0250  0.0417  0.2427
15113W        W31187   0.908   8.783  14.903 -0.0209  0.0009 -0.1869
15114W        W31188   0.425   9.859   1.769  0.0573 -0.0323  0.2536
15115W        W31189   0.493  18.924  12.010  0.1338 -0.2360  0.2047
15116W        W31190   8.864   1.505   0.766  0.0217 -0.1523  0.1116
15117W        W31191   0.202   7.977   2.540  0.2623 -0.1192 -0.1835
15118W        W31192   7.597  16.298  14.653  0.1274  0.3932  0.1421
15119W        W31193   8.235  11.372  14.026 -0.1893 -0.1532 -0.0791
15120W        W31194   4.416   2.150  10.878 -0.0864 -0.0355 -0.0365
15121W        W31195   5.217  10.122   4.623  0.1800 -0.2620  0.1404
15122W        W31196  11.539  14.528   2.990  0.1694 -0.2447  0.0092
15123W        W31197   6.585  12.386  13.629 -0.1127  0.0793  0.2187
15124W        W31198   8.631  16.868   3.196 -0.2748  0.1096 -0.1013
15125W        W31199   4.962  12.367   4.181  0.2670  0.3102  0.3613
15126W        W31200   5.664   0.076   2.392 -0.0464 -0.1581 -0.0918
15127W        W31201  14.217  11.895   0.455 -0.0120 -0.0962  0.0481
15128W        W31202   6.279   5.217   2.474 -0.0422 -0.0643 -0.0941
15129W        W31203   3.415  17.758   0.005 -0.1996 -0.3206  0.0403
15130W        W31204  18.655  10.536   5.103 -0.1965  0.1066 -0.1267
15131W        W31205  18.886  12.901  11.358  0.0193 -0.0117 -0.0786
15132W        W31206   4.355   3.803   3.483 -0.0843 -0.0648  0.2335
15133W        W31207   5.057   5.540   4.147 -0.4919  0.0630 -0.2353
15134W        W31208  12.249  14.843  12.032  0.0105 -0.0969 -0.0869
15135W        W31209   2.750   6.909  12.984 -0.2674  0.3015  0.0248
15136W        W31210   9.859  13.565   4.194 -0.4357 -0.0489 -0.0409
15137W        W31211  16.926  18.163   4.906  0.0481 -0.1828 -0.0680
15138W        W31212   3.452  11.277  14.614 -0.2125  0.0613 -0.0564
15139W        W31213  17.163   5.490  10.265 -0.3036 -0.1596 -0.2885
15140W        W31214  11.448   2.260   4.878  0.1798 -0.0803 -0.0090
15141W        W31215   9.711  15.051  10.738 -0.0971  0.1995 -0.0716
15142W        W31216   3.994   5.244  14.387 -0.1875 -0.0164 -0.4947
15143W        W31217   6.942  15.078   0.490  0.4889 -0.1804 -0.1103
15144W        W31218  16.709   8.305  11.627  0.1361 -0.2335  0.3524
15145W        W31219  16.527  18.374  12.542  0.2030 -0.0850 -0.0192
15146W        W31220   3.095  14.801  12.000  0.2390  0.2390 -0.1819
15147W        W31221   0.216   5.263  10.738 -0.2040  0.0558  0.2115
15148W        W31222   1.506  11.461  10.520  0.2218  0.0729 -0.2176
15149W        W31223  13.808  13.796   3.855  0.2643  0.1573 -0.4037
15150W        W31224  17.961   7.426  14.334 -0.2709 -0.0228 -0.1899
15151W        W31225   5.033   8.970  11.057 -0.3386  0.0150  0.1066
15152W        W31226   1.393  15.547   2.757 -0.1038  0.3599  0.2722
15153W        W31227  11.690   5.557  10.397  0.2901 -0.0715 -0.2139
15154W        W31228   9.593   3.160   4.314 -0.0269 -0.0891  0.0134
15155W        W31229   0.853  12.205  11.194  0.5141  0.2016 -0.0170
15156W        W31230  15.926  17.395   4.430 -0.1931  0.1470 -0.2129
15157W        W31231  17.316  16.057   4.286  0.2190 -0.0381  0.0448
15158W        W31232  10.564  14.322   9.564  0.0782 -0.0542  0.1875
15159W        W31233   3.323   9.382  12.941  0.4936  0.0243  0.2062
15160W        W31234   2.062   1.766  12.853  0.1006 -0.1714  0.0292
15161W        W31235   7.329  17.239  12.018 -0.2685 -0.1326  0.0044
15162W        W31236   6.847  10.574   9.449  0.2704 -0.0141  0.2175
15163W        W31237   7.020  18.880   2.387 -0.0985 -0.0667  0.0805
15164W        W31238  17.304   3.916  12.839 -0.1287 -0.0685  0.4917
15165W        W31239  14.669   9.154   0.466 -0.1472  0.0466  0.0312
15166W        W31240   8.651  16.868  11.889 -0.3786 -0.1301  0.1315
15167W        W31241  11.540  10.696   3.138  0.0377  0.0143 -0.3617
15168W        W31242  12.628   0.683   1.446  0.2480  0.2324  0.0196
15169W        W31243   3.558   2.810  11.786  0.1487  0.1357 -0.0040
15170W        W31244   7.512  18.543  11.037  0.1198  0.1846 -0.0807
15171W        W31245   9.404  18.059   3.583  0.0805 -0.2461  0.0052
15172W        W31246   9.620   7.983   2.492 -0.1281 -0.0749 -0.2554
15173W        W31247   3.501  11.374  13.055  0.1250 -0.0488 -0.2102
15174W        W31248   8.004   7.677   2.011 -0.0113  0.5454 -0.3569
15175W        W31249   5.457  19.137  13.463 -0.0010 -0.0404 -0.0421
15176W        W31250  11.598   4.892   4.085  0.1090 -0.1552 -0.2219
15177W        W31251  10.748  12.389   0.030 -0.3104 -0.1334 -0.2586
15178W        W31252  16.216   1.230  10.294 -0.1434  0.2498  0.2785
15179W        W31253   0.106  14.867   3.689 -0.1625 -0.3155  0.3233
15180W        W31254   1.182   8.112  14.031 -0.3224  0.1776 -0.0533
15181W        W31255   1.865   8.539   3.814 -0.2453  0.3172 -0.2279
15182W        W31256   2.290  15.877   0.711 -0.1595 -0.1225 -0.1252
15183W        W31257   4.913  10.942  12.200  0.1701 -0.2853  0.0240
15184W        W31258   7.453   8.799  12.280 -0.0661  0.0820 -0.0376
15185W        W31259  10.963   9.998   9.677 -0.0066  0.2372  0.4079
15186W        W31260   6.898   2.565   1.556 -0.1344  0.0044 -0.2452
15187W        W31261  11.728  17.337  12.588  0.1581 -0.0708  0.0553
15188W        W31262   7.225  13.953   1.480 -0.0277  0.0464 -0.1377
15189W        W31263  12.249  13.365   0.502 -0.1760  0.0907  0.1906
15190W        W31264  15.434   4.996  11.877 -0.1864 -0.3449  0.0568
15191W        W31265   1.822   3.100   4.652  0.4304  0.0283 -0.1196
15192W        W31266   4.461  15.970  11.099  0.0846 -0.1081 -0.2217
15193W        W31267  12.631  15.918  14.150  0.1334  0.0957  0.0305
15194W        W31268  15.133   3.636  12.468 -0.1731  0.0399  0.0169
15195W        W31269  19.115  15.237  13.790  0.1615 -0.2897 -0.0418
15196W        W31270   9.057  16.490   0.302 -0.2009  0.3019 -0.1474
15197W        W31271  13.498   0.892   3.001  0.1529  0.3583  0.0381
15198W        W31272  16.355  16.137  12.352  0.3460  0.0179 -0.3411
15199W        W31273  15.494   1.279   3.638  0.3157  0.1981 -0.2665
15200W        W31274  11.670  17.786   3.565 -0.4381  0.0489  0.2690
15201W        W31275   7.644   6.527  13.403 -0.0389  0.2936 -0.1808
15202W        W31276   7.675   6.779  11.836  0.0111 -0.3400  0.1100
15203W        W31277  12.176  16.394  10.961 -0.1403 -0.2006 -0.1414
15204W        W31278   1.833  16.837  11.946  0.2162  0.0694  0.4290
15205W        W31279   5.501   9.832   3.650  0.1553  0.2512 -0.3108
15206W        W31280  19.113  16.999  12.651 -0.1424  0.0006 -0.0261
15207W        W31281  13.907  18.841   0.871  0.1607  0.0114 -0.0452
15208W        W31282   8.900  17.798  13.871 -0.1192 -0.1601 -0.0551
15209W        W31283  13.844   5.580  12.022 -0.3816  0.0343 -0.0577
15210W        W31284  13.832  13.124   2.104  0.3853  0.0791  0.0985
15211W        W31285   2.932  14.174   2.187 -0.3658 -0.0251  0.1344
15212W        W31286  10.757   0.686   0.369  0.0236 -0.0424 -0.0070
15213W        W31287   5.601   6.241  14.852  0.0080 -0.1400  0.5991
15214W        W31288   2.778  11.866  12.186 -0.0522 -0.0804  0.0580
15215W        W31289  16.639   3.622   1.104 -0.0481 -0.0185 -0.3450
15216W        W31290   8.808   1.578  13.801  0.1689  0.1158  0.1252
15217W        W31291   8.033  15.382  12.340 -0.0917 -0.0374  0.1205
15218W        W31292   3.963   5.138  14.990 -0.3355  0.0644  0.3236
15219W        W31293   6.865  12.352  14.266  0.0673 -0.0565 -0.0323
15220W        W31294  10.783  17.411   0.284  0.0805  0.0974  0.0628
15221W        W31295   3.014   7.549   1.213 -0.1403 -0.2429 -0.1359
15222W        W31296  14.779   5.034  14.594 -0.0879 -0.3680  0.3876
15223W        W31297   5.173  13.807   3.247 -0.0333 -0.0984 -0.0776
15224W        W31298  17.786   8.968   5.993  0.1551  0.2505 -0.3064
15225W        W31299   5.652   1.545  12.333 -0.1646 -0.0171  0.1056
15226W        W31300   0.144  12.578   3.918  0.1333  0.0976  0.2096
15227W        W31301  17.562   9.702  11.177  0.0042  0.0354 -0.0489
15228W        W31302   9.568  15.420  14.150 -0.2176  0.3285  0.1992
15229W        W31303   5.003   6.147  11.365 -0.1153 -0.0094 -0.0271
15230W        W31304   2.307  17.313  11.790 -0.2823  0.1019  0.2762
15231W        W31305   0.748  15.019   1.396  0.1104 -0.2289 -0.1194
15232W        W31306   1.789  11.542  14.771 -0.1135 -0.2680  0.1684
15233W        W31307  18.935  10.443  11.851 -0.1604 -0.1762 -0.2050
15234W        W31308  17.180   7.240  10.226 -0.0848  0.3221  0.0931
15235W        W31309  13.057   8.209   3.390 -0.1952  0.0346 -0.1317
15236W        W31310   9.712   1.019   4.265 -0.0373 -0.0964  0.1890
15237W        W31311  13.051  15.296  10.397  0.3714  0.3569 -0.0171
15238W        W31312   9.661  12.191   2.154  0.0246 -0.0571 -0.2374
15239W        W31313   6.183  18.389  10.307  0.1122 -0.1398 -0.0385
15240W        W31314   9.877  12.572   1.804 -0.0506 -0.0414 -0.3229
15241W        W31315   3.942   2.931   0.375 -0.2607 -0.0939 -0.0882
15242W        W31316  13.983  19.020  10.826  0.0103  0.0586  0.0609
15243W        W31317   4.120  17.548  13.027 -0.2383  0.1538 -0.1304
15244W        W31318   8.912   6.771   9.928  0.1705 -0.2538  0.2906
15245W        W31319  16.938  17.905   2.973  0.0404 -0.1092  0.0782
15246W        W31320   1.101   4.777   2.228  0.2056  0.2788 -0.2221
15247W        W31321   2.586  14.923  11.359  0.3432 -0.0342  0.0739
15248W        W31322   4.794   6.409  10.063  0.1740  0.3947  0.0877
15249W        W31323   1.033   1.683  10.552  0.0714 -0.0838  0.1125
15250W        W31324  16.632  10.096   5.015  0.0793 -0.1340  0.0683
15251W        W31325   7.067  14.413   1.040 -0.1658 -0.1599 -0.0392
15252W        W31326  17.845  17.011   1.750  0.0748  0.0590 -0.0497
15253W        W31327  16.944   6.170  11.544 -0.1623 -0.0834  0.1751
15254W        W31328   2.248  13.543   1.571  0.1768 -0.3718 -0.2539
15255W        W31329  18.605  17.046   0.062  0.0584 -0.0153 -0.1658
15256W        W31330   5.865  17.449   1.728  0.0970  0.0372 -0.0541
15257W        W31331   0.572   1.827   3.137 -0.0864 -0.0264 -0.1213
15258W        W31332  15.293  14.186  14.821 -0.1770  0.2104  0.2157
15259W        W31333  17.008   8.690  13.912 -0.0142  0.3714 -0.1494
15260W        W31334   1.985  11.315  13.944  0.0190 -0.0910 -0.1662
15261W        W31335  18.212   7.043  13.424 -0.1278 -0.0048  0.1329
15262W        W31336  16.935   9.125   4.371  0.2051 -0.0007  0.1335
15263W        W31337   5.980  14.260   3.167  0.0607 -0.1819 -0.3035
15264W        W31338   2.767  16.531   1.184 -0.0998  0.1602 -0.3657
15265W        W31339   6.686  16.616  14.746 -0.0466  0.0225  0.1665
15266W        W31340   7.022   6.136   4.912 -0.1795  0.0183 -0.1579
15267W        W31341   7.913  11.754   4.170 -0.0180 -0.2683  0.2967
15268W        W31342   1.693   8.347   3.010 -0.0951 -0.4513  0.1417
15269W        W31343  14.523   7.382   4.311 -0.2352  0.1877  0.1765
15270W        W31344   1.694   8.976   4.065  0.2491 -0.3409  0.1136
15271W        W31345   4.754   1.474   0.683  0.0441 -0.1784 -0.1212
15272W        W31346  14.763   3.630   1.575 -0.0300  0.4367 -0.4817
15273W        W31347  12.693   5.197  14.117 -0.2950 -0.1769  0.0468
15274W        W31348  13.784   2.075  11.567 -0.2302  0.1452 -0.2359
15275W        W31349   9.419   1.931   2.681 -0.1145 -0.4119 -0.0074
15276W        W31350   6.005   3.969  11.250  0.1574 -0.2021 -0.3730
15277W        W31351  10.235   3.309  13.424 -0.1259  0.2436 -0.2440
15278W        W31352  15.059   9.996   2.206  0.1207 -0.0081  0.1890
15279W        W31353   7.476  18.349   0.363 -0.0523 -0.2675  0.0164
15280W        W31354  11.823  16.546  10.121 -0.2028 -0.2853 -0.2128
15281W        W31355  13.544   8.176   3.312 -0.4302 -0.2604 -0.0862
15282W        W31356   0.630   1.587   5.473  0.1185  0.0770  0.0887
15283W        W31357   4.830  14.000  13.671  0.3773 -0.0144 -0.1775
15284W        W31358  16.262  11.680   4.954  0.0393  0.1269 -0.1075
15285W        W31359   2.156  16.424  11.966 -0.3692  0.2754  0.2420
15286W        W31360  13.893   0.540   4.172  0.0401  0.0650  0.5046
15287W        W31361   7.015   3.639  13.577  0.0230 -0.2432  0.1641
15288W        W31362   0.294   3.397  13.270  0.1927 -0.0062 -0.2757
15289W        W31363  12.784   2.475  10.688 -0.1333 -0.1385  0.3324
15290W        W31364  10.479  11.095   4.065 -0.0200 -0.0312 -0.0080
15291W        W31365  11.818  16.579   3.593  0.0007 -0.1106  0.0765
15292W        W31366   2.920   5.596   2.074 -0.0367  0.1393 -0.1807
15293W        W31367  13.120   5.428  11.688 -0.0031  0.0264  0.0951
15294W        W31368   0.204   6.287  14.296  0.0056  0.4928  0.3819
15295W        W31369  16.658   9.615  13.974  0.1480  0.0713  0.1923
15296W        W31370   2.357   8.631  13.944  0.3429 -0.1782  0.4488
15297W        W31371   4.217   9.697   2.157  0.0551 -0.2375  0.1016
15298W        W31372  12.779   7.005  14.205  0.1390  0.0132 -0.1540
15299W        W31373   0.698  16.145  10.927  0.0292 -0.2490  0.1126
15300W        W31374   1.241   7.126   1.409  0.0366 -0.1353  0.0209
15301W        W31375  16.754   7.500  13.553 -0.0593  0.1709  0.3615
15302W        W31376   6.798  14.565   2.290  0.0652 -0.0324  0.1212
15303W        W31377   3.628   5.674  14.300  0.0523 -0.4188 -0.1317
15304W        W31378   2.838  11.039   5.613  0.0990  0.3235 -0.2956
15305W        W31379   8.699   0.978  10.425  0.1456  0.0682 -0.1582
15306W        W31380  15.929   3.224  12.249 -0.2990  0.0349  0.2939
15307W        W31381  10.154  16.165   0.275  0.0890  0.2179 -0.0564
15308W        W31382  13.471   3.105   2.873 -0.2838 -0.2951  0.1431
15309W        W31383   6.870   5.865   5.509 -0.0256  0.0406  0.0990
15310W        W31384  11.085   0.113  13.661 -0.1267 -0.0627  0.0496
15311W        W31385   3.251  13.560  14.281  0.0142  0.0647 -0.4292
15312W        W31386  10.564  11.211  10.718  0.0387 -0.0553 -0.3801
15313W        W31387  15.947  15.979   0.126 -0.3163  0.0784  0.2932
15314W        W31388   1.993  18.383  12.453  0.0118 -0.2671 -0.2222
15315W        W31389  15.013  19.295   0.924  0.0889  0.4939  0.4813
15316W        W31390   4.433  14.404   3.519 -0.1136 -0.3776 -0.0869
15317W        W31391  14.292  18.473   5.338  0.2351 -0.0459 -0.1677
15318W        W31392  18.748   3.910   5.409 -0.1397 -0.2031 -0.1678
15319W        W31393  17.453   1.154  14.441  0.0023 -0.1173 -0.3857
15320W        W31394  15.066  17.846   2.947 -0.1047  0.1595  0.2089
15321W        W31395   7.223  13.287  10.367 -0.0616  0.4811  0.1294
15322W        W31396  17.392  12.582   1.569 -0.0644  0.1401 -0.0486
15323W        W31397   2.121  14.385   4.441 -0.1264  0.4355 -0.0611
15324W        W31398   2.120  13.457   3.715 -0.1847 -0.1498  0.0229
15325W        W31399   9.968   9.304   0.271 -0.2913  0.0705  0.0814
15326W        W31400  13.170  14.016   0.821  0.3495  0.0351 -0.0084
15327W        W31401  10.457   2.684   0.862  0.1242  0.2099 -0.2776
15328W        W31402   2.415  15.986  11.805 -0.1384  0.4766  0.1803
15329W        W31403   4.494  13.606  10.275  0.0208 -0.0006 -0.5831
15330W        W31404  10.910   6.714  14.020  0.3728 -0.0519 -0.0765
15331W        W31405   3.169  16.628   5.063  0.5631 -0.4270  0.1792
15332W        W31406  12.207  13.898  13.877 -0.2634  0.1081  0.1463
15333W        W31407  11.060  12.088  12.370 -0.1225  0.0995 -0.2136
15334W        W31408   8.303  17.159  11.761 -0.0328  0.0849 -0.0337
15335W        W31409   2.690  14.392   3.522 -0.0087 -0.0309  0.0807
15336W        W31410  16.919   5.654  13.027 -0.0118  0.2808 -0.1129
15337W        W31411   3.478   5.018   2.626 -0.3769  0.1466  0.0098
15338W        W31412   5.978   9.515   4.429  0.1718 -0.1216  0.0112
15339W        W31413  10.463   7.516   1.396 -0.1221  0.0668  0.2826
15340W        W31414   5.418   2.336  11.592 -0.1355  0.0695 -0.0281
15341W        W31415   6.439  15.361  10.381 -0.3884  0.1185  0.1605
15342W        W31416  10.350  18.421   2.282 -0.2393 -0.1778  0.3047
15343W        W31417   5.093   0.504   4.129 -0.0179  0.0430  0.0192
15344W        W31418  10.742   7.267   0.020  0.0445 -0.2565  0.5586
15345W        W31419   6.015   4.749  14.714 -0.0923  0.0613 -0.2436
15346W        W31420  17.541  10.719   1.943 -0.0457 -0.2097  0.0164
15347W        W31421  13.408   6.810   2.104  0.2651 -0.0772  0.2141
15348W        W31422  18.566  18.836  10.680  0.0494  0.0413  0.2355
15349W        W31423   2.842  12.414  11.120  0.0473 -0.3815 -0.1270
15350W        W31424   1.448  12.311   4.045 -0.3832 -0.3254 -0.1053
15351W        W31425   3.672  13.497   1.810  0.0284  0.1996 -0.1610
15352W        W31426  14.177   7.299   0.113 -0.3624  0.2695  0.0919
15353W        W31427   5.074  14.866  12.420 -0.0049  0.0632  0.2395
15354W        W31428  10.409  17.874  13.170  0.3940 -0.1193  0.3513
15355W        W31429  10.844  17.827   2.727  0.2960  0.4062  0.1918
15356W        W31430   8.004  19.273  11.136  0.0534  0.0589 -0.0308
15357W        W31431  15.898   1.440  11.616  0.6157  0.2418 -0.0258
15358W        W31432   3.259  10.414  11.764 -0.3178 -0.1688  0.0155
15359W        W31433   6.435   4.382  12.313  0.2776 -0.2619 -0.3368
15360W        W31434   5.893  15.818  10.851  0.0178 -0.1112  0.3967
15361W        W31435   1.038  11.275   2.643 -0.0841  0.1768  0.0248
15362W        W31436   2.173  13.454  14.013  0.0313  0.0683 -0.0757
15363W        W31437  13.387  10.542   1.241 -0.1483  0.2079 -0.3097
15364W        W31438  13.470  13.440   0.142  0.5889  0.2102 -0.2091
15365W        W31439  11.343   3.480  11.537  0.3945  0.0024  0.2513
15366W        W31440  17.610   7.430   5.041  0.0756 -0.1622  0.0290
15367W        W31441  11.900   6.690  10.541  0.2374 -0.1148  0.1540
15368W        W31442   7.892  17.998  11.775  0.1105  0.0041  0.3376
15369W        W31443  16.700   4.656   3.630  0.3951  0.2395  0.3690
15370W        W31444  11.999  15.385  11.084  0.1536 -0.0198  0.0342
15371W        W31445  18.721  11.226   3.784  0.3148  0.1119 -0.1374
15372W        W31446   1.687  16.466  10.978 -0.0181 -0.1475 -0.2082
15373W        W31447   5.625   7.725   3.296  0.2061  0.2018 -0.1554
15374W        W31448  15.358  16.992   4.895 -0.1884  0.2298 -0.2598
15375W        W31449  13.896  14.597   3.902 -0.1293  0.2824  0.1470
15376W        W31450   2.644   5.674  10.072  0.2087 -0.1042 -0.1450
15377W        W31451   7.280   4.345   3.241  0.0264 -0.1505  0.3565
15378W        W31452  16.258   1.838   0.992 -0.4651 -0.3064  0.3045
15379W        W31453  19.180   3.397  14.566 -0.1261  0.2649 -0.0948
15380W        W31454  15.829  16.059  14.634  0.5844  0.3349  0.3677
15381W        W31455   3.455  14.228   2.376  0.0221 -0.0244 -0.1320
15382W        W31456  14.087   2.384   5.718 -0.1859  0.0959 -0.0234
15383W        W31457   7.442  18.742  14.210 -0.0630  0.0652 -0.1637
15384W        W31458  17.503  15.652  13.361 -0.0956 -0.1036 -0.4199
15385W        W31459   4.808  10.294   4.277  0.0475  0.0324 -0.0320
15386W        W31460  10.707   7.913  12.848  0.5594  0.0569  0.2519
15387W        W31461  14.435  14.779  13.711 -0.0808  0.0415  0.1867
15388W        W31462  12.534   9.679  10.982  0.0868  0.2148  0.0973
15389W        W31463  13.587  14.230   4.678 -0.1490 -0.0325  0.1805
15390W        W31464   2.048  17.829  12.313  0.2464  0.2188 -0.2483
15391W        W31465   0.730  15.544   0.855 -0.1128  0.2381 -0.2923
15392W        W31466   5.801   4.183   1.937 -0.0356  0.1810 -0.3169
15393W        W31467   6.612  12.166   1.712  0.0228  0.1474 -0.1555
15394W        W31468   0.698  10.310   1.648 -0.0193  0.2494  0.0803
15395W        W31469   9.871  11.317  13.893 -0.2844 -0.0221 -0.3554
15396W        W31470  17.376   9.920   0.605  0.3316  0.1059  0.5876
15397W        W31471   8.215  18.067  10.563  0.0528 -0.0259  0.0919
15398W        W31472  11.427  10.715  14.743 -0.0842  0.3652  0.0011
15399W        W31473  17.609   6.777   2.708  0.2669 -0.3168  0.0228
15400W        W31474   8.170   3.900   0.095  0.1084 -0.3636  0.1670
15401W        W31475  14.616   0.992  12.209  0.1620  0.1677  0.2271
15402W        W31476   2.322  12.792   2.528 -0.2256 -0.0306 -0.0478
15403W        W31477  18.970  17.147   0.809 -0.2194 -0.1309  0.0414
15404W        W31478  18.097  10.601   0.064  0.1730 -0.0268  0.1440
15405W        W31479  17.339   1.456  13.694 -0.0697 -0.3211 -0.0864
15406W        W31480  12.854   2.600  14.518  0.1611 -0.2279 -0.0005
15407W        W31481  17.829  10.851  13.052 -0.1009 -0.2221  0.2145
15408W        W31482   6.849  19.320  12.896  0.1559 -0.0347 -0.2290
15409W        W31483   2.734  11.786   4.096 -0.1571  0.4994  0.1995
15410W        W31484  17.155  15.844  12.337  0.1953 -0.0376  0.0687
15411W        W31485  10.307  17.379  14.496 -0.0484 -0.2467 -0.0542
15412W        W31486   2.857   8.063  12.219  0.1504 -0.0134 -0.2099
15413W        W31487   1.873   9.184   0.811  0.0230  0.5657 -0.2139
15414W        W31488  11.613   1.406  12.499  0.0310  0.0233 -0.2129
15415W        W31489  10.682  12.116  14.653  0.4096 -0.1290 -0.0664
15416W        W31490  16.826  12.419   4.536 -0.0219 -0.2077  0.3809
15417W        W31491  12.165   5.391   1.129 -0.1114 -0.0430  0.0017
15418W        W31492   7.218  10.466  11.679 -0.0942 -0.0818 -0.1252
15419W        W31493  11.696   7.349  14.843 -0.2982  0.0650 -0.1467
15420W        W31494   6.517  10.482   2.385 -0.0934  0.0659  0.0910
15421W        W31495  15.624   9.397   1.796 -0.2286 -0.1115  0.3550
15422W        W31496  13.933  16.080   2.711  0.1553  0.0582  0.1154
15423W        W31497  13.701   6.967   2.952 -0.1242 -0.0473  0.0070
15424W        W31498  10.210  18.440  12.339 -0.1076 -0.0765 -0.1315
15425W        W31499  18.028  11.530   0.128  0.0587 -0.0897 -0.2701
15426W        W31500  10.933  14.290  13.664  0.0440  0.1353 -0.0871
15427W        W31501   4.560  13.440   1.365 -0.1472 -0.0873  0.1124
15428W        W31502   9.193  18.118   0.172  0.0536 -0.1759  0.2772
15429W        W31503   0.480   9.954   4.151  0.0511  0.4532 -0.0992
15430W        W31504   8.719  11.529  10.036 -0.0485 -0.2397 -0.1929
15431W        W31505   0.917   1.339   0.102 -0.4881 -0.4753  0.1571
15432W        W31506   2.147   4.133   0.230  0.2302  0.0025  0.0515
15433W        W31507  16.954   7.427  11.757  0.0423  0.5747 -0.5949
15434W        W31508  15.860  13.736   2.748  0.0003  0.0807 -0.0936
15435W        W31509  16.517  18.635   4.051  0.0155  0.0757  0.2879
15436W        W31510   0.403  16.062   3.312 -0.0719  0.2736  0.1432
15437W        W31511   5.296   7.688  13.210  0.0467  0.0237 -0.3086
15438W        W31512  18.345   7.420   3.954  0.2139 -0.1769  0.1560
15439W        W31513  13.765  10.221   5.088 -0.3154 -0.1839  0.1126
15440W        W31514   7.966  15.392   1.132 -0.2132  0.1366 -0.0061
15441W        W31515  15.503  18.526  11.475  0.1639  0.0435 -0.2996
15442W        W31516  12.444  13.082  12.661 -0.0836  0.2355  0.0035
15443W        W31517   2.538   6.299   0.347 -0.0412  0.1819  0.1336
15444W        W31518  18.302  18.597  12.073  0.1424 -0.2529  0.1540
15445W        W31519   4.017   6.299  12.528 -0.1610 -0.0366 -0.1364
15446W        W31520  18.494   1.939  10.901 -0.0405 -0.0671  0.3905
15447W        W31521   3.345  17.560  14.074 -0.1318  0.2908  0.0446
15448W        W31522   5.031  18.877   1.356 -0.1715  0.2184  0.0225
15449W        W31523   6.792  14.543  12.547  0.0461 -0.0001 -0.3811
15450W        W31524  17.811  17.380   3.091 -0.1642 -0.1611  0.0068
15451W        W31525   9.543   8.805  11.541 -0.0957  0.2605  0.0196
15452W        W31526   1.190   4.819   1.397 -0.0200  0.0648  0.0746
15453W        W31527  18.588  18.882  14.307  0.0127  0.3980  0.0492
15454W        W31528   9.991  16.548   0.033  0.0042 -0.5790 -0.2019
15455W        W31529  12.157   1.886   2.832  0.0816  0.0429  0.3142
15456W        W31530   8.359   3.715  10.993  0.2690  0.2826  0.2418
15457W        W31531  13.416   9.200   1.784  0.2120 -0.1566  0.3474
15458W        W31532   9.245  16.355  14.790  0.2658  0.0805  0.1049
15459W        W31533   7.955   9.310   5.371 -0.1912  0.1325 -0.1218
15460W        W31534  13.572   6.602  14.835  0.0715 -0.0942  0.3201
15461W        W31535  13.363   3.094  14.077  0.0577  0.1420  0.0358
15462W        W31536  12.270   7.535   5.327  0.1182  0.0124 -0.0550
15463W        W31537  14.125  15.508   2.799  0.2081  0.1810  0.1200
15464W        W31538   9.153   1.463   0.293  0.2666  0.0695 -0.1722
15465W        W31539  14.685   7.349  13.150 -0.1825 -0.0870  0.0789
15466W        W31540   7.983  13.656  11.426 -0.2153  0.2611 -0.0989
15467W        W31541   8.370   8.342  11.351 -0.3926 -0.3901  0.0220
15468W        W31542   5.387   2.421  12.137 -0.0170 -0.0653  0.0793
15469W        W31543  14.501  11.628  14.170  0.0072  0.2038  0.0079
15470W        W31544   4.181   0.652  10.982 -0.0368  0.3682  0.3861
15471W        W31545  14.469   2.574   4.695  0.0635 -0.1179 -0.0463
15472W        W31546  11.378   5.765  11.177 -0.0311  0.1376 -0.0165
15473W        W31547  16.642  13.182   1.850  0.1490 -0.3236 -0.1713
15474W        W31548   1.202   1.881  13.861 -0.0666 -0.1850 -0.0438
15475W        W31549  12.895  16.573   0.193 -0.0600  0.1899  0.2853
15476W        W31550  12.552   8.874  12.189 -0.4242 -0.1907  0.1721
15477W        W31551  11.306   2.691   3.091 -0.0041 -0.2061 -0.0898
15478W        W31552   2.034   4.755  13.300 -0.3154  0.0197 -0.0540
15479W        W31553   7.790   7.078   2.136  0.2014 -0.0941  0.0379
15480W        W31554   4.773  14.366  14.185  0.1301  0.3835  0.1556
15481W        W31555  16.709  17.381   1.883 -0.2131  0.0704  0.3251
15482W        W31556   6.751  13.460   3.324 -0.0006 -0.0418 -0.1309
15483W        W31557   7.926   6.181   3.049  0.2564  0.0724  0.1993
15484W        W31558   5.570   2.864   3.128  0.0212  0.0704 -0.0889
15485W        W31559   5.911   7.951  10.809 -0.1421  0.0759  0.2424
15486W        W31560   7.770   6.669   2.616  0.1688  0.0142 -0.3043
15487W        W31561   8.923  18.199  12.621  0.2698 -0.1309  0.0825
15488W        W31562   7.171   0.726  13.775  0.0978 -0.1094  0.3281
15489W        W31563  19.091   7.170   5.059  0.1220  0.1111 -0.0095
15490W        W31564   8.838  18.610  11.667  0.0103 -0.0390  0.2877
15491W        W31565   9.069  10.168   0.590 -0.1460 -0.2041 -0.2061
15492W        W31566   6.827   1.038  10.200 -0.0187 -0.0467 -0.0612
15493W        W31567   6.385   0.012   2.860  0.3043  0.5849  0.0597
15494W        W31568   5.486  14.918   4.495 -0.0337  0.1437  0.2050
15495W        W31569  17.487   1.914  14.105 -0.2978  0.0941 -0.1807
15496W        W31570  11.472   5.896  11.912 -0.2494 -0.0538 -0.0085
15497W        W31571  14.408   3.713   4.269  0.0124 -0.2520 -0.1679
15498W        W31572  14.508  15.502   5.183  0.3302 -0.2661  0.0578
15499W        W31573  18.575   7.819  14.271 -0.0731  0.0451  0.1722
15500W        W31574   4.284  17.398  12.564  0.1189 -0.1462 -0.0586
15501W        W31575  12.100   1.087   3.216  0.0343  0.1361 -0.0638
15502W        W31576  10.298   6.325  11.597  0.0555  0.0127  0.1818
15503W        W31577   7.943  10.302  10.886 -0.0542 -0.3384 -0.3563
15504W        W31578  17.816  15.657  11.681  0.3086 -0.2834 -0.1400
15505W        W31579   0.269  15.403  11.135 -0.4461 -0.3096 -0.3372
15506W        W31580  10.017  15.513  11.378  0.1232 -0.0690 -0.2157
15507W        W31581  10.342  17.836  12.401 -0.1147  0.2764 -0.0407
15508W        W31582   8.171   4.450   2.694 -0.0934  0.1070  0.2960
15509W        W31583  14.365   2.258   1.627 -0.0289 -0.0447  0.0139
15510W        W31584  18.032  12.038  11.059 -0.3731 -0.3193 -0.1356
15511W        W31585   0.030   9.668  12.587 -0.0311  0.1405  0.2462
15512W        W31586   8.246  12.347   5.411 -0.0678 -0.0529  0.1437
15513W        W31587   4.111  11.714  10.362 -0.1699  0.2384  0.0979
15514W        W31588  19.308   5.058   1.957 -0.1159 -0.0550  0.0416
15515W        W31589   5.895  10.446  10.921 -0.0139 -0.0356 -0.2302
15516W        W31590  18.102   8.283   4.837  0.2938  0.0305 -0.2884
15517W        W31591  12.206   6.515   3.831  0.1061 -0.0373 -0.1371
15518W        W31592   4.079  18.027  11.965 -0.0789 -0.3067  0.0010
15519W        W31593   0.230   8.550   6.033 -0.4269 -0.3117 -0.2467
15520W        W31594   3.734   6.114  12.113  0.0243  0.1679  0.1825
15521W        W31595  10.368   3.905   0.423  0.3583  0.1148 -0.1319
15522W        W31596  15.239   8.844   5.127  0.0230  0.1470  0.0403
15523W        W31597  16.249   4.015   0.427  0.2304 -0.2205  0.3556
15524W        W31598   3.673   2.527   2.310 -0.2488 -0.0523  0.0768
15525W        W31599  10.881   6.008  10.407 -0.2048  0.1008 -0.3260
15526W        W31600   9.020  10.062  14.147 -0.1657 -0.1121 -0.0909
15527W        W31601  13.543  13.899   0.413 -0.0808 -0.2364 -0.2253
15528W        W31602  11.005   5.298  12.104 -0.1254 -0.1192 -0.2698
15529W        W31603   3.718   4.208  14.960  0.1914  0.0247 -0.0134
15530W        W31604  18.158  14.838   3.253  0.2528 -0.3315  0.0535
15531W        W31605   1.162   9.888  12.717  0.2425  0.1284 -0.2706
15532W        W31606   1.884  11.936  12.670 -0.1206 -0.1615  0.0671
15533W        W31607   3.346   9.150  14.956  0.1373  0.0612  0.3378
15534W        W31608  18.191  19.019   4.062  0.5171  0.2018  0.1867
15535W        W31609  19.309   1.441  13.148  0.0679 -0.1260 -0.0479
15536W        W31610   0.664  11.698   5.080 -0.1652 -0.0710  0.2298
15537W        W31611   8.499   9.586   0.328 -0.0591 -0.0502 -0.3147
15538W        W31612  14.940  13.524   2.994  0.1003  0.0088 -0.0476
15539W        W31613  18.516  14.640   4.083 -0.3299 -0.0414 -0.0538
15540W        W31614   8.239  14.962   3.195 -0.1676  0.0050  0.2380
15541W        W31615  18.623   1.816  10.475 -0.3850 -0.1776  0.0419
15542W        W31616   3.052  16.442   2.123 -0.0508 -0.0442  0.3129
15543W        W31617  15.800   8.137   4.319 -0.1834  0.2636 -0.0929
15544W        W31618  15.263  13.273  14.356  0.1418  0.0998  0.0152
15545W        W31619  19.024   3.217   1.458 -0.1673 -0.3414  0.1621
15546W        W31620  13.795  16.722   9.467 -0.0137  0.1791 -0.0366
15547W        W31621   8.830   8.968  14.234 -0.2670 -0.5334  0.2312
15548W        W31622   3.592  17.634  11.918 -0.1802  0.0660 -0.0507
15549W        W31623  10.049  15.367   1.722 -0.0287 -0.0693  0.0013
15550W        W31624  10.521   6.528   3.606 -0.3212 -0.2107  0.0470
15551W        W31625  10.881   2.524  14.446 -0.2767 -0.2150 -0.3343
15552W        W31626  16.944  12.808   3.765 -0.5696  0.2247  0.3039
15553W        W31627  13.987  16.901  14.457 -0.0296 -0.1473 -0.1350
15554W        W31628  15.503  11.060   4.984  0.2024  0.0437  0.4020
15555W        W31629  11.123  18.743  10.882  0.1184  0.4473  0.3557
15556W        W31630   7.071  10.740   2.488 -0.2299 -0.1237 -0.0769
15557W        W31631   2.104   5.225  13.820 -0.1299 -0.4802  0.1799
15558W        W31632  16.527   2.132  11.481  0.0115 -0.1343 -0.1437
15559W        W31633   5.286  19.143   2.077 -0.2354 -0.2420 -0.1447
15560W        W31634   8.332  11.461  10.381  0.3343 -0.0600  0.0138
15561W        W31635  12.332  13.736  10.369 -0.1772 -0.0530  0.0658
15562W        W31636   8.307   8.779   2.818 -0.0999  0.3630 -0.2316
15563W        W31637  18.769  13.430   0.572 -0.0295 -0.0541  0.1351
15564W        W31638  18.954   7.557  12.953  0.0327 -0.0572 -0.3846
15565W        W31639   4.943  11.459   9.383 -0.1386  0.1490 -0.0541
15566W        W31640  15.517   4.508  13.469 -0.1458  0.0405 -0.2505
15567W        W31641  11.387   4.935   3.144  0.0413  0.0482 -0.1206
15568W        W31642  12.148  11.924   0.387  0.0152 -0.1314  0.0938
15569W        W31643   2.407   0.708  12.846 -0.0939 -0.1681  0.0229
15570W        W31644   4.418  19.328   4.612  0.2281  0.2524  0.0023
15571W        W31645   3.674  18.445   3.830 -0.1231  0.3724 -0.0452
15572W        W31646   6.852   7.755  11.763  0.0536 -0.3232 -0.1456
15573W        W31647   9.116   1.656   9.910 -0.1198  0.0204 -0.1758
15574W        W31648   9.249   9.410   1.863 -0.0589 -0.1201 -0.2385
15575W        W31649   2.770   2.046  12.347 -0.1322  0.0004 -0.1658
15576W        W31650  12.998   7.705   2.255  0.1574  0.3132  0.1004
15577W        W31651   3.521  14.780   3.776  0.2050  0.3931  0.0872
15578W        W31652   2.183  19.252  14.264 -0.4559 -0.1383 -0.0621
15579W        W31653   9.890   4.994   4.670 -0.3032 -0.1899  0.1066
15580W        W31654   8.059   7.121   4.931 -0.0223  0.1662 -0.0138
15581W        W31655   5.694   1.146  11.903  0.1098 -0.0365 -0.1088
15582W        W31656   0.390   2.485   3.467 -0.0674  0.0498  0.1008
15583W        W31657   1.772   5.124   2.864  0.0885  0.1476  0.2210
15584W        W31658  13.721   8.364   4.482 -0.1295 -0.1442  0.0867
15585W        W31659  18.157   3.848  13.240 -0.0422 -0.1029  0.1147
15586W        W31660   1.425  14.672   4.023 -0.2028 -0.2033  0.0601
15587W        W31661   7.756  11.223   0.398  0.1209 -0.1088  0.2265
15588W        W31662  15.092  15.937   2.645 -0.1656 -0.0416  0.1791
15589W        W31663   1.669  16.036  14.462  0.0190  0.2379 -0.1345
15590W        W31664  10.517   5.165   3.253  0.1209  0.2845  0.1071
15591W        W31665  13.570  12.904  14.302  0.5040  0.0338  0.1224
15592W        W31666  18.510   1.571  12.142 -0.1165 -0.0196  0.2313
15593W        W31667  17.134   2.382   2.585 -0.3076 -0.1072 -0.2798
15594W        W31668  10.039   8.495   1.192  0.0606 -0.0262 -0.2531
15595W        W31669   2.695  15.793  14.123 -0.0607 -0.1303  0.1929
15596W        W31670   2.379   6.758   0.200 -0.1117 -0.0515  0.0057
15597W        W31671  18.708   5.631  12.284  0.0797  0.1944 -0.0995
15598W        W31672   1.866   7.268   2.754 -0.1637  0.1488  0.0357
15599W        W31673  16.302   6.745  13.919 -0.1068 -0.0023  0.1595
15600W        W31674  19.307   9.110  11.739  0.2322 -0.3597  0.1096
15601W        W31675  13.783   0.670   1.235  0.0277  0.0602  0.0598
15602W        W31676  15.644   1.851   0.545 -0.2374 -0.1697 -0.0609
15603W        W31677   9.248  10.083  10.836  0.0793  0.2280  0.0604
15604W        W31678  15.298   6.635   3.838  0.0891  0.3330 -0.0644
15605W        W31679  13.204   8.973  11.506 -0.0033 -0.1766 -0.0623
15606W        W31680  18.471  16.525   0.414  0.2468  0.1919 -0.0519
15607W        W31681   1.773   6.753   2.000  0.0862 -0.3974 -0.4315
15608W        W31682  17.506   5.869   2.426 -0.1236 -0.0182 -0.0635
15609W        W31683  17.987   3.581  11.263 -0.1798  0.2026 -0.1414
15610W        W31684   1.095   4.863   4.777 -0.0104  0.2513  0.2919
15611W        W31685   4.944   2.435  11.712  0.1509  0.0092  0.3109
15612W        W31686   7.014   8.408   3.977  0.3311 -0.0205  0.0365
15613W        W31687   1.560  18.113  11.092  0.2553 -0.0641  0.3205
15614W        W31688   4.681   4.049  13.248  0.1154 -0.0015  0.2939
15615W        W31689  18.725   9.611   3.509  0.0581  0.2585 -0.0049
15616W        W31690  11.219   2.260   5.379 -0.2267  0.1095  0.1939
15617W        W31691   0.167  12.909   2.255 -0.1618 -0.1024  0.2315
15618W        W31692  12.317  12.028  12.335  0.2288  0.4614 -0.4120
15619W        W31693   6.094  16.800   4.533  0.0114  0.3078 -0.3551
15620W        W31694   8.204  13.574   9.748  0.0400 -0.1068 -0.1067
15621W        W31695  12.341   3.579  10.828 -0.0351  0.4083 -0.0236
15622W        W31696   7.374   8.698  12.833 -0.2156 -0.3785 -0.1651
15623W        W31697   9.741   6.441   2.146  0.1051  0.0809 -0.1536
15624W        W31698   1.274  12.494   2.524  0.1170 -0.1189 -0.0031
15625W        W31699   9.964   5.177  13.157  0.1729  0.0649 -0.1474
15626W        W31700   3.101  10.207   4.038  0.0954  0.0780 -0.0145
15627W        W31701  17.492  19.284  12.169  0.2694  0.2468  0.1049
15628W        W31702   8.525   5.573  14.177  0.1949 -0.2684 -0.0112
15629W        W31703  13.468   9.397  13.189 -0.1099 -0.1659 -0.2671
15630W        W31704   4.430   8.098  13.403  0.3797 -0.2645  0.0108
15631W        W31705   8.766   5.873   3.078  0.5485  0.1222 -0.0114
15632W        W31706  15.927  12.524  11.866 -0.2067 -0.2036 -0.1522
15633W        W31707  14.176   5.874  12.299 -0.2945  0.0015  0.0961
15634W        W31708  16.402  13.534  13.423 -0.1046 -0.1416 -0.1626
15635W        W31709  12.407  18.551  11.519 -0.1336  0.0790 -0.1736
15636W        W31710  17.771   9.733   0.412  0.2274  0.0363 -0.0785
15637W        W31711  10.783  15.331  11.966 -0.0626  0.1148 -0.0240
15638W        W31712  15.111   7.063  11.290 -0.0530  0.0179 -0.0526
15639W        W31713  18.989  10.082   2.993  0.0229  0.1100 -0.0205
15640W        W31714  18.293   8.848   1.458 -0.0418  0.1262  0.0622
15641W        W31715   4.367  14.722   4.031 -0.0065 -0.0101 -0.1191
15642W        W31716  14.176  17.682  13.829  0.0451 -0.1768 -0.0063
15643W        W31717   8.170  11.090   1.225  0.6392  0.1046 -0.2939
15644W        W31718  10.445  12.517  10.292 -0.0981  0.1462 -0.2268
15645W        W31719  16.376  16.175  14.858  0.2227 -0.0606  0.0186
15646W        W31720   9.120  17.317  12.628 -0.1242  0.0416 -0.1231
15647W        W31721  18.902  14.389   2.231 -0.0678  0.3951  0.0579
15648W        W31722   8.459   4.540  12.743 -0.0890  0.0862 -0.4343
15649W        W31723   5.757   4.981   2.493 -0.0597 -0.0103  0.0652
15650W        W31724   5.389  11.394   5.191 -0.2337 -0.2862  0.0132
15651W        W31725  10.004   1.876   3.489 -0.2281  0.2109  0.0241
15652W        W31726   9.458  14.444   9.636  0.1789 -0.0407 -0.1671
15653W        W31727  17.843  18.459   3.529 -0.0522  0.0631  0.0910
15654W        W31728   3.640  18.719  13.958  0.0033 -0.0544  0.0045
15655W        W31729  10.279   3.055   2.240  0.1814  0.0465 -0.3012
15656W        W31730   5.318  12.474   1.878 -0.3043 -0.0433 -0.0217
15657W        W31731  13.823  13.246   0.537 -0.0501 -0.3814  0.1153
15658W        W31732   3.150   4.654   2.251 -0.3681  0.0079 -0.0288
15659W        W31733   4.647  14.288   4.397  0.2562  0.0025 -0.1867
15660W        W31734   3.292   0.605   3.374  0.2135  0.0186 -0.4466
15661W        W31735   5.292   4.792   4.917 -0.0111 -0.1794 -0.2617
15662W        W31736   2.955   0.156  11.566  0.0208 -0.3556  0.2863
15663W        W31737   8.370  15.300   4.156 -0.6212 -0.3236  0.4544
15664W        W31738   8.913   3.855  12.569 -0.0787 -0.1961  0.1092
15665W        W31739   3.896   9.349   1.179  0.1091  0.0605  0.2069
15666W        W31740  16.505  17.501  11.887  0.0513  0.1720 -0.0535
15667W        W31741   4.406  16.964  11.527  0.1562 -0.1285  0.0346
15668W        W31742  13.768  12.140   4.894 -0.0970 -0.0122  0.0066
15669W        W31743   8.502  13.289   4.448 -0.0512  0.3324  0.1981
15670W        W31744  14.332  13.742   5.075 -0.1587  0.0560 -0.1242
15671W        W31745  15.768   7.998   1.450 -0.1182 -0.0866 -0.0138
15672W        W31746  10.035   8.840   1.615  0.0091  0.0713 -0.0508
15673W        W31747   6.834  11.355  14.268  0.1483  0.1353  0.1742
15674W        W31748  18.512  11.997  12.471 -0.0886 -0.1115  0.0365
15675W        W31749  18.992  15.084  12.519  0.3682 -0.1895 -0.2099
15676W        W31750  12.971  11.438  12.449 -0.3444  0.1827 -0.0183
15677W        W31751  14.782   5.596  11.704 -0.1052 -0.1517  0.0472
15678W        W31752   8.132  13.608   1.246 -0.2725  0.1216  0.0601
15679W        W31753   6.747   6.450   0.489  0.0972  0.0353 -0.1060
15680W        W31754   8.511   3.438   1.950 -0.3338 -0.0489  0.1111
15681W        W31755  13.655  19.232   4.875 -0.1927 -0.2295  0.2655
15682W        W31756   3.888  17.052   2.364  0.1913 -0.4127  0.0692
15683W        W31757   0.024  15.458  14.535  0.1226 -0.0046  0.0196
15684W        W31758   5.796   1.523   1.853  0.0282  0.3671 -0.2095
15685W        W31759   2.595   3.461   4.813  0.1022 -0.1311  0.1485
15686W        W31760   4.248   0.362   4.960 -0.2604 -0.2648  0.0357
15687W        W31761  14.043   3.336   4.480 -0.2904  0.2050  0.0387
15688W        W31762  13.764   9.031   0.581  0.1842 -0.1326  0.1906
15689W        W31763   3.591   6.115  11.529 -0.1598  0.5797  0.0729
15690W        W31764  14.013  17.304   1.334 -0.0871  0.5545 -0.0546
15691W        W31765  13.334  16.501   2.461  0.1254  0.2502 -0.0091
15692W        W31766   1.981   2.114   0.371 -0.0773 -0.0607  0.0703
15693W        W31767   4.144  17.638   1.257 -0.1133 -0.1753 -0.2632
15694W        W31768   1.583   6.866   0.271 -0.1037  0.2163  0.2351
15695W        W31769   2.012   6.448   0.321 -0.0833  0.0611 -0.0969
15696W        W31770  10.898  14.869  10.025  0.4714  0.1595  0.0325
15697W        W31771  16.314   3.849  13.518  0.0143  0.0932  0.0294
15698W        W31772   8.323   8.999  11.003  0.3386 -0.1265 -0.1120
15699W        W31773  10.478  11.151   0.975  0.0902  0.2256  0.1919
15700W        W31774   1.028   4.803   0.895  0.0611  0.0598  0.1550
15701W        W31775   1.397  19.181   3.756 -0.0480 -0.0425  0.0196
15702W        W31776  17.653   6.033   4.138  0.0572 -0.2236  0.1164
15703W        W31777  18.332  18.028  10.865  0.1081  0.3026  0.1721
15704W        W31778   6.960  10.224   5.035  0.3614 -0.0135 -0.1154
15705W        W31779   0.256   7.398   2.655 -0.0230  0.3413 -0.0178
15706W        W31780   3.057   3.026   0.044  0.0740 -0.2417 -0.0301
15707W        W31781   5.658   5.793   3.571  0.2716 -0.1023  0.1650
15708W        W31782  17.366   0.511   0.158  0.1554 -0.3118 -0.3116
15709W        W31783  12.107  19.079   4.586 -0.0442  0.0308  0.0445
15710W        W31784   8.636  12.998   2.649  0.2105  0.0791 -0.1503
15711W        W31785  11.468  11.085   4.827 -0.2773  0.0119 -0.0521
15712W        W31786  17.785  14.880  10.937  0.1034 -0.2990 -0.0689
15713W        W31787  15.331   6.421   3.050  0.1451 -0.1165  0.0921
15714W        W31788  17.439  12.896   0.188  0.1985  0.0211 -0.0972
15715W        W31789  11.879   0.939   4.799 -0.0057  0.1462  0.0556
15716W        W31790   1.807   2.861  11.233 -0.2118 -0.4093  0.2420
15717W        W31791   7.005  17.239   4.266  0.0731  0.0875 -0.2715
15718W        W31792  18.454  16.118   2.634  0.0966  0.0327  0.2910
15719W        W31793   6.302  11.995  13.570 -0.2160 -0.3818  0.4693
15720W        W31794   1.898  15.147  14.319 -0.0699 -0.0313 -0.1796
15721W        W31795  15.841  12.705  13.511 -0.2199 -0.0705 -0.1873
15722W        W31796  14.030   2.948  10.443  0.0240  0.1896  0.3541
15723W        W31797   1.994   2.306  14.832 -0.1143 -0.0844  0.0793
15724W        W31798   7.664  17.462  11.122  0.0419 -0.0965 -0.1582
15725W        W31799  14.688   7.630   1.662 -0.2383 -0.2031  0.2240
15726W        W31800   7.597   0.747  12.190 -0.4093  0.3127  0.3538
15727W        W31801  10.939  17.906   0.134 -0.1273 -0.2444 -0.0221
15728W        W31802  19.249   4.043   2.692 -0.3336  0.2700 -0.4058
15729W        W31803   9.509   3.755  11.912 -0.0402  0.0083 -0.4114
15730W        W31804  17.524   0.743   4.803 -0.1730 -0.0763  0.2034
15731W        W31805   0.292   7.243   3.421 -0.1462  0.0080  0.4489
15732W        W31806   0.922   9.996  14.178 -0.0432 -0.1343 -0.0403
15733W        W31807  13.122   9.116   2.167  0.0837 -0.1550 -0.0108
15734W        W31808   2.034  18.404  11.158 -0.1825 -0.1434  0.2813
15735W        W31809   0.203   0.435   5.582  0.1928 -0.0315 -0.0055
15736W        W31810   3.993  12.503   3.893 -0.4154  0.2368  0.0560
15737W        W31811   4.841   2.628   3.943  0.0563 -0.0317 -0.0797
15738W        W31812  11.847   1.149   3.725  0.3370  0.0614  0.3156
15739W        W31813  17.705  16.882  12.121  0.2693 -0.0171  0.1370
15740W        W31814  15.521   9.118  11.436  0.3046  0.0549  0.3068
15741W        W31815  12.364  13.835   3.994  0.1627 -0.0980  0.1769
15742W        W31816   0.424   8.381  13.614 -0.0208 -0.3813 -0.1081
15743W        W31817   4.152   5.708  14.897 -0.1556  0.1237 -0.1321
15744W        W31818   2.798  10.544   1.740 -0.0503 -0.0545  0.1998
15745W        W31819   4.588  13.826   4.214  0.2231  0.0593  0.0469
15746W        W31820   5.111   6.540   3.195  0.2442 -0.0919 -0.0704
15747W        W31821   3.593  14.690   0.103  0.1915  0.3453  0.1177
15748W        W31822  14.921   1.536  13.404  0.1594  0.0667  0.2429
15749W        W31823  15.207  13.177  12.868  0.0482 -0.2431  0.1771
15750W        W31824   5.964   2.805   0.939 -0.0457  0.2157  0.1447
15751W        W31825   2.318   6.087  14.367 -0.0073 -0.0579  0.0583
15752W        W31826  10.528  18.108   3.632 -0.0241  0.0980  0.0400
15753W        W31827   7.084   7.515  10.950  0.0585 -0.0096  0.2974
15754W        W31828   1.666   8.499   4.335 -0.0273 -0.3940  0.1982
15755W        W31829   2.175   2.900   3.533 -0.0367  0.1487 -0.1616
15756W        W31830  15.541  11.080  14.287  0.2734 -0.1268 -0.1604
15757W        W31831  14.586   7.689   4.956  0.0708 -0.1077  0.1097
15758W        W31832  15.707   1.799  12.749  0.0946 -0.1991  0.1138
15759W        W31833   5.414  14.691   4.018 -0.0502  0.0507 -0.3167
15760W        W31834  15.902   1.445   2.480  0.2055 -0.0836  0.0733
15761W        W31835  16.159  11.237  10.715  0.1318  0.2414  0.0981
15762W        W31836   8.633  12.542  13.210 -0.4819  0.2064  0.0801
15763W        W31837   6.439  17.832  10.245  0.3153  0.0568 -0.1079
15764W        W31838   2.766  17.813  11.595  0.0194 -0.2179  0.1970
15765W        W31839   4.899   1.381  10.922  0.0012 -0.0082 -0.1997
15766W        W31840  15.412   6.119   3.900  0.2969 -0.0482  0.3611
15767W        W31841  18.891   6.343  12.531  0.0946  0.3058 -0.0704
15768W        W31842  18.433  15.909   1.532  0.2272  0.0274  0.2338
15769W        W31843  17.267   4.871  13.577  0.0760  0.1201  0.1894
15770W        W31844   2.371  12.164   3.353 -0.1189  0.0461 -0.2586
15771W        W31845   3.904   0.467  12.130  0.0274 -0.2983 -0.0346
15772W        W31846  12.310   4.362   0.010 -0.0560 -0.0067 -0.4246
15773W        W31847  11.094  14.897   1.750 -0.0869 -0.0142  0.0535
15774W        W31848  15.709   3.250   3.520  0.0169  0.0201  0.1283
15775W        W31849   0.561   4.858  10.446 -0.0421 -0.2455 -0.3129
15776W        W31850  12.025  16.196   2.377 -0.0640  0.0593 -0.2567
15777W        W31851   5.206   4.153   3.960  0.1589  0.3133 -0.2102
15778W        W31852   0.115   1.730   4.551  0.0925 -0.0427 -0.1966
15779W        W31853   9.100   4.010   4.509 -0.2781  0.0305  0.0243
15780W        W31854   6.371   2.481  10.244 -0.1089 -0.0902  0.0142
15781W        W31855   3.612  11.527  10.636 -0.1164 -0.0143  0.0872
15782W        W31856  16.912  16.919   2.021 -0.3147  0.0180  0.1824
15783W        W31857   9.936   0.504   3.858  0.3163  0.0018 -0.0781
15784W        W31858   0.271  17.232   4.138  0.2731  0.4872 -0.1257
15785W        W31859   2.906   8.864   0.894  0.1902 -0.0952  0.0883
15786W        W31860  18.736  14.243   2.688 -0.0817  0.1436 -0.3627
15787W        W31861   7.989   7.284  10.716  0.0572 -0.2111  0.1943
15788W        W31862  15.989   2.790  11.951  0.0512 -0.1048 -0.4310
15789W        W31863   0.564   8.517  12.226 -0.0708 -0.2193 -0.0749
15790W        W31864  17.983  10.891  11.342 -0.0453 -0.1909  0.2619
15791W        W31865  18.888  15.552   2.960  0.2838  0.0729  0.1770
15792W        W31866   5.568  12.161   1.585  0.1192 -0.2076  0.1011
15793W        W31867   9.289  10.473   9.584  0.1261 -0.0454  0.1687
15794W        W31868   3.060   0.686   2.234  0.0704  0.1660  0.0882
15795W        W31869   8.026   2.753   1.533 -0.0446 -0.1015  0.0388
15796W        W31870   4.256   6.155   2.163 -0.1694 -0.0375  0.1704
15797W        W31871  17.327  10.586  10.921 -0.2035 -0.2303 -0.1636
15798W        W31872   5.455   7.934  11.075 -0.1547  0.0807  0.0504
15799W        W31873  10.333  13.874   2.437 -0.2157 -0.1704  0.0020
15800W        W31874  16.179  16.627  12.574  0.2144  0.2566 -0.0261
15801W        W31875  11.284  10.290   3.327  0.1366  0.1791  0.2158
15802W        W31876   1.081   4.223  14.164  0.3773 -0.0961  0.0838
15803W        W31877  15.223   1.596  14.221  0.1740  0.1120 -0.2467
15804W        W31878  18.205   8.560   0.139 -0.1022  0.0653  0.0705
15805W        W31879  14.633   1.843   2.924 -0.0919  0.1433 -0.0270
15806W        W31880   8.860   0.972   5.171  0.1456  0.2031  0.1724
15807W        W31881   2.057   2.501   2.219  0.2716  0.1028 -0.1053
15808W        W31882  15.230   8.649  11.415 -0.1194 -0.1319 -0.0330
15809W        W31883   6.557   1.959   2.770  0.3779 -0.0898  0.1497
15810W        W31884   5.681  19.166  12.207 -0.0376 -0.3149 -0.0942
15811W        W31885   0.796   0.216  11.383 -0.3295  0.1863  0.0224
15812W        W31886  18.193   8.549   1.065  0.2822 -0.3459  0.0053
15813W        W31887   0.677   5.867   2.253  0.0315  0.2411 -0.1975
15814W        W31888   1.246   1.836  12.778 -0.1934 -0.2350  0.2071
15815W        W31889  16.794   1.396  10.374  0.1029 -0.2750 -0.1762
15816W        W31890  13.200  14.942  13.029 -0.1027 -0.2556 -0.2796
15817W        W31891  18.617  14.173  12.569  0.0354  0.2729 -0.0633
15818W        W31892   7.936  10.803  12.743  0.3241  0.1181  0.0384
15819W        W31893  13.272  14.900  12.167 -0.2941  0.1034  0.0839
15820W        W31894  11.897  18.822   1.412  0.2064  0.1278  0.2396
15821W        W31895   6.831   7.248  11.747  0.0634 -0.1575 -0.0769
15822W        W31896   3.280  18.737   2.496  0.1116  0.0590  0.0904
15823W        W31897   0.147   5.853  13.965 -0.0769 -0.2817 -0.0263
15824W        W31898  17.692   4.613   5.023  0.4117 -0.1188  0.1448
15825W        W31899   8.938   6.362   3.081  0.2705 -0.0260 -0.0999
15826W        W31900  16.510  15.901   3.680 -0.1187 -0.2200  0.1661
15827W        W31901   3.113  16.640   0.708  0.4091  0.2424 -0.1271
15828W        W31902   3.980  11.765   1.228 -0.1612 -0.1385 -0.1632
15829W        W31903   5.577   0.984   9.848  0.0641  0.1263  0.0934
15830W        W31904   1.656   3.818   1.605  0.0422 -0.0414  0.0840
15831W        W31905  15.811   9.963  11.767  0.0742  0.0877  0.1815
15832W        W31906   5.151   5.837   5.801  0.1448 -0.0903  0.0656
15833W        W31907  16.466   7.617  13.940  0.0006  0.1562 -0.3647
15834W        W31908   4.145  12.073   0.163  0.2506  0.1322 -0.2245
15835W        W31909  16.127   9.991   0.734 -0.2349 -0.0813  0.1607
15836W        W31910  13.300   6.954   1.163 -0.1458 -0.1259  0.1854
15837W        W31911   7.953   7.914   5.493 -0.4149 -0.0126 -0.2133
15838W        W31912   4.225   8.810   0.295 -0.1205  0.0484  0.2001
15839W        W31913   7.984  12.878   1.748 -0.1882 -0.0415 -0.0034
15840W        W31914   9.827   7.672  12.000  0.1943  0.3343  0.1288
15841W        W31915   9.880  17.345   1.271 -0.1013 -0.1689  0.1867
15842W        W31916   1.279  16.332   3.107 -0.0351  0.2789  0.0894
15843W        W31917   8.076  10.016   5.090  0.2348 -0.0614  0.0373
15844W        W31918  14.674  16.228  12.417 -0.3423 -0.0462  0.1709
15845W        W31919  10.060   0.549  11.831  0.2925  0.0021 -0.3230
15846W        W31920   7.438  11.695   4.587  0.2546  0.0431 -0.3060
15847W        W31921   3.979   5.284  10.631 -0.0024 -0.1139 -0.0355
15848W        W31922   1.083   0.778   4.621 -0.0709 -0.3434  0.2633
15849W        W31923   4.101  14.787  12.378  0.1366  0.0359 -0.1457
15850W        W31924  14.069   0.009   0.933 -0.0075 -0.1100 -0.2530
15851W        W31925  17.045   3.878  11.900 -0.1260  0.2036  0.1171
15852W        W31926   9.123   2.860  12.976  0.0349  0.1844  0.2542
15853W        W31927  11.200   6.083  11.502 -0.2576 -0.0798  0.0912
15854W        W31928  16.287  11.402   2.854 -0.0725  0.0859 -0.2023
15855W        W31929   2.586  13.973   2.570  0.2913 -0.0504  0.2999
15856W        W31930   7.146  18.170   5.103  0.0305 -0.0284 -0.0382
15857W        W31931   1.589  14.714  11.303  0.1267 -0.0250 -0.0478
15858W        W31932  12.770   9.547   2.788 -0.0820 -0.1522  0.1449
15859W        W31933  14.663   0.982   3.799 -0.1429 -0.1056  0.2252
15860W        W31934   1.195   4.806   3.463  0.0958 -0.0846  0.1158
15861W        W31935   3.834  18.094   1.176 -0.1614  0.0203  0.2729
15862W        W31936   5.615  17.506  12.660 -0.0495  0.0827  0.0109
15863W        W31937   4.146  12.871   4.829  0.1956  0.1292 -0.0541
15864W        W31938  13.944  18.692   5.077  0.2248 -0.2115 -0.3353
15865W        W31939   3.868   1.784   0.612  0.1979 -0.1413  0.0277
15866W        W31940  10.621   8.425   4.016 -0.3910 -0.1180 -0.4019
15867W        W31941  15.993   3.316  13.869  0.2010 -0.2303  0.3149
15868W        W31942  15.493  15.510   5.313 -0.0469 -0.0036 -0.3026
15869W        W31943   0.718   1.458  10.985 -0.2111  0.0904 -0.0607
15870W        W31944   6.150  15.669  12.203  0.1450 -0.0021  0.0315
15871W        W31945   5.885  15.036   4.186  0.0450 -0.1739  0.0430
15872W        W31946  17.793  12.326  14.589  0.0192 -0.1234 -0.0006
15873W        W31947   7.968   0.438  10.505 -0.2846  0.3416  0.2887
15874W        W31948  16.890   3.395   1.583 -0.1430 -0.0218  0.0982
15875W        W31949  18.250  14.080  14.263 -0.2264  0.3281  0.2545
15876W        W31950  11.821   2.159  13.573 -0.0638  0.4564 -0.0445
15877W        W31951  10.745   9.192   1.059 -0.3357  0.2287 -0.1969
15878W        W31952   3.420   7.072  10.961  0.0826  0.1211 -0.1161
15879W        W31953  10.887  12.334   3.282 -0.0968 -0.0577 -0.1439
15880W        W31954  16.040   0.771   4.128 -0.0147 -0.2557 -0.0985
15881W        W31955   0.039   3.705   4.408 -0.4029  0.0687 -0.1026
15882W        W31956  11.875  16.816   4.933  0.0174  0.1193 -0.0885
15883W        W31957  19.001   0.929  13.892 -0.2078  0.2138  0.0542
15884W        W31958  14.287  12.423   0.596  0.1490 -0.0112 -0.2278
15885W        W31959  11.732   2.503   5.209 -0.0700  0.1396  0.0460
15886W        W31960   2.761  17.869  10.980 -0.0122 -0.1184 -0.1599
15887W        W31961  15.251  14.652   3.031 -0.1153  0.0397 -0.0804
15888W        W31962  17.198   4.891   4.745 -0.1895 -0.4908 -0.3831
15889W        W31963   8.309   3.020   1.882  0.3471  0.3015 -0.2984
15890W        W31964  19.046  15.428   4.414 -0.0266  0.0906 -0.2293
15891W        W31965  11.078  12.431  14.693 -0.1550  0.2410  0.0874
15892W        W31966  14.369  18.299   4.247  0.1153 -0.0710  0.1729
15893W        W31967  11.408   0.642   2.875 -0.0771  0.3493  0.3145
15894W        W31968   5.298   8.537   0.664  0.2306  0.1788  0.0490
15895W        W31969   9.651   8.062   3.911  0.0399 -0.2875 -0.1864
15896W        W31970   7.797  15.277   0.680  0.0699 -0.1781 -0.0458
15897W        W31971  14.006   2.403   4.697  0.0824 -0.2095  0.2412
15898W        W31972   2.574   4.147  13.503 -0.0601 -0.0382 -0.0555
15899W        W31973  14.765   9.324   1.330  0.1913 -0.2337  0.2087
15900W        W31974   8.815   7.876   4.452  0.0790  0.1955 -0.3156
15901W        W31975  15.281   0.439  12.101 -0.0603  0.3838 -0.2853
15902W        W31976   4.478   7.353  14.036  0.2730  0.1948  0.1800
15903W        W31977  14.550   4.647   5.113 -0.2263 -0.2762  0.0125
15904W        W31978  19.332   8.995   3.394 -0.2052 -0.0799 -0.0009
15905W        W31979   0.840  17.857  11.604  0.0171 -0.3269 -0.1713
15906W        W31980  17.974   3.363   1.648  0.1607 -0.0487  0.0958
15907W        W31981  11.587  13.469  10.667 -0.1972 -0.2574  0.1241
15908W        W31982   0.924  16.474  11.904 -0.0224 -0.2128 -0.1044
15909W        W31983  18.883   7.775   4.691 -0.0476 -0.1971  0.0178
15910W        W31984   8.176   2.533  11.769 -0.2143 -0.0207 -0.0393
15911W        W31985  11.925   9.980   1.445 -0.0326  0.3780  0.1904
15912W        W31986  18.642   2.727  13.847 -0.0409  0.3250  0.1148
15913W        W31987   6.627   4.525  13.888 -0.3214  0.0459  0.2467
15914W        W31988  18.656   5.156   3.872 -0.1010 -0.1383 -0.2130
15915W        W31989  18.365  12.987  14.716  0.2020  0.0644 -0.0005
15916W        W31990   8.566  18.812  13.405  0.3250 -0.2151 -0.0237
15917W        W31991   1.750   1.839   3.831  0.0899 -0.2458 -0.2679
15918W        W31992   7.775  18.775   3.915  0.0760  0.1024 -0.1874
15919W        W31993   2.862  17.258   3.747 -0.2076  0.2249  0.0734
15920W        W31994   0.947   4.380   1.136  0.0277  0.1453  0.2087
15921W        W31995   9.271   3.492  12.387  0.0390 -0.6573  0.0404
15922W        W31996   8.103   9.573   3.883  0.2067 -0.0393  0.2686
15923W        W31997   2.241   9.859  11.968 -0.0429  0.2502  0.0811
15924W        W31998  15.822   2.117  13.124  0.0055 -0.1424  0.0258
15925W        W31999  11.558  15.066   1.678 -0.3317  0.2762  0.2183
15926W        W32000   6.941   4.910  12.297 -0.0062  0.0817  0.1073
15927W        W32001  13.644   4.885  13.148 -0.1320 -0.2080 -0.1264
15928W        W32002   8.411  19.131   2.104 -0.2715 -0.2055  0.0445
15929W        W32003  15.053  16.926   3.237 -0.2442 -0.0608  0.3361
15930W        W32004   7.887   7.405   0.476 -0.0779  0.0130  0.3507
15931W        W32005  15.375  18.101   0.374  0.2332  0.0095  0.2993
15932W        W32006   5.532   9.773  12.316 -0.0285 -0.0840 -0.5469
15933W        W32007   2.924   0.308   0.420 -0.1344 -0.0817  0.1226
15934W        W32008   7.699   8.120   1.387  0.0944  0.1127 -0.0779
15935W        W32009   1.272  11.893  12.982 -0.2524 -0.2798  0.0713
15936W        W32010   3.766  13.215  10.123  0.0216 -0.2001 -0.0889
15937W        W32011  11.585   4.661  10.157 -0.1189  0.0848 -0.1762
15938W        W32012   0.276   5.063  11.387 -0.0832 -0.2005 -0.0703
15939W        W32013  19.249  19.270   4.731  0.2586  0.0611 -0.2060
15940W        W32014   6.868  10.014   0.195 -0.2200  0.2203 -0.2320
15941W        W32015   7.765   6.370   0.614 -0.0557 -0.0617 -0.3576
15942W        W32016   4.125  12.403   0.600 -0.2831 -0.1081  0.0001
15943W        W32017  15.331   3.504   0.463  0.1481  0.0587  0.0020
15944W        W32018  17.531   5.026  11.935 -0.1048  0.2920 -0.1452
15945W        W32019  13.406  11.339   5.300  0.1173  0.3112  0.0096
15946W        W32020   2.536   5.952   5.605 -0.3924  0.0990 -0.1114
15947W        W32021   6.188   2.529   1.252 -0.0809 -0.2284  0.0126
15948W        W32022  17.108  12.923   0.600 -0.3888 -0.1983  0.0413
15949W        W32023   3.171  10.432   1.430 -0.0678 -0.1159 -0.2016
15950W        W32024   6.108   0.836  13.048 -0.1400  0.0120  0.1098
15951W        W32025   6.179   3.035   0.159  0.1183  0.0559  0.0907
15952W        W32026   5.910   8.993   4.465  0.0915  0.0569 -0.2833
15953W        W32027  17.682  13.894  14.699 -0.0022  0.1287  0.2846
15954W        W32028   3.175  15.057  13.572 -0.3392 -0.1157  0.1624
15955W        W32029  18.122  15.884   4.086 -0.0040  0.4373  0.4404
15956W        W32030   4.717  15.969  13.992  0.0281 -0.2230 -0.2097
15957W        W32031  18.731  11.569   1.870  0.2011  0.1161 -0.0129
15958W        W32032   5.792   6.255   3.555  0.0253  0.1378 -0.3767
15959W        W32033  18.323  15.905   0.360 -0.0940  0.3365 -0.0091
15960W        W32034  13.455  10.319  10.176  0.0311  0.2318 -0.0669
15961W        W32035   1.184   4.288  13.681 -0.0602  0.0920 -0.1400
15962W        W32036  15.351  10.861  14.670 -0.0890  0.1381 -0.0051
15963W        W32037   3.362   4.084  12.984 -0.0974  0.1518 -0.1640
15964W        W32038   9.258  18.997  13.563 -0.2649 -0.1360  0.0106
15965W        W32039   6.927   1.446   1.560 -0.1869 -0.0843 -0.1133
15966W        W32040  15.802   2.491  14.104  0.0522  0.2571  0.1217
15967W        W32041   0.853  12.622  12.445  0.0913 -0.1555  0.0867
15968W        W32042   5.238   6.192  12.934 -0.0292  0.5355 -0.1065
15969W        W32043  17.266   3.746   1.950  0.2032  0.1925 -0.0470
15970W        W32044  13.039  19.252  14.842 -0.0188 -0.1482  0.2553
15971W        W32045  13.821   1.360  12.086 -0.1064  0.1975  0.0170
15972W        W32046  16.742   0.827   1.088  0.0849  0.1585 -0.1766
15973W        W32047   5.674  10.841   2.190  0.0488  0.4497 -0.1480
15974W        W32048  11.557  18.339   2.178  0.1446  0.1538  0.3381
15975W        W32049   0.393   9.723   0.401  0.0646  0.0831  0.0575
15976W        W32050   7.624  14.549   2.987  0.1731 -0.0361 -0.1036
15977W        W32051  17.108   7.931  12.912  0.1519  0.2480  0.2344
15978W        W32052  16.878   4.406  13.020 -0.1938 -0.1533 -0.0227
15979W        W32053   0.900  16.673   2.457  0.3278 -0.2078  0.1931
15980W        W32054   4.312  15.309  10.381 -0.1701 -0.0799 -0.1841
15981W        W32055  18.891   2.547   3.763 -0.2418 -0.1613  0.1877
15982W        W32056   2.166  12.958  10.643 -0.0401 -0.3853  0.2129
15983W        W32057  19.109  15.721  11.688  0.1761 -0.0774 -0.0690
15984W        W32058   1.339  10.126  14.501  0.2065 -0.1936  0.2900
15985W        W32059  13.985  13.951  11.828  0.1984 -0.2719 -0.1016
15986W        W32060   6.487  12.654   0.695 -0.0392  0.5607 -0.1523
15987W        W32061   6.546  18.399  10.769 -0.0302  0.3141  0.3154
15988W        W32062  13.591  19.326  10.964 -0.1014 -0.2787 -0.2191
15989W        W32063  10.393  17.617   3.359  0.0810 -0.5847  0.2983
15990W        W32064  12.740   9.555  11.510 -0.1187 -0.0951  0.4750
15991W        W32065  19.142  16.193  11.262 -0.1655  0.1136  0.0838
15992W        W32066   5.981   4.638  12.270 -0.0269  0.0072 -0.1171
15993W        W32067   6.778  12.202   0.689  0.0772 -0.1547  0.3570
15994W        W32068  10.292   2.636  10.112  0.1236  0.1068 -0.0699
15995W        W32069   4.721  16.473   4.943  0.1617  0.2191 -0.2751
15996W        W32070   1.655  13.921  12.411 -0.1087  0.1515  0.0889
15997W        W32071   6.950   6.259  13.479  0.0301  0.1637 -0.0814
15998W        W32072   2.691  13.456   2.496  0.0352  0.0623 -0.0179
15999W        W32073   7.768   0.305  12.474  0.2130  0.0333 -0.0346
16000W        W32074  13.655  15.859  12.241  0.1077  0.0385  0.2232
16001W        W32075  19.032  17.234   3.068  0.0830 -0.0819  0.0239
16002W        W32076   1.506  15.273  10.666  0.1313  0.2857  0.4606
16003W        W32077   1.930   7.408  12.901 -0.1823 -0.0386  0.0009
16004W        W32078  18.452   1.017  11.299  0.2032 -0.0694  0.0988
16005W        W32079  17.929   2.481   0.806 -0.1399  0.1518  0.0578
16006W        W32080  14.425  11.288   1.263 -0.2199  0.1207 -0.0045
16007W        W32081  10.769  17.738   8.434 -0.0882  0.0138  0.0384
16008W        W32082   5.705   4.857   4.602  0.1179  0.1331  0.3096
16009W        W32083  10.634   5.339   4.222 -0.1023  0.1918 -0.0259
16010W        W32084   3.823  10.014  13.194 -0.0476  0.0574  0.2235
16011W        W32085   8.877   0.731  11.972 -0.1006 -0.2979 -0.3580
16012W        W32086  17.940  17.109   2.693  0.0615 -0.1225 -0.3175
16013W        W32087   0.423   0.730  11.390  0.1750 -0.1419 -0.1028
16014W        W32088  17.859  11.092  14.958 -0.1034 -0.3482 -0.1340
16015W        W32089   5.888   7.015  13.670 -0.5500  0.0155  0.2922
16016W        W32090   6.051  12.134   2.989 -0.1225 -0.2441  0.2861
16017W        W32091   7.839  13.416  14.388  0.2955 -0.0073 -0.0654
16018W        W32092   7.641  10.638  11.964 -0.0226  0.0900 -0.0989
16019W        W32093   6.190   7.571   0.142 -0.0875  0.2037  0.1197
16020W        W32094  11.460   1.778  10.189  0.0842 -0.1577 -0.1823
16021W        W32095   3.627   4.456  11.221  0.3166  0.0650 -0.2725
16022W        W32096  15.904  10.424  10.945 -0.0894 -0.0836 -0.1242
16023W        W32097   5.087   9.596   4.150  0.2924  0.1132  0.0313
16024W        W32098  15.344  11.449   2.033  0.1770 -0.0945 -0.0336
16025W        W32099   2.077  17.755  11.701 -0.1577  0.0508 -0.0172
16026W        W32100  10.157  12.510   1.286 -0.3363  0.1503  0.3596
16027W        W32101   3.748   7.675  14.205 -0.1890  0.0910  0.1059
16028W        W32102   0.960   1.836   2.746 -0.0351 -0.1893  0.1459
16029W        W32103  14.202   8.663   0.531 -0.3719  0.0850  0.0226
16030W        W32104  17.685  15.184   4.021 -0.2116  0.0455  0.2022
16031W        W32105   8.873  18.076   4.897  0.1629 -0.1860 -0.2621
16032W        W32106  15.041  12.484   1.070  0.0956 -0.2498 -0.0562
16033W        W32107  14.364  14.764   0.334 -0.1420  0.1234  0.2264
16034W        W32108  15.225   5.327   2.716  0.0330 -0.3704  0.2853
16035W        W32109   7.844   3.428   3.356  0.2086 -0.0175  0.1279
16036W        W32110  19.313  11.607  11.090  0.2703 -0.1916  0.0257
16037W        W32111   4.071   0.564   1.123 -0.0155  0.1306 -0.2067
16038W        W32112  10.185  18.161   4.926 -0.0695  0.1763  0.2262
16039W        W32113   6.484  13.577   4.532 -0.0103 -0.2922  0.0267
16040W        W32114  19.338   2.937   0.652  0.1759 -0.0722  0.0308
16041W        W32115   1.741  18.148   0.910 -0.0323 -0.0134  0.1504
16042W        W32116  16.122  19.025   1.430 -0.3029  0.0532  0.2849
16043W        W32117   2.380   5.700  11.835  0.3362  0.1693  0.0364
16044W        W32118   1.144   5.215   4.200 -0.1700  0.1310 -0.3743
16045W        W32119   5.517   6.856  10.530  0.3750  0.4351  0.0176
16046W        W32120   9.745   0.076  13.407 -0.1825  0.3145  0.0105
16047W        W32121  12.149  13.578   5.543 -0.2312  0.0724 -0.2458
16048W        W32122  11.135  17.157   1.572  0.0196 -0.1214 -0.4892
16049W        W32123  11.037  17.332   4.038 -0.2197 -0.1908 -0.0896
16050W        W32124  16.878  13.397  14.403 -0.0507 -0.1384 -0.2343
16051W        W32125   5.927  18.244   0.526  0.2109  0.1284 -0.3882
16052W        W32126   9.651   5.479   1.858  0.1950 -0.1712  0.0119
16053W        W32127  10.050  16.481   2.536 -0.0180 -0.1884 -0.0571
16054W        W32128  11.352   6.146   3.700 -0.3396 -0.4388 -0.2420
16055W        W32129   7.017   8.104   0.322 -0.2463  0.0518 -0.1887
16056W        W32130  13.177   6.184   2.778 -0.1379 -0.0159  0.1520
16057W        W32131   6.833   9.429   2.232 -0.0510 -0.0939  0.0932
16058W        W32132  14.823   9.286  12.125  0.0224  0.3130  0.3859
16059W        W32133   2.628  14.503   2.376 -0.0305 -0.2222  0.1382
16060W        W32134   1.786   9.016   5.404  0.0548  0.1322  0.1013
16061W        W32135  15.160  11.536   0.444 -0.2010 -0.2098  0.1757
16062W        W32136  18.312  14.036  11.354 -0.0422 -0.2142  0.0884
16063W        W32137  18.575   0.800   4.191 -0.0823  0.0550 -0.1888
16064W        W32138  13.428   8.418   2.703 -0.0128 -0.0493 -0.2271
16065W        W32139  16.614   3.290   3.433 -0.1103  0.1885  0.1577
16066W        W32140   3.909   0.888  10.512 -0.1423 -0.2702 -0.0064
16067W        W32141  12.649   7.464  11.945  0.0112 -0.0309  0.0614
16068W        W32142  13.115  10.142  12.231 -0.0053 -0.0731 -0.2351
16069W        W32143  12.135  18.158   3.649  0.0173 -0.2167 -0.0988
16070W        W32144  15.946   6.811   6.061  0.1924  0.1035  0.3342
16071W        W32145  14.460  14.566   0.809 -0.0540  0.3414 -0.1122
16072W        W32146   3.939  14.371  10.976  0.0964 -0.1355  0.2457
16073W        W32147   8.125   1.535  12.299  0.0037 -0.0439  0.0932
16074W        W32148  17.083  14.867   2.936  0.1619  0.0818 -0.0658
16075W        W32149   6.715   6.213   4.186 -0.0247 -0.1269 -0.2317
16076W        W32150   5.688   5.048  12.144  0.0411 -0.1305 -0.3032
16077W        W32151  12.057   2.581  11.669 -0.0269  0.2217  0.2675
16078W        W32152  10.398  13.009  13.720 -0.0235 -0.0985  0.0870
16079W        W32153   1.328   8.994   3.716  0.3875 -0.1632  0.0723
16080W        W32154  12.767   4.614  14.065 -0.0411 -0.2391 -0.1586
16081W        W32155   9.802  10.508   1.194 -0.0526 -0.0862 -0.2138
16082W        W32156  18.434  14.112   1.028 -0.1180 -0.0327  0.0397
16083W        W32157  15.654   5.986   1.646 -0.2724 -0.0341  0.0354
16084W        W32158  10.173  16.553   9.652 -0.1216  0.0272  0.1299
16085W        W32159   4.126   0.136   1.842  0.0458  0.1454  0.1665
16086W        W32160   1.373   8.132  12.197 -0.3070  0.2528 -0.1180
16087W        W32161   0.722   1.339   3.079 -0.1175  0.0323 -0.2153
16088W        W32162   6.874   9.010   5.206 -0.5508  0.2001 -0.0262
16089W        W32163  12.458  10.767   3.082 -0.1593 -0.3278  0.1787
16090W        W32164  11.653  15.034   2.564 -0.1863  0.1108 -0.2009
16091W        W32165   2.589   6.775   1.191  0.1080  0.2592 -0.3474
16092W        W32166   8.082  15.731   1.460 -0.1911  0.1920 -0.2122
16093W        W32167  10.456   3.264  12.133  0.2299  0.0417 -0.0072
16094W        W32168  10.956  13.902   0.621  0.0731 -0.1109 -0.0249
16095W        W32169   2.217   0.317   4.173  0.0385 -0.3437 -0.1411
16096W        W32170  17.808  12.692  11.375 -0.1179  0.1022 -0.1256
16097W        W32171   1.246   4.514  14.551 -0.0652  0.4018  0.1972
16098W        W32172   4.949  13.768   2.352 -0.0266  0.0589 -0.1237
16099W        W32173  18.155   9.896  14.079 -0.0259 -0.3426 -0.0146
16100W        W32174  18.154   4.866   2.902  0.1759  0.2273 -0.0601
16101W        W32175  16.464  15.453   3.898 -0.1458  0.0031  0.0705
16102W        W32176  17.740   5.339   1.617  0.0313  0.2354  0.0909
16103W        W32177  11.209   1.143  14.016  0.0832 -0.3533 -0.1943
16104W        W32178   3.377  17.253  11.229 -0.3149 -0.0537 -0.3927
16105W        W32179   3.710  11.145   2.519  0.0029 -0.1413  0.0712
16106W        W32180   5.819  19.014  13.781  0.1621  0.1950 -0.3895
16107W        W32181   2.662  14.206  11.126  0.0577  0.0082 -0.0797
16108W        W32182  15.052   6.441   3.487  0.1239  0.0231 -0.1399
16109W        W32183   0.155  13.328  12.737 -0.2822  0.0720 -0.0805
16110W        W32184   9.531   9.808   4.193  0.2960  0.3596 -0.1205
16111W        W32185   8.816   7.575  11.306  0.2589 -0.1086 -0.1834
16112W        W32186  18.088  18.028   3.073  0.0099  0.2158  0.1896
16113W        W32187  15.044   2.596   5.326 -0.2609  0.1094  0.2424
16114W        W32188   4.436  16.045  14.875 -0.1810 -0.0208  0.0055
16115W        W32189   8.775  17.393  13.004 -0.0186 -0.2541  0.0489
16116W        W32190   2.854   6.967   4.902  0.1673  0.0823 -0.0532
16117W        W32191  17.603  13.365  14.745 -0.3581 -0.1885 -0.0968
16118W        W32192  13.079   0.776  13.619  0.3168  0.2203  0.0370
16119W        W32193   3.910   8.494  10.913  0.3046 -0.2810 -0.2578
16120W        W32194   9.850   1.939  14.505 -0.0440 -0.0385  0.0303
16121W        W32195   4.432  14.353   2.921  0.0572 -0.0814 -0.0028
16122W        W32196   8.862   2.665  13.376 -0.1593 -0.1273  0.2646
16123W        W32197   9.662   3.872   2.224  0.0996  0.5424 -0.2525
16124W        W32198   8.044  13.032  14.169  0.0517 -0.0750 -0.2394
16125W        W32199   5.830   2.280   9.851  0.1876 -0.1423  0.0418
16126W        W32200   2.382   3.364   3.331  0.1111  0.2745 -0.0476
16127W        W32201  18.765  13.376   1.350  0.1404 -0.0520 -0.0147
16128W        W32202  19.007  10.966   2.439 -0.2672  0.0945 -0.0030
16129W        W32203  16.580  16.667  11.265  0.3536  0.2946 -0.1333
16130W        W32204   8.634   1.230   2.279 -0.0157 -0.0593 -0.0428
16131W        W32205   2.232  12.588   1.889 -0.5198 -0.3703  0.3815
16132W        W32206   9.945  15.519   4.048 -0.1224  0.2053 -0.2679
16133W        W32207  19.002   7.584  10.429  0.2133  0.0655  0.4198
16134W        W32208  19.115   8.126   2.274  0.0331 -0.2571  0.0795
16135W        W32209  11.027   1.386  13.208 -0.0648  0.0505 -0.0009
16136W        W32210   1.786   5.453   2.409 -0.0165  0.1744  0.1706
16137W        W32211  11.106  14.442  10.248 -0.0422 -0.2681 -0.2557
16138W        W32212   3.490  16.757   1.620 -0.2103  0.2934 -0.1197
16139W        W32213   5.810  17.916  12.385 -0.4168  0.0614 -0.1860
16140W        W32214  15.327   4.242  14.496  0.1000 -0.2211 -0.0710
16141W        W32215  19.126  15.226  13.266  0.0111  0.1723 -0.2292
16142W        W32216  14.570   6.219  14.783 -0.0991  0.0770  0.2737
16143W        W32217  17.071  14.732  13.232  0.1119  0.1333  0.0048
16144W        W32218  16.978  15.953   2.035 -0.1134  0.1439  0.0622
16145W        W32219  10.441  11.929   4.472 -0.0240 -0.1775 -0.1952
16146W        W32220   3.872   8.626   1.216  0.2244  0.0072  0.1947
16147W        W32221  17.608   8.021  11.687 -0.0267  0.0092 -0.2160
16148W        W32222   4.236   2.026   4.141 -0.3424 -0.5116 -0.0625
16149W        W32223   4.403   6.555   0.423  0.2743 -0.3409 -0.2774
16150W        W32224   2.272  11.599  14.747 -0.2207  0.0164 -0.0643
16151W        W32225   5.106  17.541   2.414  0.0948 -0.5047  0.3129
16152W        W32226  14.926   6.785   2.017 -0.0866 -0.1966  0.0784
16153W        W32227  13.624  17.622  12.955  0.1011  0.0231  0.1672
16154W        W32228   0.837   7.389   3.620 -0.1955 -0.0234 -0.1985
16155W        W32229  15.075   7.463   6.200 -0.3584  0.0214  0.1234
16156W        W32230   0.255  11.105  13.921 -0.1211 -0.0014  0.1125
16157W        W32231   1.419   9.421   5.651  0.2478  0.2712 -0.0888
16158W        W32232  10.507   1.890   5.378  0.1650  0.0027 -0.2567
16159W        W32233  18.688  18.521   4.445 -0.2802  0.1356 -0.0096
16160W        W32234   9.915   7.608  14.572  0.0444  0.0192 -0.0469
16161W        W32235   8.314   7.635   4.150 -0.0910 -0.2958 -0.1261
16162W        W32236   2.992   2.193  11.856 -0.0500 -0.2527 -0.2853
16163W        W32237  15.361   1.252   5.095 -0.1374 -0.4780 -0.2271
16164W        W32238  14.919  18.016  11.154 -0.3221  0.0659  0.1502
16165W        W32239   8.435  10.246  14.740  0.0740  0.1454  0.3734
16166W        W32240   5.627   7.399  10.996  0.0566 -0.2251 -0.0450
16167W        W32241  10.926   1.093   0.614 -0.0431 -0.2677  0.2816
16168W        W32242   8.496   8.157  11.879  0.0088 -0.1434  0.1206
16169W        W32243  11.544   8.381  13.993 -0.3176  0.1898 -0.2471
16170W        W32244  17.393  17.157   2.654  0.0598 -0.1495  0.2282
16171W        W32245  17.378   2.105   0.706 -0.1365  0.0284  0.0372
16172W        W32246  10.845   7.071   0.915 -0.1844  0.1609 -0.3277
16173W        W32247  11.471   6.681  12.620 -0.1332 -0.2746  0.3208
16174W        W32248   6.167  17.047  13.535 -0.1007 -0.2725 -0.0547
16175W        W32249  14.274  12.374  14.612  0.2331  0.1463 -0.1970
16176W        W32250  18.233  15.298  14.076 -0.0581 -0.1488  0.1515
16177W        W32251  19.208  15.301  10.877  0.0128  0.4422  0.2868
16178W        W32252   1.742  15.340  13.766  0.3136 -0.1298  0.0867
16179W        W32253   3.164  17.857  12.014 -0.0352  0.4200 -0.2270
16180W        W32254  11.453  12.071  13.448 -0.1124  0.1134  0.0658
16181W        W32255   7.541  11.746  12.788  0.0794  0.0646  0.0145
16182W        W32256  11.559   5.587  12.847 -0.1916  0.2057 -0.1587
16183W        W32257  19.247   9.194   5.251  0.1970  0.0998  0.1359
16184W        W32258   6.742   5.365   4.376 -0.1220  0.0614  0.1941
16185W        W32259   9.120   0.319   3.836  0.3078 -0.1584 -0.1058
16186W        W32260  15.463  15.989   3.845 -0.2420 -0.4314 -0.1705
16187W        W32261   8.130   9.127  12.957 -0.0774 -0.0795 -0.0345
16188W        W32262   4.294   8.800  11.191  0.2799  0.1592  0.0181
16189W        W32263  16.797   8.653   0.109  0.2588  0.3802 -0.0290
16190W        W32264  13.036  15.215  12.605 -0.0584  0.1020 -0.0633
16191W        W32265   2.316  15.684   1.873 -0.0361 -0.2857 -0.1047
16192W        W32266   8.808   7.945   1.874  0.2250 -0.0068 -0.0518
16193W        W32267   1.878  10.813   0.258  0.2123 -0.0047 -0.0965
16194W        W32268   4.238  14.535  11.976  0.1437 -0.1219  0.0304
16195W        W32269  18.036  15.574   0.831  0.0631  0.0675  0.0383
16196W        W32270  18.133  17.446  13.364 -0.2162 -0.0211  0.0367
16197W        W32271  11.220  17.065   0.207  0.0690  0.0104  0.0837
16198W        W32272  18.149  10.525   0.741  0.1287  0.4188 -0.0809
16199W        W32273   3.494  15.292  12.776  0.1431  0.0002 -0.2698
16200W        W32274   6.661   4.237  11.845  0.1975  0.1576 -0.0331
16201W        W32275  15.376  16.469   3.594 -0.1582 -0.2861  0.0637
16202W        W32276  18.416   4.435   3.018 -0.1348  0.0213 -0.1422
16203W        W32277  12.073   6.124  11.852 -0.1799 -0.2850  0.1412
16204W        W32278  16.070  17.871   1.391 -0.0046 -0.1079  0.0177
16205W        W32279  16.801  10.819  12.363  0.0403 -0.3523  0.0043
16206W        W32280   4.815  10.917   2.195 -0.1239  0.5131 -0.1915
16207W        W32281   2.784  15.523   0.527  0.1286  0.0247  0.1047
16208W        W32282  15.434   4.698  12.546 -0.3160 -0.1728 -0.3430
16209W        W32283  10.075   4.752   5.217  0.1624 -0.0149 -0.0172
16210W        W32284   1.951   8.502  13.524  0.1196 -0.0981  0.0826
16211W        W32285   4.885  13.295   0.123 -0.3175  0.1040 -0.1437
16212W        W32286   8.897   5.889   9.577  0.3247  0.1344 -0.0367
16213W        W32287   7.934   0.467   9.972 -0.1177 -0.2237 -0.1577
16214W        W32288  19.210   2.169   5.448 -0.0969 -0.0573 -0.3440
16215W        W32289  10.759   8.516   2.571 -0.0502  0.0254  0.1308
16216W        W32290   1.308  17.438  13.043  0.0860  0.1368 -0.1388
16217W        W32291  15.486   4.148   3.201 -0.1829 -0.2177 -0.0656
16218W        W32292  12.671   4.294   2.936 -0.1445 -0.1240 -0.0750
16219W        W32293  19.217  16.714   2.308  0.1679 -0.3131  0.2393
16220W        W32294  10.268   6.042   0.442  0.1277 -0.0022  0.0840
16221W        W32295   2.971   6.040   3.024  0.0111 -0.2287 -0.4030
16222W        W32296  13.886   7.989  12.298 -0.0439 -0.2521  0.0380
16223W        W32297   1.892  11.203   3.121 -0.0408 -0.1314 -0.1415
16224W        W32298   5.315   1.031   4.626 -0.4532  0.2224  0.0435
16225W        W32299   4.164  10.478   5.506 -0.0034 -0.1963  0.0581
16226W        W32300   0.704   4.642   1.587 -0.1899 -0.1810 -0.1018
16227W        W32301   1.850  15.941   0.511  0.0522 -0.0830 -0.2635
16228W        W32302  10.265  17.817   3.971  0.1086 -0.0258 -0.0496
16229W        W32303   7.499  10.215   0.993 -0.1488  0.3161  0.1261
16230W        W32304   1.002   9.651  13.823 -0.0162 -0.0096 -0.0241
16231W        W32305  11.741  16.819   3.988  0.0816 -0.0878  0.1185
16232W        W32306  12.435  12.466  12.637  0.1572  0.2438 -0.2682
16233W        W32307   4.844   6.867   4.448  0.0333  0.0389  0.3395
16234W        W32308   7.262   5.632   2.446 -0.0938  0.0734  0.0709
16235W        W32309  10.671   3.730   2.876  0.1992 -0.4081 -0.0354
16236W        W32310   9.803   8.999  14.373  0.1848  0.0109 -0.1058
16237W        W32311  12.536  15.419  13.589  0.1164  0.1944 -0.1466
16238W        W32312   9.642   3.209  13.647  0.4755  0.1046  0.0252
16239W        W32313   9.934   7.136   1.408 -0.1914 -0.0929 -0.1697
16240W        W32314  17.836   7.411  13.464 -0.0663  0.0531 -0.1529
16241W        W32315   5.545   1.876  14.182 -0.2086  0.1818 -0.1082
16242W        W32316  10.264   9.290  10.816 -0.0003  0.1451 -0.0049
16243W        W32317  16.016   6.489   1.743 -0.0463 -0.5552 -0.0541
16244W        W32318   1.203  15.114   3.328 -0.0998  0.0287 -0.0092
16245W        W32319   3.055   1.895  10.429  0.0687 -0.0332 -0.1393
16246W        W32320  17.007  17.254  14.390 -0.0460 -0.0624  0.2052
16247W        W32321  10.436   0.081  10.330  0.2177 -0.3188  0.2912
16248W        W32322  14.802  15.185   9.731 -0.1837 -0.1239  0.0707
16249W        W32323   1.769   3.638  10.374  0.1097 -0.0508  0.1440
16250W        W32324   5.832  16.741   2.586  0.4590 -0.1136  0.0622
16251W        W32325   4.788   6.780  12.203 -0.3675  0.1796  0.0900
16252W        W32326   7.808   7.537  13.485 -0.1078 -0.1414  0.1080
16253W        W32327   4.735   2.847   2.540  0.0557  0.0351  0.0439
16254W        W32328  17.832  17.132   4.087 -0.0453 -0.1969  0.0309
16255W        W32329   7.288   2.999  12.750  0.0274  0.1564 -0.2518
16256W        W32330  13.510   3.956   2.510 -0.0330 -0.1102 -0.1056
16257W        W32331  19.301   0.157  13.800  0.3507 -0.0105 -0.1403
16258W        W32332  15.408  13.806  11.392 -0.2682  0.0308  0.1048
16259W        W32333   0.376  13.991  14.320 -0.2259 -0.0628 -0.0533
16260W        W32334   0.470   3.060  10.661  0.1219  0.1161 -0.2087
16261W        W32335  18.645   1.832  13.728 -0.1609  0.1218  0.0055
16262W        W32336   6.941   2.629  12.749  0.0392  0.3787 -0.3058
16263W        W32337   5.728   6.813  12.138  0.1144  0.0282 -0.1390
16264W        W32338  19.098   2.111  14.070  0.1244 -0.1085 -0.0371
16265W        W32339  17.879  19.313  13.369  0.1262 -0.2456 -0.0494
16266W        W32340  15.361   8.880   3.240 -0.0554  0.2127 -0.1600
16267W        W32341   1.250  11.432  13.193  0.4267  0.2984 -0.0780
16268W        W32342  10.524  16.520   2.720  0.1388 -0.0290  0.3447
16269W        W32343   5.443   2.794  11.761 -0.1131  0.0040  0.0800
16270W        W32344   7.274   0.248  11.021 -0.0241  0.1120 -0.3029
16271W        W32345   4.644   0.624  13.344 -0.0993 -0.2947 -0.0957
16272W        W32346   2.783   8.911  14.051  0.0705 -0.0257 -0.3289
16273W        W32347  13.305  17.856  12.047  0.1818  0.0049  0.0234
16274W        W32348   4.414  14.329  13.720 -0.0863  0.1420 -0.0489
16275W        W32349   4.710   1.416   1.827  0.1637 -0.0695  0.2190
16276W        W32350  13.899  16.255   9.307 -0.0049 -0.1776 -0.2205
16277W        W32351  14.059   4.589  13.153 -0.2523  0.1791  0.1417
16278W        W32352  14.315   3.585   1.817  0.2371 -0.0099  0.2561
16279W        W32353  14.828  13.397   3.495  0.2095 -0.1201  0.1469
16280W        W32354  11.970   9.545  14.227  0.0943  0.0860  0.0528
16281W        W32355  10.218   9.964  12.838 -0.0230  0.0123  0.0583
16282W        W32356  16.259  14.665   2.747  0.4410 -0.0741 -0.0145
16283W        W32357  10.851  11.036  11.617 -0.0091 -0.0766  0.1394
16284W        W32358  12.652   5.464   3.349  0.2713  0.2150  0.0810
16285W        W32359   4.561   1.664   2.823 -0.3978  0.0807  0.1279
16286W        W32360   8.562  11.023   3.180 -0.3054 -0.0629  0.2582
16287W        W32361   0.851   9.555   0.357 -0.1110 -0.1245 -0.3085
16288W        W32362   8.244  16.447  13.886 -0.1749  0.3245  0.2255
16289W        W32363  12.115   5.849   0.251 -0.0741  0.0227  0.1938
16290W        W32364  13.372  11.162   2.117 -0.1479 -0.2886  0.0689
16291W        W32365  14.481   0.682  10.235  0.2766 -0.0069 -0.3768
16292W        W32366   3.806   2.149   4.395 -0.1796 -0.0266 -0.1304
16293W        W32367   7.074  18.259  11.228  0.1158  0.0952  0.3857
16294W        W32368   8.567   6.243  10.658  0.0854  0.1030  0.2584
16295W        W32369   0.558   1.196  11.508 -0.0416 -0.2218 -0.1753
16296W        W32370  14.360  12.826  12.826  0.1359 -0.0100  0.0769
16297W        W32371  12.524   1.421   3.182  0.2060 -0.2051  0.1265
16298W        W32372  14.977   3.306   3.960  0.1841  0.1366  0.1832
16299W        W32373   5.147   9.746   5.289  0.1486  0.1574 -0.1427
16300W        W32374   3.607   4.368   2.060  0.3444  0.0661 -0.0133
16301W        W32375  17.627   6.392  12.276 -0.2699  0.2323  0.1603
16302W        W32376  14.334   0.611   3.688  0.4001  0.0107  0.0641
16303W        W32377  15.251  17.552  14.721  0.1526 -0.0071  0.0267
16304W        W32378  15.635  12.426   2.882 -0.0354  0.2739 -0.1348
16305W        W32379   7.063  18.917   9.253  0.0744  0.0304 -0.0106
16306W        W32380  15.338   9.870  14.767 -0.1673  0.1334  0.1130
16307W        W32381  14.867  16.906   0.135  0.0495 -0.3318  0.3359
16308W        W32382  16.859  10.078   1.363  0.2990  0.4993  0.2778
16309W        W32383   2.413   5.135   3.952 -0.1227 -0.0160  0.1123
16310W        W32384  12.248   5.370  14.312 -0.0930  0.1638 -0.0494
16311W        W32385   1.500   9.477  13.657 -0.0276  0.1803  0.0782
16312W        W32386  11.997   4.055   2.260 -0.0924 -0.0147 -0.0026
16313W        W32387   8.946   1.892   2.494 -0.1804 -0.2714 -0.1772
16314W        W32388  12.464   4.529   3.646  0.4358  0.0686 -0.1725
16315W        W32389  16.719  12.755   2.128 -0.0686  0.1158 -0.0526
16316W        W32390  16.742   0.490   3.038  0.1367 -0.0700  0.0339
16317W        W32391  11.682   9.557   0.110 -0.1827  0.0372 -0.4066
16318W        W32392   2.910   8.348  10.920 -0.0954  0.1974 -0.1461
16319W        W32393  13.529  18.250  12.480  0.4691 -0.3295 -0.0779
16320W        W32394  13.537   3.220   4.747 -0.2351 -0.0477 -0.0468
16321W        W32395  16.527   8.958   1.456 -0.1713 -0.3949  0.1024
16322W        W32396   3.790   0.206   1.447  0.0202  0.0638 -0.0431
16323W        W32397  13.408   9.193  14.530 -0.2033  0.1164 -0.0184
16324W        W32398  16.698   8.371  12.534  0.0249 -0.0137 -0.1752
16325W        W32399  15.820  16.845  14.854 -0.0433  0.1145 -0.0707
16326W        W32400   6.853   9.243  13.222  0.1607 -0.4752  0.1066
16327W        W32401   4.186  18.565  11.043  0.1361  0.0032  0.0878
16328W        W32402  16.109  11.501  10.270 -0.2962 -0.0591  0.1322
16329W        W32403  11.657   9.261   2.199 -0.2686  0.1384  0.2992
16330W        W32404  12.761   1.990   1.987  0.0314 -0.3843 -0.1378
16331W        W32405   8.242  13.374  11.763  0.0419 -0.2803  0.1522
16332W        W32406   9.126  15.568  14.238 -0.1577  0.1528 -0.2898
16333W        W32407  17.298   8.704  11.885 -0.0535  0.2666  0.2198
16334W        W32408  12.196  17.539  13.356 -0.0059 -0.2513  0.3450
16335W        W32409  12.804  18.713   8.908 -0.2016  0.0278 -0.1627
16336W        W32410   5.183  18.985   0.509 -0.1552 -0.2789 -0.1235
16337W        W32411   5.568  16.617   4.557  0.2373  0.0409  0.0058
16338W        W32412   8.124   2.309   4.702 -0.0031  0.0732  0.0653
16339W        W32413   3.191   1.818   2.814 -0.1705  0.0893  0.3670
16340W        W32414   9.521   3.138   2.952  0.1507  0.1928 -0.1129
16341W        W32415  13.739   7.337   2.614 -0.0787 -0.1720  0.1130
16342W        W32416   3.424   5.488   3.475 -0.1112 -0.0682  0.1239
16343W        W32417  12.267   8.101   3.567  0.0124  0.0253 -0.0866
16344W        W32418   0.507   9.223   1.147 -0.2299  0.0493 -0.1155
16345W        W32419  12.859  18.587   2.410 -0.0988  0.0292 -0.1110
16346W        W32420  11.463   9.392   3.090 -0.0295 -0.1461  0.0351
16347W        W32421  17.777  15.164   3.423  0.2192 -0.0893  0.2371
16348W        W32422  15.882   5.709  10.949 -0.0864  0.1052 -0.0547
16349W        W32423   0.384  13.597  13.645  0.0753 -0.1798 -0.1272
16350W        W32424   3.268   3.609  13.852 -0.0894  0.1101 -0.0528
16351W        W32425  13.353   5.305   2.482  0.0382  0.3889  0.0439
16352W        W32426   4.490  15.705  12.684  0.2130  0.0862 -0.3426
16353W        W32427  10.504  15.410   0.893 -0.0552  0.2686  0.1763
16354W        W32428  18.248  15.928   5.097 -0.1084  0.0406  0.1900
16355W        W32429   8.596  16.078  12.616  0.2315 -0.1877 -0.4408
16356W        W32430   5.677   3.385  13.840 -0.0173 -0.0709  0.2869
16357W        W32431   9.191  16.210   2.234 -0.0908 -0.3230 -0.1979
16358W        W32432  11.781   5.090  12.685  0.1718  0.0810 -0.0220
16359W        W32433   1.728   4.179  13.838 -0.1124 -0.3460 -0.1644
16360W        W32434  15.181  16.289   4.191 -0.0560  0.0293  0.0568
16361W        W32435  16.250  16.757   3.763  0.6987  0.0855 -0.0860
16362W        W32436   1.886   7.686   2.305 -0.1176 -0.0084 -0.2883
16363W        W32437  14.509  12.736  11.877 -0.0424 -0.0757  0.1966
16364W        W32438   9.446   8.034  12.398 -0.2039  0.2645  0.6418
16365W        W32439  13.445   7.454  10.696 -0.4205 -0.1208 -0.2389
16366W        W32440  17.644   3.135   5.945 -0.2256  0.0768  0.0098
16367W        W32441   0.415  16.849   5.362 -0.0016  0.2690  0.1990
16368W        W32442  14.069  10.043   2.608  0.0387 -0.1499 -0.1709
16369W        W32443  14.621   5.763   2.936 -0.1919  0.0680 -0.0516
16370W        W32444   9.064   8.395   3.012  0.4236 -0.0023  0.2207
16371W        W32445   0.675   4.020  14.314 -0.2280 -0.0987  0.1721
16372W        W32446   4.225   7.750   1.034  0.0964 -0.1044 -0.2232
16373W        W32447  18.187   0.154  11.280 -0.1984 -0.1582  0.0073
16374W        W32448   4.675   5.750  10.780 -0.0878 -0.0440 -0.2541
16375W        W32449  15.787  11.813  12.785  0.0784 -0.0685 -0.3808
16376W        W32450   1.858   9.868   1.977 -0.0507  0.1259 -0.0978
16377W        W32451  19.221   2.926   2.140  0.1919 -0.1036  0.0320
16378W        W32452  14.779   5.671  10.801 -0.3764  0.0434  0.0590
16379W        W32453   9.463   6.805   4.387 -0.0197 -0.0897 -0.2779
16380W        W32454   4.900  17.890   1.433  0.2203 -0.0209  0.0319
16381W        W32455   0.474   2.507   4.227  0.0407 -0.0039 -0.0679
16382W        W32456   5.384   4.009   4.999 -0.2128 -0.3416  0.0801
16383W        W32457   3.435   0.868  11.353 -0.1573 -0.0128 -0.1152
16384W        W32458  17.243  17.928   3.893 -0.1481 -0.0091 -0.1927
16385W        W32459   8.735  12.143   4.926 -0.1225 -0.1707 -0.1873
16386W        W32460  14.650   0.804   1.916 -0.1817  0.1071 -0.0578
16387W        W32461  15.604   3.931  10.759  0.1571 -0.0774  0.1937
16388W        W32462  18.879   0.595   0.866 -0.0250 -0.3247 -0.0123
16389W        W32463   4.780  10.388  11.099 -0.1191  0.0494  0.0064
16390W        W32464   0.381   5.731  14.392 -0.1381  0.0335  0.2850
16391W        W32465  10.000   5.411   4.221 -0.3271 -0.0968 -0.1095
16392W        W32466  15.463   0.773   4.873  0.0811 -0.3632  0.1331
16393W        W32467  16.524   7.102   2.263  0.1305  0.2785  0.2866
16394W        W32468   5.693  10.337   4.389  0.2518 -0.0248  0.1602
16395W        W32469   8.721   9.171  12.781 -0.1546  0.1971 -0.1177
16396W        W32470   0.737   8.320   4.236 -0.0471  0.1112 -0.1880
16397W        W32471  11.672   5.804  14.445  0.2593  0.0744  0.4387
16398W        W32472  13.907   0.357  14.356  0.0645 -0.0001 -0.1180
16399W        W32473   5.302  17.433  13.496 -0.0250  0.2357 -0.0380
16400W        W32474   9.526   8.516   4.595 -0.1193  0.0496  0.1448
16401W        W32475  12.106   3.190  11.754  0.0061 -0.0586 -0.0374
16402W        W32476  12.483   5.458   4.662  0.0600 -0.0029  0.1042
16403W        W32477  13.924   5.263  10.700  0.0040 -0.2129 -0.0006
16404W        W32478  13.009  13.465  12.936  0.0081  0.0462  0.1193
16405W        W32479  15.098   3.302  14.299  0.2287 -0.0899  0.3894
16406W        W32480   0.895  12.285  13.269 -0.0960  0.2141 -0.1974
16407W        W32481   4.695  12.446  12.165  0.0451  0.1879 -0.0116
16408W        W32482  17.137   2.629  12.259  0.0251 -0.1091 -0.1930
16409W        W32483  10.767   9.279  11.536 -0.2002 -0.0630 -0.1107
16410W        W32484  17.453   1.502   1.037  0.0758  0.2937 -0.3206
16411W        W32485  16.843   4.644  14.829  0.1838  0.0458  0.1914
16412W        W32486   2.771   9.981  11.794  0.2075  0.0198  0.2717
16413W        W32487   4.739  12.533  11.649 -0.0413  0.2093 -0.1647
16414W        W32488  14.779  13.246   5.658  0.1738 -0.1003  0.0986
16415W        W32489   1.135  17.134   2.457 -0.1249 -0.0342  0.1959
16416W        W32490   2.870   1.259  14.997  0.3106  0.1759  0.3195
16417W        W32491   6.229   1.060  13.876 -0.4270 -0.0540  0.2190
16418W        W32492   6.694   4.789  10.771  0.0624  0.1633 -0.0258
16419W        W32493  16.551  12.374   2.860 -0.2325  0.1789  0.2685
16420W        W32494   9.037  18.542  13.783 -0.1055 -0.0479 -0.3174
16421W        W32495  17.104   2.002  10.790 -0.1048 -0.0403  0.3641
16422W        W32496   4.598   6.794   5.921  0.1401 -0.0943 -0.0361
16423W        W32497  18.004  10.110  14.894  0.1653 -0.0329  0.2856
16424W        W32498   1.991   6.401  12.876 -0.3644 -0.3550  0.0639
16425W        W32499  15.027   5.120  11.508  0.1421 -0.0431 -0.5498
16426W        W32500   7.108   1.186   4.713  0.0195 -0.1469 -0.0185
16427W        W32501   6.885  15.861  13.566 -0.2474 -0.3173 -0.1479
16428W        W32502  18.451  11.409  11.841 -0.1044  0.1353  0.2553
16429W        W32503  13.536  12.586  10.990  0.0720  0.0753 -0.3311
16430W        W32504  15.503   5.682  12.463 -0.1863 -0.0005 -0.1931
16431W        W32505   8.562  19.014   2.669 -0.3397  0.1230  0.1249
16432W        W32506   4.926  15.916   0.019  0.1249 -0.0202  0.1403
16433W        W32507   4.161   7.398  11.428 -0.0105  0.2453 -0.5313
16434W        W32508   4.929   6.552   0.315  0.2699 -0.0660 -0.3260
16435W        W32509  16.670  11.255  11.482 -0.1099  0.0497  0.0961
16436W        W32510   8.863   8.327  13.243  0.1588  0.2295 -0.0699
16437W        W32511  14.794  11.416  10.366  0.3461  0.0012  0.0484
16438W        W32512  18.268  11.271  14.211 -0.2324 -0.0108  0.2284
16439W        W32513   7.891  11.495   1.294  0.0135  0.0039  0.1328
16440W        W32514  11.984  10.087  14.094 -0.0551 -0.3823 -0.1382
16441W        W32515   3.618   0.599   5.223 -0.1392  0.0192  0.1161
16442W        W32516   9.889  12.360  10.295  0.0904  0.2669  0.2982
16443W        W32517  18.165   6.440  14.510 -0.2127  0.0248  0.0933
16444W        W32518  18.926  11.521   2.414 -0.3808  0.1232  0.1533
16445W        W32519   3.930   9.984  14.728 -0.0035  0.3325 -0.0747
16446W        W32520  15.663  12.238   3.383 -0.0915 -0.0052 -0.3662
16447W        W32521  17.341  12.724  10.751  0.0598 -0.1651 -0.0535
16448W        W32522   3.924  18.104  11.466 -0.0417 -0.0276 -0.1702
16449W        W32523  12.521  16.013   0.486 -0.2864  0.2061 -0.0758
16450W        W32524   1.843  10.329  13.852  0.0133  0.0228 -0.0514
16451W        W32525  17.962  10.982   3.953 -0.1802 -0.2711  0.1546
16452W        W32526  12.542  12.641  11.469  0.1317 -0.1078  0.1132
16453W        W32527  17.088  16.366  13.115  0.1589 -0.0619  0.1802
16454W        W32528   4.246   0.417   2.338  0.2569 -0.1584  0.2761
16455W        W32529  18.183  16.949  11.912 -0.0436 -0.0786 -0.1141
16456W        W32530  10.671   7.643  13.690  0.2159  0.0611  0.0617
16457W        W32531   3.581  16.260   2.909  0.2086 -0.1502  0.0031
16458W        W32532   6.245  11.041  13.379 -0.0869  0.0417  0.2843
16459W        W32533   4.264   0.488   4.350 -0.2039 -0.0124 -0.1127
16460W        W32534   8.269   9.439  11.417  0.2310 -0.2822  0.1226
16461W        W32535  16.622  16.588  12.393 -0.4039  0.0425 -0.2140
16462W        W32536   9.921   0.410   0.529 -0.0096  0.1092 -0.3502
16463W        W32537  11.437   8.543   4.796 -0.0924  0.1722 -0.2366
16464W        W32538  11.592   3.102   2.917  0.0148  0.1150  0.5415
16465W        W32539   0.561  16.386   3.894 -0.1987  0.0102  0.2710
16466W        W32540   3.788  10.576  13.099 -0.2168  0.1455  0.0451
16467W        W32541   0.110  17.254  11.134 -0.3885  0.0811  0.1699
16468W        W32542  12.343   8.597   3.715 -0.2191  0.4960 -0.1544
16469W        W32543  12.579   0.343   5.124  0.2112 -0.1091 -0.0882
16470W        W32544   7.733  19.137   3.163 -0.0377  0.2487  0.0557
16471W        W32545   6.480   3.160  10.707 -0.0137  0.1193  0.2117
16472W        W32546  13.934   3.679  13.405 -0.0994  0.1147 -0.1233
16473W        W32547  12.605   6.296   0.984 -0.4537  0.1407  0.0738
16474W        W32548   3.976  17.587   2.433 -0.1697 -0.2929 -0.0363
16475W        W32549   3.772  17.002  11.075 -0.2528 -0.0605 -0.1743
16476W        W32550  11.269   8.742  14.205  0.1741  0.0461  0.1548
16477W        W32551  12.257  14.744   4.010  0.2451  0.2409 -0.1355
16478W        W32552  12.038  14.271   4.174  0.3463 -0.0485  0.0020
16479W        W32553   8.591   4.082  12.818  0.0919 -0.0083 -0.3236
16480W        W32554   9.819   6.187  14.680 -0.0225  0.3269  0.0646
16481W        W32555   6.401  11.811   0.427  0.1009 -0.0623  0.0216
16482W        W32556   6.862   4.097   3.926 -0.1070  0.1145  0.1701
16483W        W32557  17.646   4.162   0.413 -0.1028 -0.1549  0.0503
16484W        W32558  19.096  17.023  14.124  0.1820 -0.1884  0.1720
16485W        W32559  10.481  17.903   5.199  0.2036 -0.0329  0.2560
16486W        W32560   8.538   0.192   0.236  0.0872  0.0601 -0.1596
16487W        W32561  17.143  17.372  13.039  0.3530  0.1732  0.0122
16488W        W32562   3.872   0.991   2.650  0.1982  0.1330 -0.2687
16489W        W32563   0.057   0.202   0.833 -0.0957  0.0394 -0.2156
16490W        W32564  14.831   5.642   4.395  0.0317  0.0766  0.1092
16491W        W32565   3.011  11.132   4.012  0.0400 -0.1136  0.1364
16492W        W32566   2.612  11.598   0.173  0.2352  0.2284  0.2402
16493W        W32567  16.544  14.147   4.055  0.1184  0.1174 -0.3392
16494W        W32568   2.943   1.167   4.308  0.0067 -0.0418 -0.0280
16495W        W32569  16.346   5.586  10.728  0.0466  0.1163 -0.4201
16496W        W32570   5.954   2.729  12.823 -0.1195  0.0195 -0.1103
16497W        W32571   6.566  10.181  10.906  0.5057  0.1064  0.0626
16498W        W32572  11.919   8.443   1.413 -0.1712 -0.2576  0.0030
16499W        W32573  14.816   4.100  14.546 -0.5023  0.0721  0.0662
16500W        W32574  18.209  13.300   1.416  0.5045  0.1890 -0.1338
16501W        W32575  13.703   3.493  14.024  0.2689 -0.2969 -0.1927
16502W        W32576  10.306  11.122   1.498  0.0507 -0.1837 -0.1619
16503W        W32577   8.883  13.788   5.128 -0.2708  0.2819 -0.2422
16504W        W32578  14.515  14.711   4.774 -0.2301 -0.1537  0.4578
16505W        W32579  16.996  11.159  10.137 -0.3527  0.4064  0.0845
16506W        W32580  17.870  12.716   4.752 -0.3345  0.0017 -0.1117
16507W        W32581  10.669  10.824   3.053  0.0055 -0.4315 -0.3224
16508W        W32582  16.308  14.304   4.561  0.2360 -0.0280 -0.1089
16509W        W32583   6.150   7.777   4.236 -0.2620  0.1043  0.0967
16510W        W32584  18.787  18.243  13.526 -0.2451 -0.0948  0.2323
16511W        W32585   7.151   1.313   2.084  0.2623  0.0315  0.3192
16512W        W32586   3.669   1.829  10.419  0.0539 -0.1133 -0.1300
16513W        W32587  13.189   4.887   2.318 -0.3177  0.2121  0.3042
16514W        W32588   2.384   5.641   4.965  0.0976 -0.2740  0.1585
16515W        W32589   0.612   5.724   0.525 -0.0199 -0.0263  0.2034
16516W        W32590  19.031   8.173  12.142 -0.4064 -0.1567  0.3055
16517W        W32591   5.421  18.757  14.514 -0.1333 -0.0355  0.2548
16518W        W32592   1.482  11.312  10.967  0.1571 -0.0713 -0.1236
16519W        W32593  11.728  10.877  10.105  0.1108 -0.0793 -0.0347
16520W        W32594   2.195   3.996  10.416 -0.4577  0.2261 -0.1701
16521W        W32595   8.421  12.123  12.988 -0.0363 -0.2366  0.1649
16522W        W32596   4.514  14.561   2.305  0.0121 -0.2331  0.0658
16523W        W32597  16.922  14.689   0.478  0.0469 -0.2111 -0.2321
16524W        W32598  12.798   3.992  14.508 -0.2936  0.0177 -0.0027
16525W        W32599   9.519   9.835  11.234 -0.1517 -0.0183  0.1304
16526W        W32600  12.426  18.237   2.228 -0.3806  0.2566 -0.1412
16527W        W32601  10.135   5.095  12.301  0.0474 -0.2637 -0.2170
16528W        W32602  18.842  10.863  14.971  0.0133 -0.3959  0.1880
16529W        W32603  17.265  13.257   3.009 -0.2869  0.1338  0.0499
16530W        W32604   3.107  18.151  11.285  0.0870 -0.2272  0.3114
16531W        W32605   7.569  16.746   3.814  0.1237  0.3565 -0.0725
16532W        W32606  10.189   4.433  13.054  0.1178  0.1239  0.0336
16533W        W32607  15.371   3.439   4.304  0.2426 -0.1392  0.2119
16534W        W32608   3.063  19.039   4.497 -0.2527  0.0986 -0.5092
16535W        W32609   8.870   7.717  10.792 -0.0445  0.2667 -0.0071
16536W        W32610   7.855   2.984  13.397  0.1184 -0.0447 -0.0959
16537W        W32611   0.957  13.088  13.219  0.0770  0.1547 -0.0389
16538W        W32612   9.178  13.468  13.936  0.0428 -0.0964  0.1117
16539W        W32613  14.324  10.125  11.213  0.0312  0.0994 -0.0040
16540W        W32614  15.525  13.955  13.776 -0.0721  0.0907 -0.0799
16541W        W32615   7.966  15.264  14.707 -0.1072 -0.0205 -0.0916
16542W        W32616   2.429  13.799  10.885  0.0733  0.0203 -0.3256
16543W        W32617  16.441   3.567   0.599 -0.0082 -0.0429 -0.0758
16544W        W32618  18.990   8.469  12.607 -0.2884  0.0950  0.1264
16545W        W32619  13.013   3.075  12.190  0.1678 -0.0525 -0.1995
16546W        W32620   5.988   9.935   1.353 -0.3514 -0.4849  0.1018
16547W        W32621   9.203   8.774   0.059 -0.1037 -0.2784 -0.0230
16548W        W32622   8.869  15.532   0.753 -0.1369  0.0448  0.1919
16549W        W32623   9.297  19.335  11.664  0.0579 -0.2194  0.0403
16550W        W32624   2.050   1.038   2.809  0.1794 -0.1285  0.2160
16551W        W32625   3.038   5.890   4.188  0.0894  0.0301  0.3637
16552W        W32626  14.237  12.869  14.745  0.1217  0.1774  0.0402
16553W        W32627  11.156   2.547  10.727  0.2993 -0.1962  0.1044
16554W        W32628   8.005   2.313  12.887 -0.2548 -0.1978  0.0642
16555W        W32629  15.432  17.286   0.962  0.1748 -0.2362  0.1342
16556W        W32630  15.027  18.817   2.778 -0.0301  0.2860 -0.0249
16557W        W32631  15.681  11.975  10.435  0.0483  0.5898 -0.2931
16558W        W32632  17.706  18.420   5.167 -0.2196  0.0330 -0.1142
16559W        W32633   1.024   6.902   3.792  0.0279 -0.0432  0.0653
16560W        W32634  11.371  16.822  13.579 -0.0359  0.4855  0.1883
16561W        W32635   3.069  10.165   3.465 -0.3656 -0.2122 -0.0726
16562W        W32636   7.281   2.271  13.959  0.2750 -0.0150  0.2544
16563W        W32637   0.423  14.057  11.604  0.1747 -0.1603  0.2829
16564W        W32638  11.768   8.506   2.865  0.0425 -0.0015  0.2083
16565W        W32639  14.819  14.083   9.087 -0.2026  0.0261 -0.0148
16566W        W32640   6.883   5.224   0.533  0.0443 -0.0133 -0.0486
16567W        W32641   0.144   1.262   4.358 -0.2143 -0.0585 -0.1720
16568W        W32642   1.665  11.293   0.190  0.3210  0.1302  0.1247
16569W        W32643  16.766   1.310   0.212 -0.0915  0.2893  0.0480
16570W        W32644   0.230  10.027   4.667  0.1513 -0.1988  0.1048
16571W        W32645  16.452  16.802  14.754 -0.1568 -0.0488 -0.3217
16572W        W32646  13.916   8.564   2.191  0.1048 -0.2130  0.3488
16573W        W32647  13.525  14.272  13.532  0.4886 -0.1513  0.1320
16574W        W32648   9.770  14.310   0.711  0.0791  0.0803 -0.0417
16575W        W32649   7.115   8.319   5.532 -0.0678 -0.1517 -0.3069
16576W        W32650  16.316   6.258   4.248 -0.1019  0.1903  0.2914
16577W        W32651  10.410  15.534  12.663 -0.0443  0.0495 -0.1031
16578W        W32652  10.652   7.068   1.373 -0.1256 -0.2945  0.1344
16579W        W32653  14.052  16.770   4.491 -0.0878 -0.0651 -0.3503
16580W        W32654   7.196   9.642  14.784 -0.0534 -0.0876 -0.0014
16581W        W32655  10.510  12.290   2.652 -0.1941 -0.0670 -0.2315
16582W        W32656  10.728  14.093   1.805 -0.0749 -0.1588 -0.2391
16583W        W32657  18.379  13.780   1.395 -0.1934 -0.2375  0.1965
16584W        W32658   3.680  12.825  14.634  0.2684  0.3204  0.1276
16585W        W32659   2.788  13.702  14.525  0.0676 -0.2693 -0.1717
16586W        W32660  11.871   8.640  13.083  0.1562  0.3904  0.2210
16587W        W32661   8.789   0.022  13.487 -0.0265  0.1025 -0.1134
16588W        W32662   4.438   5.728  13.335  0.0164 -0.2306  0.2930
16589W        W32663   4.951   2.641  10.353  0.1395  0.1861 -0.1212
16590W        W32664   8.233  18.588  10.780  0.1872 -0.0009  0.0445
16591W        W32665  17.214  10.501   1.180 -0.2296  0.0374  0.1446
16592W        W32666   0.550  18.317   9.660  0.1820  0.1939 -0.1177
16593W        W32667  13.426   9.009   5.077 -0.0414  0.0735  0.0476
16594W        W32668  17.902  13.762   1.574  0.4410  0.1992 -0.0995
16595W        W32669  15.755   5.059   5.105 -0.1924  0.1044  0.0781
16596W        W32670   6.180  12.991   0.910  0.0323 -0.2606  0.3058
16597W        W32671   2.751   3.874  14.679  0.1582  0.0708  0.0277
16598W        W32672  18.679   8.057  10.479 -0.0608 -0.0280  0.2049
16599W        W32673  14.631   1.477  12.431  0.1369 -0.0282 -0.0685
16600W        W32674   5.553  13.321   2.994  0.2756  0.2125 -0.1552
16601W        W32675   7.593  10.293   2.812 -0.0887 -0.0044  0.1611
16602W        W32676   0.187  11.672   3.104  0.0758  0.1326  0.1563
16603W        W32677  18.873  10.369   4.421 -0.1638 -0.5465  0.0568
16604W        W32678   8.130  17.390   9.849 -0.3415  0.1991  0.1268
16605W        W32679  12.368  12.772  14.418  0.1794 -0.4752 -0.1674
16606W        W32680   5.732  10.220  14.379 -0.0214 -0.0184 -0.1374
16607W        W32681  14.734   1.081  14.735 -0.0912  0.0657 -0.0481
16608W        W32682  13.962  14.044  13.317 -0.0369 -0.0183 -0.0946
16609W        W32683   7.368   1.153   3.679  0.2661 -0.1182  0.4117
16610W        W32684   3.325  12.747  13.232  0.1675  0.2262 -0.1692
16611W        W32685  18.321   3.071   0.466 -0.1979 -0.0884 -0.0612
16612W        W32686   8.493  10.999  14.412  0.2272 -0.0312  0.1618
16613W        W32687  10.657  11.526   5.396 -0.1637 -0.2384 -0.2567
16614W        W32688   2.365  18.567   1.312  0.0079 -0.0270 -0.4147
16615W        W32689   0.647  14.865  13.509  0.1686  0.0436  0.2595
16616W        W32690  13.710   1.901  12.527  0.0761  0.4122 -0.1377
16617W        W32691  18.847   2.906  11.941 -0.3747  0.1440  0.1726
16618W        W32692   9.332   7.008  14.225 -0.1670 -0.2894 -0.3840
16619W        W32693  10.741   1.184  11.948  0.0426  0.1288  0.0905
16620W        W32694   2.342   0.663  10.405  0.0821 -0.0086 -0.2515
16621W        W32695  12.101  17.186   2.730 -0.0215  0.2579  0.1412
16622W        W32696   5.583   9.472   0.761  0.1246  0.0890 -0.0918
16623W        W32697  11.293   9.772  13.453  0.4367 -0.1565  0.0578
16624W        W32698  10.212  17.016  13.947 -0.1433  0.0746  0.1742
16625W        W32699   5.251   2.720   3.546 -0.0026  0.0758 -0.1088
16626W        W32700   4.990  14.900  14.368  0.1490  0.2212 -0.0498
16627W        W32701   0.711  15.125   3.420 -0.0237 -0.1528  0.0882
16628W        W32702  18.794  16.243   0.768  0.3037  0.0385  0.6410
16629W        W32703   7.770   1.400  10.491  0.0671 -0.0485 -0.2468
16630W        W32704  10.566   7.228  14.233  0.3231 -0.0409  0.2943
16631W        W32705   5.830   6.532  10.779 -0.2147 -0.1067  0.1154
16632W        W32706  16.948   2.420   0.351 -0.0392 -0.1886  0.2111
16633W        W32707  11.312  16.083   3.153  0.3291  0.1754 -0.1972
16634W        W32708   5.331  12.132   3.378  0.2549 -0.0193 -0.1166
16635W        W32709  18.135   6.750   2.745  0.1597 -0.1476 -0.1432
16636W        W32710   8.710  10.799  11.570  0.2058  0.0898  0.0521
16637W        W32711  15.681   2.627   5.191 -0.0903 -0.0743 -0.0551
16638W        W32712  15.371  11.253  11.968  0.0649 -0.1421 -0.3576
16639W        W32713   9.231   7.528   5.145  0.0728  0.0520  0.1827
16640W        W32714  16.745  13.606  10.752  0.0194 -0.0787 -0.0216
16641W        W32715  12.222  13.168  10.749 -0.2052  0.5423 -0.0684
16642W        W32716   5.668   6.422  14.240 -0.0501  0.1419 -0.1111
16643W        W32717  10.173   9.470  13.030  0.2012  0.0691 -0.1189
16644W        W32718   2.856  16.790  13.633 -0.2005 -0.1753  0.3815
16645W        W32719  12.988  18.795   3.978  0.0925  0.2382 -0.2228
16646W        W32720   7.527   4.485  11.164  0.1476 -0.1347 -0.1530
16647W        W32721  17.574  10.007   2.575  0.3254  0.1399 -0.0647
16648W        W32722  12.977  10.931  11.261 -0.3842  0.1069  0.0313
16649W        W32723   1.653   5.580   4.249  0.1499  0.0203  0.0840
16650W        W32724  12.354   0.597   0.941 -0.0439  0.2675 -0.3476
16651W        W32725  14.764  13.234  11.885 -0.0407  0.0390  0.2153
16652W        W32726  10.072  12.883  11.168  0.2130  0.2183 -0.0113
16653W        W32727  17.215   7.417   4.154  0.0695 -0.2592  0.5130
16654W        W32728  15.813   4.668  11.827 -0.2439  0.3439  0.1085
16655W        W32729  16.658  17.600   2.367  0.2629  0.0358 -0.0100
16656W        W32730  10.128   8.540  10.537 -0.0110 -0.3985  0.1986
16657W        W32731   9.425   4.738   4.622 -0.0917 -0.2735 -0.0370
16658W        W32732   6.475  16.736   3.271 -0.1115 -0.1617  0.4138
16659W        W32733  17.454   8.332   2.580  0.1695  0.3432  0.1352
16660W        W32734   7.098  11.861   2.589  0.1753  0.0404 -0.0527
16661W        W32735   4.357  10.806  12.037 -0.0301 -0.1252  0.0902
16662W        W32736   5.966  15.513  12.663  0.1843  0.2398 -0.1827
16663W        W32737   7.676  12.224   3.481  0.6697 -0.0821 -0.0663
16664W        W32738  13.811   6.793  14.417  0.3294 -0.0939  0.3536
16665W        W32739  14.071   0.995  12.370  0.0121 -0.0626  0.1160
16666W        W32740  10.688   8.088  11.109 -0.0696  0.1007  0.2073
16667W        W32741   1.165   0.354  13.486 -0.0747 -0.0464 -0.2495
16668W        W32742  14.560   3.303   2.166 -0.2976  0.0189  0.0273
16669W        W32743   3.534  15.586  11.499  0.1345 -0.0212 -0.1160
16670W        W32744   1.713   4.356   1.816  0.0275  0.2413  0.0141
16671W        W32745  14.864  14.405   9.480 -0.0831 -0.1010  0.0408
16672W        W32746   3.270   6.905  12.750 -0.2799 -0.4249  0.0355
16673W        W32747  18.215   1.136   0.514  0.1380  0.0061  0.0424
16674W        W32748   6.100  15.207   3.449  0.4075  0.2192  0.3387
16675W        W32749   5.093   9.454   1.701 -0.1159 -0.1480 -0.5513
16676W        W32750   7.295  10.304  12.225  0.0279 -0.4487  0.3203
16677W        W32751  12.746   4.686   4.671 -0.3421  0.1102  0.4469
16678W        W32752  15.016  16.442  13.680  0.0710  0.0287 -0.4805
16679W        W32753  18.013   2.066  11.129  0.1037  0.4033 -0.1422
16680W        W32754   5.479  11.874  10.613  0.0137 -0.2406  0.1110
16681W        W32755  13.702  10.043  12.725 -0.0255 -0.1035 -0.2340
16682W        W32756  14.184   4.352   4.552 -0.0714 -0.0848 -0.3000
16683W        W32757  18.287  15.121   0.798 -0.0639  0.0446 -0.3058
16684W        W32758   8.479  13.660   0.861  0.1105  0.1568 -0.2743
16685W        W32759   8.795   5.291  11.853 -0.2165  0.1340 -0.2248
16686W        W32760  14.385  18.490  12.803 -0.1324 -0.0502  0.1771
16687W        W32761  15.544  13.236   1.672 -0.0942  0.2039 -0.0818
16688W        W32762  13.995   8.142   0.277  0.3051  0.1477  0.1416
16689W        W32763   7.831   6.037  14.244  0.1810 -0.1307  0.2426
16690W        W32764  14.390  16.106   5.814 -0.0288 -0.0649  0.1625
16691W        W32765  11.473  10.384  12.648 -0.1552  0.2425  0.1593
16692W        W32766   4.838   9.388  14.152  0.0590  0.2691  0.0251
16693W        W32767  13.089  16.684   5.077 -0.1473 -0.0311 -0.1867
16694W        W32768  12.169  11.530   1.580  0.0751 -0.2704 -0.0132
16695W        W32769  15.254  13.327   1.202  0.1337  0.1439 -0.3462
16696W        W32770   5.866  15.080   1.020 -0.1929  0.0149  0.6094
16697W        W32771  11.079   1.915   2.317 -0.2233 -0.3226  0.2041
16698W        W32772  13.864   8.538  14.092  0.1314  0.3014  0.3718
16699W        W32773   7.018   8.928   3.836  0.1218  0.0450  0.0034
16700W        W32774  10.455   3.267  10.806  0.0025  0.1172 -0.2426
16701W        W32775   4.721  16.172   3.643  0.0612 -0.3980  0.0577
16702W        W32776   3.130   7.989   2.000  0.0925  0.2727 -0.0983
16703W        W32777  14.274   3.206  10.753  0.0354 -0.3118  0.2729
16704W        W32778  18.209  10.381  13.320  0.1083  0.0190  0.1286
16705W        W32779   4.978  11.235   0.443  0.0672  0.0214  0.4608
16706W        W32780   9.762   2.965  13.209  0.0412 -0.0555  0.2814
16707W        W32781  12.465   5.131   4.234  0.1711 -0.2048 -0.0609
16708W        W32782   9.163   2.740   1.554 -0.0264  0.2482 -0.1802
16709W        W32783  10.170   1.437   4.844 -0.4133 -0.0131 -0.1523
16710W        W32784   7.995   7.355   4.495  0.0736  0.0954  0.0938
16711W        W32785   7.159  17.122   1.404 -0.2430 -0.2589 -0.2724
16712W        W32786   9.668  13.793  10.807  0.0499 -0.1231  0.2672
16713W        W32787   9.767  16.407  13.304 -0.0196  0.0306  0.1839
16714W        W32788  12.454   3.811   2.984  0.2429  0.2460  0.0563
16715W        W32789   9.258  15.533  13.130 -0.4870  0.5063  0.1440
16716W        W32790  12.985  15.306   0.595  0.2132  0.1541  0.2747
16717W        W32791  12.754   6.045  13.055 -0.1659 -0.0562 -0.3813
16718W        W32792  11.242   4.092  12.640  0.0479  0.1199 -0.4544
16719W        W32793   2.073   1.467   0.737 -0.0257  0.1022  0.1734
16720W        W32794  18.788   6.986   0.459 -0.0063  0.0740 -0.1885
16721W        W32795   2.197   8.498   4.217  0.2005  0.1859  0.0594
16722W        W32796   0.865  16.673  10.514  0.2082  0.0305 -0.3228
16723W        W32797  13.861   6.731  10.920  0.1450  0.0575 -0.0546
16724W        W32798   1.381  11.767   3.753 -0.2453 -0.1558  0.4592
16725W        W32799  17.025   1.202   1.014 -0.0656  0.2952 -0.2255
16726W        W32800   6.702   1.493   0.010 -0.0912  0.0275 -0.0476
16727W        W32801  13.979  14.954   2.952 -0.0022  0.2067 -0.4231
16728W        W32802   3.262   6.414   4.240  0.1877 -0.4024 -0.0130
16729W        W32803   5.736   1.393  14.205  0.0655 -0.0703 -0.2990
16730W        W32804   3.697  15.852  14.603 -0.1912 -0.2217 -0.0707
16731W        W32805   6.399  10.771   3.999 -0.0837  0.0994  0.0807
16732W        W32806  18.522  16.080   4.175 -0.4408 -0.0046 -0.0515
16733W        W32807   8.948   5.893  10.101 -0.1354 -0.0170  0.0930
16734W        W32808  18.055  16.548  10.855  0.0938  0.0090 -0.0531
16735W        W32809   1.785   2.842  11.765 -0.0531  0.2601 -0.1001
16736W        W32810  19.314  10.060   4.128  0.2591  0.3174  0.0700
16737W        W32811   9.113  10.738   0.661 -0.2040  0.1635 -0.1204
16738W        W32812   6.135   1.452   5.458  0.3337 -0.0636 -0.1182
16739W        W32813  14.548   5.995  12.948  0.2829  0.2093 -0.0473
16740W        W32814   8.862   7.839  12.904 -0.1027 -0.0183  0.0791
16741W        W32815   9.708   6.730   1.408 -0.1470  0.3375 -0.0063
16742W        W32816   7.890   0.508   4.281  0.1627  0.1825  0.0519
16743W        W32817  11.999   1.533   3.148 -0.0206  0.2343  0.0376
16744W        W32818   2.172   4.666  14.775  0.0768 -0.0461  0.1143
16745W        W32819  19.232   5.891  14.394 -0.1401 -0.2309 -0.1601
16746W        W32820   4.038   1.026  13.593  0.1443  0.0884  0.0791
16747W        W32821  11.149   1.525  12.718  0.1031 -0.1335 -0.0489
16748W        W32822   6.730   0.338   0.641 -0.1785 -0.0850 -0.1820
16749W        W32823  15.282  13.205   3.272  0.0382 -0.4002 -0.0244
16750W        W32824  17.781  12.887  14.850  0.1330  0.0433 -0.0168
16751W        W32825  11.416   3.962  11.027 -0.0419 -0.0198  0.1775
16752W        W32826  14.458   6.096  10.902 -0.0015 -0.2105 -0.0954
16753W        W32827  18.558  16.286   1.823  0.0131  0.1121 -0.0963
16754W        W32828  12.384   6.828   1.044  0.2247  0.0807  0.0138
16755W        W32829  10.842   9.529  14.710  0.0646 -0.1408 -0.2590
16756W        W32830  16.138   4.300   2.418  0.0848 -0.0616  0.0393
16757W        W32831  11.292  11.300  12.623  0.0301 -0.4220  0.0493
16758W        W32832   5.240   7.131   0.777  0.0031  0.0440  0.3461
16759W        W32833   4.141   0.480   2.790  0.1039 -0.1784  0.1073
16760W        W32834   1.084  11.869   4.772  0.0947  0.1235 -0.0904
16761W        W32835   6.819  11.054  13.420 -0.4032 -0.2394 -0.3483
16762W        W32836  17.055  14.288   4.578 -0.1190  0.0758 -0.1585
16763W        W32837   9.020   8.362   0.343  0.0206 -0.0035 -0.1643
16764W        W32838  11.798   4.152   1.236  0.2103 -0.1198 -0.0250
16765W        W32839   7.570  18.780   2.423  0.0890  0.1953  0.2016
16766W        W32840   9.165   0.352  10.702 -0.1994  0.2622  0.2753
16767W        W32841   7.759  17.355   3.700 -0.2428 -0.0942 -0.2382
16768W        W32842   1.854   9.746  11.741  0.0778 -0.2064  0.1625
16769W        W32843   7.509  15.547  10.216  0.0459  0.1143  0.0366
16770W        W32844  16.447  14.687   2.219  0.1398 -0.1565 -0.2813
16771W        W32845  10.535  17.414   2.877 -0.1044  0.3340 -0.1643
16772W        W32846  17.844   2.545  12.842  0.0114 -0.0546  0.0562
16773W        W32847   6.640  15.538   9.970 -0.0933  0.1094  0.1435
16774W        W32848   7.015   6.561   1.401  0.0573  0.0038  0.5522
16775W        W32849   4.743  16.030   0.436 -0.0076 -0.0038  0.1669
16776W        W32850   7.398   2.214   1.736 -0.0990 -0.0228 -0.0163
16777W        W32851   6.700  18.931   0.724 -0.1770 -0.0331  0.1915
16778W        W32852   7.929  13.158  14.892  0.0348  0.2415  0.2691
16779W        W32853  18.073   6.890   4.834 -0.2483  0.2927 -0.1610
16780W        W32854   9.529  17.686  13.007 -0.1199 -0.1399  0.1152
16781W        W32855  13.786  17.066   5.000 -0.0055  0.5854  0.0702
16782W        W32856   1.736   2.065   2.485 -0.3099  0.1202 -0.0165
16783W        W32857   3.279   3.151  10.770 -0.0415 -0.0460  0.3648
16784W        W32858   1.468   0.382   4.452 -0.0766 -0.1770 -0.3311
16785W        W32859   7.233  14.980  13.519  0.1413 -0.1112  0.2541
16786W        W32860  19.264   2.024   1.199 -0.2429  0.2357  0.0149
16787W        W32861  11.590  17.126  14.840  0.0426  0.2046  0.0390
16788W        W32862  17.145   5.815  14.977  0.3731  0.1231  0.2302
16789W        W32863   4.931  13.399  10.554  0.0338 -0.0577  0.1498
16790W        W32864  12.480   2.565  14.863  0.2469 -0.2361 -0.3012
16791W        W32865   4.918  18.630  14.762  0.3454 -0.0580  0.0473
16792W        W32866  13.911   4.097  10.954 -0.1037 -0.2413  0.0874
16793W        W32867   2.428   8.404  14.712  0.0803  0.0946  0.1665
16794W        W32868  11.737   1.049   2.844  0.3704 -0.2667 -0.1181
16795W        W32869  14.944  10.584   0.059 -0.0522  0.2653  0.0459
16796W        W32870  18.210   8.285   3.704  0.0689  0.2184  0.0628
16797W        W32871  14.016   0.178   4.673  0.1575  0.3136  0.3924
16798W        W32872   9.445  17.013   1.572  0.0198  0.0484  0.4128
16799W        W32873   2.501  10.315  14.835 -0.0945 -0.1897 -0.0758
16800W        W32874   5.643  12.533   0.428 -0.2428  0.3013  0.2602
16801W        W32875   6.008  12.652   9.888 -0.1996  0.1564 -0.3340
16802W        W32876  16.868  11.346   1.454  0.1016  0.3218 -0.0262
16803W        W32877   4.888  16.892  14.752 -0.2299  0.4002 -0.2118
16804W        W32878   6.703  13.305  10.455  0.0748 -0.0113  0.1972
16805W        W32879   3.349  10.400  13.065  0.0085 -0.4759  0.1826
16806W        W32880   4.863  15.778   3.220  0.0301 -0.0286 -0.1670
16807W        W32881  18.916  14.993  11.204 -0.0140 -0.0793  0.3735
16808W        W32882  14.535  18.400  11.486  0.3244 -0.1753  0.2573
16809W        W32883  17.122   4.044  13.282  0.0073 -0.2072 -0.0673
16810W        W32884   6.649  15.081   3.518 -0.0629 -0.0405 -0.1015
16811W        W32885  10.350   9.740  10.561  0.0106  0.1107 -0.3680
16812W        W32886   2.840   9.193  14.468  0.1039 -0.0846 -0.2364
16813W        W32887   2.165   2.828   0.619 -0.0582  0.0682  0.1511
16814W        W32888  10.331   6.454  12.060  0.0922 -0.0836 -0.0409
16815W        W32889  11.143   9.684   0.232 -0.2275  0.0610  0.0233
16816W        W32890   5.094   2.892  12.170 -0.1394  0.0102 -0.3571
16817W        W32891   5.828   8.948   5.391  0.2292  0.0934  0.0875
16818W        W32892  17.672   2.186  11.540  0.1709  0.1681 -0.2949
16819W        W32893   7.333  18.170  11.666 -0.1298  0.4961 -0.0336
16820W        W32894   0.950  11.338  12.162 -0.1935  0.1381  0.0203
16821W        W32895   9.569   1.764   3.102  0.0450  0.1387  0.2027
16822W        W32896  17.069   1.247   5.006 -0.0882 -0.1463  0.1814
16823W        W32897  12.550   7.826  12.315 -0.1083  0.1399  0.0935
16824W        W32898   2.415  17.537  13.791 -0.0258  0.2066 -0.0233
16825W        W32899  14.058   1.273   4.471 -0.2022 -0.0778  0.3396
16826W        W32900  18.706   5.438  11.809  0.0825 -0.0088  0.0324
16827W        W32901  12.996  11.656  14.492 -0.0898  0.0599 -0.2206
16828W        W32902   4.011  12.426  12.654 -0.2080  0.1088 -0.2861
16829W        W32903   2.369   9.872   4.311  0.2917 -0.0040 -0.0370
16830W        W32904  14.687  11.371   2.833 -0.2784 -0.1330 -0.3568
16831W        W32905  16.555  11.893   1.267 -0.1481 -0.0080  0.0060
16832W        W32906  14.057  18.255  11.164  0.3679  0.1706  0.0884
16833W        W32907  17.126  12.846   4.302 -0.1414 -0.0204 -0.2474
16834W        W32908   2.436   9.890   0.577 -0.0012  0.2106  0.0901
16835W        W32909  15.147  16.533  12.800 -0.2228 -0.1997 -0.5718
16836W        W32910   1.198  11.686  14.693 -0.1210  0.0001 -0.2521
16837W        W32911  18.791  12.204   2.244  0.1124  0.2341 -0.0736
16838W        W32912   5.810   7.238  11.411  0.0618 -0.2175  0.2284
16839W        W32913   9.960  10.746  10.482 -0.1800  0.0283  0.3195
16840W        W32914   3.093  18.290  13.115 -0.0776 -0.3682 -0.2364
16841W        W32915  13.008   0.087  12.322 -0.2544 -0.2696 -0.1194
16842W        W32916  14.492   2.302   0.085  0.0745 -0.0978 -0.0763
16843W        W32917   6.718  14.947   1.994  0.0321  0.0134  0.0134
16844W        W32918   5.404   9.866  12.850 -0.2311 -0.1507  0.0979
16845W        W32919   6.209   6.399   3.810 -0.6612 -0.0854 -0.1017
16846W        W32920   9.489   4.687  14.564  0.0055 -0.0438  0.1629
16847W        W32921  15.319   2.553   2.395 -0.3503 -0.1654  0.1137
16848W        W32922   8.570   1.952   2.838 -0.2375  0.3949  0.4222
16849W        W32923   8.085  19.262  14.258  0.0427 -0.0716  0.1226
16850W        W32924   3.734   8.270   3.539 -0.1977 -0.1243  0.1636
16851W        W32925   8.676   9.722   3.181 -0.0643  0.1000 -0.0902
16852W        W32926  18.900  15.716   1.289 -0.1212  0.1375  0.1338
16853W        W32927  13.191  11.521  13.424 -0.1207 -0.2490 -0.2321
16854W        W32928   4.315   7.720  14.323 -0.1706  0.1176  0.0092
16855W        W32929   0.916   9.479  12.910  0.1330 -0.1130 -0.0850
16856W        W32930  16.530   2.147   0.243 -0.3164 -0.1397  0.0494
16857W        W32931   4.754   9.042   3.095 -0.3677  0.1908 -0.2153
16858W        W32932  14.979   0.184   1.354  0.1645  0.1153 -0.2712
16859W        W32933   2.957   5.522  10.441 -0.0272  0.0425  0.3128
16860W        W32934  17.429   3.479  12.586 -0.1671  0.0850  0.4822
16861W        W32935   0.285  12.140   3.413  0.3726  0.3594 -0.0321
16862W        W32936   2.429  14.718  10.918 -0.3208 -0.1756  0.0342
16863W        W32937   7.955   7.378   1.008 -0.1613 -0.1441 -0.3051
16864W        W32938  15.015   9.190   2.993 -0.1724  0.0441 -0.1427
16865W        W32939   3.306   3.663   3.697 -0.0965  0.1516  0.0167
16866W        W32940  17.677   9.817   5.085  0.1214 -0.0849 -0.0577
16867W        W32941  15.082   4.553   1.531  0.3783  0.2327 -0.0995
16868W        W32942  19.025  10.134  13.747 -0.1956 -0.0371 -0.2980
16869W        W32943   4.325  13.332   0.944 -0.2831  0.4620 -0.0028
16870W        W32944   3.198   8.348  12.976 -0.2871 -0.0355  0.3297
16871W        W32945   0.893   3.483  14.621  0.0127 -0.0740 -0.1890
16872W        W32946  15.814  11.097   4.091 -0.3563 -0.1765  0.0449
16873W        W32947   5.801  13.092   1.339  0.1449 -0.0878  0.1824
16874W        W32948  12.705   9.325   2.338  0.0306 -0.0780  0.2136
16875W        W32949  18.515   1.615   2.762  0.2087 -0.2212 -0.1862
16876W        W32950  11.586  14.592   3.470  0.2387  0.0225 -0.1505
16877W        W32951  12.822   6.554  14.009 -0.1711 -0.6533  0.0322
16878W        W32952  15.672  16.928   9.960 -0.0210 -0.1869 -0.1076
16879W        W32953  15.218   9.053  11.020 -0.0749  0.1596  0.0367
16880W        W32954   9.472   8.148  11.135  0.0032 -0.1877  0.0226
16881W        W32955  16.900  15.604  13.873 -0.2288  0.0159 -0.2474
16882W        W32956   4.555   6.427   5.070  0.2608  0.0626 -0.1980
16883W        W32957  17.949   1.149   2.209  0.1591  0.2191 -0.0960
16884W        W32958  12.442  14.376   3.371  0.3067 -0.0572  0.0631
16885W        W32959   6.279  17.377  14.021  0.3131 -0.1053  0.3282
16886W        W32960   5.565   3.677   0.730 -0.1388 -0.1925 -0.0111
16887W        W32961  15.944   0.866   3.242 -0.1155  0.0681 -0.2926
16888W        W32962  17.411   6.466   3.152  0.1420  0.1130  0.1236
16889W        W32963   0.830   5.200  11.377  0.1009  0.0722  0.5390
16890W        W32964   7.196  12.789  14.471 -0.0907  0.2163  0.0032
16891W        W32965  14.967   7.567  14.794 -0.0036 -0.1691 -0.0411
16892W        W32966   4.255  15.234   4.665 -0.4086 -0.2560 -0.3278
16893W        W32967  11.495  14.143   3.743 -0.2267  0.0548  0.3381
16894W        W32968   0.615   7.658  11.923 -0.1085 -0.1710  0.0916
16895W        W32969  18.522  14.859  12.301  0.0385 -0.0736 -0.1641
16896W        W32970  14.209  10.685  12.012 -0.1486 -0.1280  0.0962
16897W        W32971   2.519   6.170  12.266 -0.1428  0.0959 -0.1361
16898W        W32972  16.609   9.067   5.267 -0.0101 -0.0137 -0.2523
16899W        W32973   4.914   3.632  11.717 -0.0146 -0.1497 -0.1850
16900W        W32974   1.721  18.724   9.956  0.1692 -0.1227  0.1999
16901W        W32975  18.694  17.487  14.010  0.3122 -0.0443 -0.2379
16902W        W32976  10.699  11.266   1.782 -0.2588  0.1070 -0.1817
16903W        W32977   1.520   8.831  12.642  0.0410  0.1741  0.2927
16904W        W32978   8.372  16.166   3.607 -0.1144 -0.4998  0.0462
16905W        W32979   1.794   9.788  13.372  0.0211 -0.3407  0.1051
16906W        W32980  11.735  15.745   4.185 -0.0867  0.1433  0.1952
16907W        W32981  17.484   2.252   3.769 -0.1498 -0.0501  0.1028
16908W        W32982   0.814   0.279   3.492  0.3642 -0.1209 -0.0510
16909W        W32983  10.159   1.792   1.351 -0.3449  0.2443  0.2204
16910W        W32984  16.446   1.189   4.327 -0.1611  0.4617  0.0698
16911W        W32985   2.103  12.538  10.935  0.1541 -0.1019  0.1384
16912W        W32986   5.600  18.148   4.392  0.0843 -0.3493 -0.0473
16913W        W32987  10.419  11.074  12.481  0.0158 -0.1924  0.0765
16914W        W32988  17.368   1.880  14.708 -0.1348  0.0453  0.1721
16915W        W32989   0.329  10.588   5.254 -0.0056  0.2022 -0.0204
16916W        W32990   0.710   8.559  12.735  0.0234  0.3837 -0.1077
16917W        W32991  10.062   5.985  11.904 -0.0594  0.0767  0.0877
16918W        W32992   0.725   1.044   0.543 -0.1338  0.4245  0.1998
16919W        W32993   6.731   9.719  13.421  0.1175 -0.2147  0.0486
16920W        W32994   4.606   0.474  14.329  0.2015 -0.0594 -0.1901
16921W        W32995  16.491   5.756   5.237  0.0516 -0.2097 -0.3371
16922W        W32996   5.191   2.455   3.073 -0.2651  0.0531 -0.1831
16923W        W32997   3.151   7.956  11.084  0.4989 -0.0682  0.1118
16924W        W32998  18.893  15.174  14.359 -0.0192  0.2786  0.0512
16925W        W32999   8.111   6.222  12.594 -0.2643  0.1864 -0.1345
16926W        W33000  18.183  16.634   1.725 -0.0932 -0.4774 -0.0543
16927W        W33001   0.452   5.143   4.130 -0.0235  0.1919 -0.3021
16928W        W33002  13.638  19.009   0.047 -0.2702 -0.0681  0.1692
16929W        W33003  17.511   7.809  13.197  0.1931 -0.1751 -0.0641
16930W        W33004   2.261  18.898   3.755 -0.1439  0.2178 -0.0853
16931W        W33005   7.218   0.778  10.487  0.1692 -0.0260 -0.0078
16932W        W33006   5.233   3.769  14.481  0.0655 -0.1398 -0.2030
16933W        W33007  17.362  11.968  12.648 -0.1558  0.0810  0.1805
16934W        W33008   9.064   7.278  11.620  0.1621  0.2475 -0.0298
16935W        W33009   9.817   8.975   1.174  0.2368 -0.0418 -0.3044
16936W        W33010   5.660  10.736   3.269  0.0729  0.0145 -0.0905
16937W        W33011   2.352   7.340  11.974  0.2073  0.0433  0.2434
16938W        W33012   8.302   0.222  10.770 -0.3516  0.2572 -0.0166
16939W        W33013  17.884  11.535  14.022 -0.1379  0.5226 -0.0592
16940W        W33014   0.722   4.567  14.326 -0.0735  0.1662 -0.2667
16941W        W33015  15.501  11.241   2.475 -0.0270 -0.0079 -0.0324
16942W        W33016  15.180  14.707   3.992  0.2235  0.1263 -0.1146
16943W        W33017  12.102   8.723   0.356 -0.0538  0.1742  0.0457
16944W        W33018  17.627   5.410   9.816  0.2399 -0.0078  0.1257
16945W        W33019  15.943   8.410   5.201  0.0214  0.1818  0.0673
16946W        W33020  13.215   4.591   4.749 -0.0851  0.4249 -0.2089
16947W        W33021   9.145  17.562   2.242 -0.0852  0.0522  0.0842
16948W        W33022   6.256   3.417   3.110  0.0053  0.3532  0.0926
16949W        W33023  17.125  11.605  11.759  0.2273 -0.1269  0.0958
16950W        W33024   1.771  18.704   0.066  0.2165 -0.1441 -0.0810
16951W        W33025   6.845  15.059  14.364 -0.0045 -0.2041  0.3067
16952W        W33026  14.817   6.017   4.719 -0.1522  0.0145  0.0429
16953W        W33027  16.874   7.799   1.451 -0.1429  0.2504  0.1842
16954W        W33028   8.698   2.893   0.442 -0.2148  0.1921  0.0915
16955W        W33029  13.208   2.953   3.354 -0.0531  0.1005 -0.0677
16956W        W33030   1.312   4.017   0.676 -0.1128  0.2001 -0.3466
16957W        W33031  11.722   8.831   0.891 -0.1285 -0.2341 -0.2101
16958W        W33032   3.878   7.905   3.140 -0.0540  0.2334  0.2531
16959W        W33033   4.044  15.973   3.814 -0.2113  0.2653 -0.4258
16960W        W33034   3.454   4.730  11.845 -0.1000 -0.1257  0.1793
16961W        W33035  14.639  19.255   5.395  0.0766  0.1856 -0.1867
16962W        W33036   1.354   3.689  11.289  0.0574 -0.3689 -0.1334
16963W        W33037  14.502   1.749   0.240 -0.2971 -0.3720  0.2462
16964W        W33038   5.470  11.384  10.977 -0.0007 -0.0138 -0.1030
16965W        W33039   1.089  14.829   1.089 -0.0771 -0.1768 -0.2931
16966W        W33040   5.649  10.195  13.798 -0.0214 -0.2793  0.0061
16967W        W33041  13.645   8.360   3.940  0.0122 -0.2552 -0.1935
16968W        W33042   4.348   2.891  13.820  0.0691  0.2637 -0.0946
16969W        W33043  15.247  18.433   5.675  0.0682  0.3037  0.1365
16970W        W33044  19.076  14.190   5.588 -0.3242 -0.1162 -0.3619
16971W        W33045   9.303  12.381  12.473 -0.0517  0.0792 -0.1157
16972W        W33046   0.261   2.700  14.940 -0.0736 -0.1192  0.1307
16973W        W33047   4.533   6.334   1.708 -0.1748  0.2178 -0.1852
16974W        W33048   5.287  15.421   1.113  0.0717  0.1329 -0.0533
16975W        W33049  13.747  17.940   4.644  0.1391 -0.0357 -0.1693
16976W        W33050  18.578   0.787   0.563  0.0120 -0.3782 -0.0052
16977W        W33051   3.258   3.543  14.436  0.0508 -0.2355 -0.0754
16978W        W33052  17.718   7.388   1.608  0.5335  0.0311  0.1935
16979W        W33053  16.801  14.969  11.037 -0.4264 -0.2894 -0.1392
16980W        W33054   3.706   2.755  10.763  0.2669  0.1737 -0.1985
16981W        W33055  11.947  10.728  12.852  0.4527  0.1925 -0.0885
16982W        W33056  11.378  12.624   0.481  0.0562  0.0024 -0.0530
16983W        W33057  15.967  12.854  14.394 -0.3536 -0.0874  0.2368
16984W        W33058  13.785   6.556  12.851  0.1524  0.1981  0.3080
16985W        W33059   2.473  10.132  10.900  0.3604  0.2681 -0.1105
16986W        W33060   9.501   8.443  13.800  0.0603 -0.2465  0.0096
16987W        W33061  16.593  18.173  14.469 -0.1109  0.0587 -0.2951
16988W        W33062  13.423   5.239  12.153 -0.0892  0.0629 -0.2266
16989W        W33063  18.030   5.472   2.056 -0.2042  0.1971 -0.0864
16990W        W33064  13.467  17.079  11.280 -0.1609 -0.0799 -0.0067
16991W        W33065   0.490   0.709   2.422  0.1190 -0.0645 -0.0805
16992W        W33066   5.278   2.934  13.639  0.2994  0.0093  0.0272
16993W        W33067   7.701   7.039   5.922 -0.1055 -0.2978  0.0810
16994W        W33068  18.244   7.463   2.225 -0.3840  0.0564  0.3004
16995W        W33069  14.163   5.015   5.298  0.1404 -0.2987  0.0439
16996W        W33070   8.184   8.556   4.694  0.0199 -0.1720 -0.2542
16997W        W33071  10.858  12.140  13.257  0.2508  0.0392  0.0663
16998W        W33072   0.071   0.693  12.191 -0.0102  0.0563  0.1799
16999W        W33073   6.544  17.443  13.568 -0.0534  0.0155 -0.0462
17000W        W33074   7.053   1.608  10.947 -0.1187  0.0409 -0.2103
17001W        W33075  17.850   5.439  11.265  0.0763  0.0060 -0.1525
17002W        W33076  13.450   8.522  13.721  0.0756  0.1613 -0.0448
17003W        W33077   5.974   8.392  12.980 -0.0856 -0.0385  0.0607
17004W        W33078   1.616  14.655  12.964  0.4657 -0.3813  0.2352
17005W        W33079   5.245   0.042   1.103 -0.0105 -0.2963 -0.2748
17006W        W33080   8.609   1.233   4.380 -0.0669 -0.0546 -0.2134
17007W        W33081   4.881   5.365  12.439 -0.4264 -0.2697  0.0152
17008W        W33082  10.677  10.022   4.722 -0.1780 -0.3335  0.0960
17009W        W33083  16.616   5.104  13.003  0.0108  0.1464  0.1518
17010W        W33084  19.256   8.020   4.522  0.1278 -0.3184  0.1627
17011W        W33085  16.698   5.462   2.380  0.1966 -0.1715  0.2765
17012W        W33086   8.030   4.755  13.024 -0.3213  0.2294 -0.0014
17013W        W33087   6.707   8.633  10.592 -0.1851 -0.0382 -0.1367
17014W        W33088  13.927  15.437  12.099 -0.0481 -0.1182 -0.2521
17015W        W33089  15.790  14.249  14.525  0.0217  0.1695 -0.2734
17016W        W33090   0.965   9.195   2.369  0.1650  0.2046  0.2100
17017W        W33091  16.650   2.401   2.715 -0.1147 -0.2297 -0.2902
17018W        W33092   5.296  10.805   2.527 -0.1096  0.0991  0.2745
17019W        W33093   5.997   8.099   3.265  0.2100 -0.1669  0.0490
17020W        W33094  17.277   6.120   0.342 -0.0774  0.0227 -0.1699
17021W        W33095  11.341   6.986   1.946  0.0529 -0.0729 -0.0587
17022W        W33096   6.753   5.117  13.593 -0.0477 -0.0122  0.2409
17023W        W33097  17.477  15.311  11.620 -0.4461 -0.1751  0.2153
17024W        W33098   1.012   5.601  13.596  0.2254 -0.5996  0.0576
17025W        W33099  10.495  13.924  13.987  0.2415  0.1660  0.0275
17026W        W33100  18.200  11.292  13.697  0.1738  0.1245 -0.0650
17027W        W33101   2.652   7.050  14.943  0.1287  0.0565 -0.0752
17028W        W33102   3.085   5.292  12.285 -0.1830  0.0351 -0.0780
17029W        W33103   3.301  10.409   1.946  0.0943 -0.0165  0.1694
17030W        W33104  12.621  15.657   4.177 -0.0884 -0.1060  0.3220
17031W        W33105  15.189   2.199  10.591  0.2996  0.3111 -0.0223
17032W        W33106  13.098  17.244  13.002 -0.1140  0.2139 -0.1210
17033W        W33107   1.026  15.675  14.461 -0.4002 -0.5029  0.1040
17034W        W33108   7.961  18.685  14.144  0.1107 -0.0039 -0.1635
17035W        W33109  18.180   1.773   1.846 -0.0547 -0.0704 -0.0667
17036W        W33110  16.060  18.261  12.248  0.0261  0.1286  0.1560
17037W        W33111   1.276   2.468   4.777 -0.0013  0.4380 -0.0230
17038W        W33112  13.970  13.076   2.591 -0.0399  0.2866  0.1479
17039W        W33113   2.287  17.618   1.768 -0.4636 -0.0030  0.2121
17040W        W33114   7.011   3.417   3.659  0.0535 -0.0193  0.1166
17041W        W33115  13.585  15.403   9.820 -0.0087  0.0834 -0.1392
17042W        W33116   9.976   0.665   1.925  0.1114 -0.1523 -0.0456
17043W        W33117  19.267  10.857  11.784 -0.0628 -0.0950  0.2764
17044W        W33118   6.259   1.584   0.308 -0.0327 -0.3379 -0.1755
17045W        W33119  17.798   9.643  13.271  0.1999  0.2341 -0.2812
17046W        W33120  10.856  17.578  10.999 -0.0828 -0.0648  0.0070
17047W        W33121   2.251  11.105  13.575  0.2505  0.2576 -0.2932
17048W        W33122  17.612   8.931  10.635 -0.0192 -0.1191 -0.1843
17049W        W33123   0.771  10.903   4.518 -0.0285  0.0930  0.1966
17050W        W33124   2.342   8.272  12.678  0.1398  0.2076  0.0931
17051W        W33125  10.905   4.033  14.529 -0.0279 -0.0722 -0.0753
17052W        W33126   3.535  10.892  12.242 -0.3572 -0.3451 -0.0278
17053W        W33127  14.687  12.238   0.799 -0.0851  0.3676  0.4937
17054W        W33128  10.533  17.316   9.892  0.1873  0.0874  0.1991
17055W        W33129   4.520   0.029  10.816  0.0583 -0.2966  0.3918
17056W        W33130  12.338   9.269   2.961 -0.3200  0.1651  0.0601
17057W        W33131  16.799  17.799   5.219 -0.1594  0.2249 -0.0640
17058W        W33132  13.659  12.808  12.357  0.0676 -0.1659  0.0811
17059W        W33133  17.251   7.853  12.057  0.2624 -0.2320 -0.3173
17060W        W33134  11.656   6.061   0.973 -0.1837 -0.2747 -0.1236
17061W        W33135  14.138  15.975  12.334 -0.0636 -0.1724  0.1710
17062W        W33136   5.663   2.963  10.041 -0.0201  0.1709  0.0100
17063W        W33137  16.106  15.072   3.954 -0.0384  0.1857  0.0220
17064W        W33138   4.963  12.342  14.677  0.0117  0.0699 -0.2113
17065W        W33139   6.152  19.200   1.691  0.0359 -0.2230  0.1993
17066W        W33140   3.822   1.352  11.681 -0.4287 -0.2503 -0.2163
17067W        W33141  14.218   0.554   1.515 -0.4442 -0.1400 -0.1349
17068W        W33142   6.636   4.278  10.857 -0.0863 -0.2380  0.0754
17069W        W33143  15.436   3.057   2.514  0.0193 -0.0505 -0.1749
17070W        W33144  11.960   0.323  14.036 -0.3873  0.2905 -0.1558
17071W        W33145  10.413   9.951  10.091 -0.2483  0.0287  0.1289
17072W        W33146   5.377  12.306  12.358 -0.0793 -0.0344 -0.0205
17073W        W33147   1.078  14.810   2.419  0.0621 -0.0522 -0.1774
17074W        W33148   3.398   1.965   1.567  0.2479  0.2497 -0.3038
17075W        W33149  11.310  15.781  14.478 -0.1231  0.3215  0.0485
17076W        W33150  10.814   1.808  14.740  0.1002 -0.0348  0.1069
17077W        W33151   5.980   4.124  13.213  0.0287 -0.1246  0.0354
17078W        W33152   0.157   1.156  14.749 -0.0010  0.1948  0.4210
17079W        W33153  17.589  18.676  12.299 -0.0775 -0.2503 -0.0664
17080W        W33154   5.034  16.257  12.056 -0.1560 -0.0680 -0.0995
17081W        W33155   4.311  12.809  14.831 -0.0502 -0.0819 -0.1875
17082W        W33156  14.642   1.131  11.651 -0.2525 -0.0733 -0.0262
17083W        W33157  17.384   2.674  11.535  0.2958 -0.2608 -0.3139
17084W        W33158  17.284   5.937   1.240  0.2133  0.0255 -0.1734
17085W        W33159   8.050  13.919   2.608  0.0066 -0.0603 -0.1171
17086W        W33160  14.724   0.808  10.826  0.2377 -0.0659 -0.0600
17087W        W33161  12.430  12.025  11.232  0.2795  0.0344 -0.0776
17088W        W33162  13.803   3.780   4.657 -0.0282 -0.1138 -0.2006
17089W        W33163   0.758   4.576  12.974  0.2866 -0.0341 -0.1359
17090W        W33164   8.355   2.151  10.015 -0.1263  0.0692 -0.1477
17091W        W33165   8.276  17.983  14.836  0.1855  0.3920  0.0919
17092W        W33166   9.083  11.861  10.668  0.0852 -0.0906  0.4911
17093W        W33167   4.821   4.609   2.067  0.2735 -0.0144  0.1773
17094W        W33168   2.520  11.434  11.903  0.1078 -0.3329  0.1495
17095W        W33169  11.359  16.994  13.112  0.2480 -0.0002  0.2375
17096W        W33170  11.380   7.182  14.413 -0.0827  0.1864 -0.0005
17097W        W33171   1.354  17.443   4.523 -0.2493 -0.5165 -0.2894
17098W        W33172  15.348   9.323   4.645 -0.1630 -0.2809 -0.1257
17099W        W33173  12.530  15.106   0.705 -0.0338 -0.5211 -0.0234
17100W        W33174   9.301  16.890   4.181 -0.2174  0.1187 -0.2633
17101W        W33175  12.305  13.337   1.781 -0.1398 -0.1194 -0.1526
17102W        W33176   8.993  15.994  12.916 -0.2754 -0.0389  0.2495
17103W        W33177  19.096   9.242   0.676 -0.0670  0.0751 -0.0941
17104W        W33178  15.821  12.672  12.874  0.0926 -0.2987  0.0325
17105W        W33179  10.371  12.865   4.523 -0.2322 -0.2204  0.0429
17106W        W33180   0.106   8.083  13.444  0.2672 -0.1093  0.1744
17107W        W33181  11.079  15.218  14.323 -0.0383 -0.1685 -0.1407
17108W        W33182  15.729  10.986  13.801  0.0190  0.1042 -0.0577
17109W        W33183   8.341   5.763   2.807 -0.3266  0.1877 -0.1767
17110W        W33184  16.914   9.939  14.920  0.0657 -0.1517  0.1242
17111W        W33185  18.555   6.733   4.590  0.1178 -0.0210 -0.2994
17112W        W33186  15.360  17.655   5.610  0.4871 -0.3026 -0.0584
17113W        W33187  14.391  17.616  11.533 -0.0893 -0.0509  0.0956
17114W        W33188   0.330   1.878  11.230  0.1245 -0.1417  0.1880
17115W        W33189   6.055  17.421   9.040 -0.0094 -0.0720 -0.1080
17116W        W33190   7.121   9.189  11.216  0.1108  0.0849  0.3214
17117W        W33191   0.588   8.697   3.098  0.4508  0.1810  0.3162
17118W        W33192  15.291   8.135  12.557 -0.1874  0.0021  0.0615
17119W        W33193  18.123   3.896  12.440 -0.1581 -0.0753  0.0690
17120W        W33194   9.833   3.313   0.090 -0.3331 -0.3277 -0.2392
17121W        W33195  16.795   3.112   2.145  0.0499 -0.2644  0.1082
17122W        W33196   5.612   4.211   3.217 -0.1352 -0.0115 -0.2398
17123W        W33197  15.547   1.675   4.329  0.2603 -0.2177  0.0619
17124W        W33198   8.628   9.895  11.407  0.1474  0.0989  0.1669
17125W        W33199  11.163   0.496  14.926 -0.0825  0.1308 -0.2193
17126W        W33200   9.167   0.162  12.118  0.1206 -0.2571 -0.1232
17127W        W33201   9.053   2.348  12.096 -0.2524  0.2197  0.1560
17128W        W33202  17.985   9.560  14.979 -0.0652  0.2702 -0.0933
17129W        W33203  19.130   0.138  11.710 -0.0390  0.0377 -0.1574
17130W        W33204   7.236   6.795  13.250  0.0243 -0.1105 -0.2244
17131W        W33205   8.542  12.917  12.113 -0.0909 -0.1715  0.1886
17132W        W33206  12.234  12.482   1.907 -0.2280 -0.0456 -0.0565
17133W        W33207  10.636   9.367   1.711  0.0047  0.2236 -0.0636
17134W        W33208   1.603   6.008   0.279 -0.3870 -0.0560  0.5746
17135W        W33209   5.577   2.296  12.751 -0.1108  0.1174  0.2990
17136W        W33210  18.089   0.659   0.517  0.2750  0.0889  0.3663
17137W        W33211   6.848  17.127  14.694 -0.1108  0.0488  0.0925
17138W        W33212  15.524  11.271  14.844  0.0840 -0.2851 -0.0304
17139W        W33213   5.042  15.135  12.889 -0.0995  0.2580  0.5188
17140W        W33214  12.004   2.844   0.932 -0.2245  0.1194  0.0728
17141W        W33215  16.612   6.704   0.389  0.0069 -0.5283  0.0848
17142W        W33216  13.717   4.830   3.503 -0.0870 -0.2128 -0.2472
17143W        W33217   7.487  10.996  14.988 -0.0791  0.1642  0.2436
17144W        W33218   4.948   9.231   0.049  0.1008 -0.1687 -0.0865
17145W        W33219   2.441  14.031  12.739 -0.0369  0.0510  0.1422
17146W        W33220  12.361  14.572  10.752  0.2629  0.2285 -0.0588
17147W        W33221  11.443   3.440  13.148 -0.0996 -0.2453 -0.0380
17148W        W33222   3.794   8.908  11.291 -0.0593 -0.2149  0.2911
17149W        W33223   1.575   5.056  14.040 -0.1179  0.0617 -0.0065
17150W        W33224   4.851   0.911   4.583  0.0274 -0.0162 -0.2164
17151W        W33225   8.404   1.802   1.506 -0.0328  0.2400  0.1989
17152W        W33226  11.276   0.613  13.661  0.1157 -0.0840 -0.1821
17153W        W33227  17.698  12.160   5.456 -0.2235  0.1732 -0.2645
17154W        W33228  18.591  12.276  13.981 -0.2802 -0.2266 -0.0955
17155W        W33229  16.692   4.204  14.744 -0.2706  0.1841  0.0081
17156W        W33230  10.202  11.847  12.714 -0.1855  0.0417  0.0389
17157W        W33231   6.499   1.282   3.422 -0.0047 -0.0278  0.1880
17158W        W33232   1.039  13.540   4.263  0.0734  0.0920  0.4106
17159W        W33233  12.581  16.105   1.607 -0.0926  0.1267  0.2282
17160W        W33234   7.360   1.736  11.740 -0.0980 -0.1130 -0.3074
17161W        W33235   1.544   2.142   4.216  0.1716 -0.1752  0.5832
17162W        W33236   0.130   5.522  12.636 -0.0422 -0.0339 -0.0512
17163W        W33237   4.387  13.522  13.565 -0.0526 -0.2236 -0.0963
17164W        W33238  13.665  10.408  14.050 -0.3750 -0.1235 -0.0789
17165W        W33239  17.285  19.312   2.713  0.1605  0.0057  0.0370
17166W        W33240  18.495   7.614   1.722  0.1062 -0.1830  0.0165
17167W        W33241   4.452  17.813   1.716  0.0608  0.0005  0.2903
17168W        W33242   1.324  17.388  13.533 -0.4645  0.0620  0.1040
17169W        W33243   5.385  15.316   0.590 -0.0864 -0.1218 -0.0575
17170W        W33244   0.690   9.972  12.355  0.0124 -0.0307 -0.0977
17171W        W33245   3.024   1.045   0.555  0.2396 -0.0367 -0.3217
17172W        W33246   9.955   8.407  13.238  0.0596 -0.2130  0.2760
17173W        W33247   0.906  15.426   2.335 -0.0736  0.0250  0.1590
17174W        W33248   6.707   0.947  12.233  0.1986 -0.0380 -0.0315
17175W        W33249  10.379  15.814   3.949  0.1936  0.1735 -0.2373
17176W        W33250   5.182   6.033   1.674 -0.0304 -0.0633 -0.1760
17177W        W33251   3.101  12.540  14.004  0.3709 -0.1300 -0.0041
17178W        W33252   8.869   0.765   3.600 -0.0635  0.1129 -0.0604
17179W        W33253  10.489   1.281  12.499 -0.0151  0.1298 -0.2648
17180W        W33254  17.597   2.345   4.491 -0.2495 -0.0239 -0.0950
17181W        W33255  18.983   6.403  11.076 -0.0589 -0.0139 -0.1324
17182W        W33256  12.358   7.367  14.352  0.0245  0.1102 -0.2807
17183W        W33257   3.887  17.871   5.058 -0.2171  0.1970  0.1712
17184W        W33258   8.867   5.326   1.205 -0.2983 -0.0534 -0.0676
17185W        W33259  16.430   2.680   3.940 -0.1627 -0.2422 -0.0914
17186W        W33260  11.035   3.994   9.779 -0.2188  0.2777  0.2048
17187W        W33261   7.976  16.799   2.524  0.0384  0.2507 -0.3266
17188W        W33262   3.279   2.519   5.240 -0.1506  0.0139  0.0525
17189W        W33263   9.513  14.757   0.996  0.1577 -0.1630 -0.2398
17190W        W33264   7.821  15.382  11.102 -0.5716  0.2664 -0.0671
17191W        W33265  18.659   2.062   1.471  0.0009 -0.0723 -0.0508
17192W        W33266   7.339   9.917   1.963 -0.1704  0.0328  0.2620
17193W        W33267   5.512   9.303  14.862 -0.0698 -0.2072 -0.1219
17194W        W33268   6.467   0.463  12.181 -0.1165  0.3317 -0.1911
17195W        W33269  13.765   6.850   3.868  0.1815 -0.2269  0.0130
17196W        W33270  11.096  18.303  10.651 -0.0270  0.4468  0.0403
17197W        W33271  15.783   3.515  10.837 -0.2922 -0.0642  0.0620
17198W        W33272   5.230   8.489  11.129  0.1669  0.0854 -0.2109
17199W        W33273  12.053   7.286   0.245 -0.2197  0.0926  0.1188
17200W        W33274   0.282   8.730  12.854 -0.0107  0.0712  0.1142
17201W        W33275  18.268   0.341  13.584  0.1123  0.2602  0.2201
17202W        W33276  12.470  18.280  11.032 -0.0365 -0.0474  0.3392
17203W        W33277   3.809  16.463   3.864 -0.0649  0.2013  0.1847
17204W        W33278   9.210   8.899  13.766  0.3842  0.1862  0.0360
17205W        W33279   0.574  16.146  12.894 -0.2125 -0.0098  0.0899
17206W        W33280   7.072   5.173   4.881  0.1549  0.0281 -0.0199
17207W        W33281   1.658  12.492   0.012  0.1600 -0.0203 -0.0351
17208W        W33282   7.489  18.097   4.301  0.0033 -0.0134  0.5029
17209W        W33283   6.549  10.694   3.415 -0.4654 -0.2469 -0.0530
17210W        W33284  11.516  15.789   0.527 -0.0928  0.2195 -0.2163
17211W        W33285  10.728  17.957   1.680 -0.0032 -0.1005  0.1174
17212W        W33286   2.376   0.050   0.579 -0.0309 -0.3144  0.0664
17213W        W33287   6.668   8.200  14.149  0.3408 -0.2783  0.0901
17214W        W33288   9.319  14.629   3.297  0.1978 -0.3099 -0.1426
17215W        W33289   3.412  13.434  12.076  0.0307  0.2632  0.0530
17216W        W33290   5.163  10.285  14.455  0.2606  0.3377  0.4178
17217W        W33291  15.366   1.755   0.943 -0.0444  0.3622  0.0330
17218W        W33292   7.289  12.502   3.607  0.0445 -0.3067  0.1857
17219W        W33293  15.406  18.402  12.138 -0.0120 -0.1623 -0.0875
17220W        W33294   0.365  10.764   1.306  0.2590 -0.3470  0.1089
17221W        W33295   1.149  13.216   2.007 -0.2574 -0.0998 -0.0421
17222W        W33296  16.683   2.186  10.986  0.1168 -0.2726  0.0667
17223W        W33297   2.894   6.673   3.897 -0.0261 -0.2155 -0.2045
17224W        W33298  13.653   3.156  11.389  0.1806  0.1797 -0.0081
17225W        W33299  13.920   2.273   0.713  0.0319  0.0541 -0.1049
17226W        W33300  11.085  18.931  13.890  0.0120  0.2660 -0.0557
17227W        W33301   2.168   0.341   2.151  0.1447 -0.1645  0.3101
17228W        W33302   6.096  15.876   4.585  0.0637 -0.0663  0.1505
17229W        W33303   0.513   5.528   1.428 -0.1962 -0.0082 -0.3096
17230W        W33304  10.659  16.931   2.982 -0.1086 -0.0255 -0.0113
17231W        W33305  13.982  14.528  13.595  0.1520 -0.1052  0.1951
17232W        W33306  16.624   5.095  12.225  0.0096 -0.2095 -0.0797
17233W        W33307   5.407   2.646  13.194 -0.1601  0.4055 -0.1011
17234W        W33308   6.574  17.590   0.947 -0.0147 -0.0724  0.2010
17235W        W33309   1.657  17.723  10.666  0.0685  0.0746  0.2635
17236W        W33310  11.582  17.071   3.601  0.0621 -0.0490  0.2780
17237W        W33311  13.962  13.785   2.371  0.0352 -0.0821 -0.1925
17238W        W33312  15.955  17.069   2.273 -0.1718  0.0716  0.0413
17239W        W33313   1.702   7.363   4.062  0.3306  0.2605 -0.0656
17240W        W33314   1.835  11.509   0.696  0.4535 -0.0332 -0.0606
17241W        W33315  18.223  13.581   1.951 -0.1966  0.2307 -0.2782
17242W        W33316   7.537  11.669  14.448  0.0751  0.1771  0.2117
17243W        W33317   9.840  16.872   3.372  0.0560  0.1612 -0.1645
17244W        W33318  17.492   0.498   2.121 -0.0023 -0.0151 -0.0003
17245W        W33319   0.613   0.637  12.306  0.0340  0.2062  0.3142
17246W        W33320  11.749   4.337   3.478  0.3010  0.0004  0.1266
17247W        W33321   6.593   7.465   3.105 -0.2950  0.1666 -0.3013
17248W        W33322   0.310   7.563  14.340 -0.0323 -0.0463 -0.2115
17249W        W33323   5.946  12.633   2.768  0.1057 -0.2634 -0.0054
17250W        W33324   6.993  17.032  13.872 -0.2094  0.3157 -0.2274
17251W        W33325   2.325  12.188   4.109 -0.1111  0.2014 -0.4035
17252W        W33326  16.634   9.231   4.765  0.0379  0.0714 -0.0216
17253W        W33327   3.339  19.046   3.042 -0.1778  0.0325 -0.0346
17254W        W33328  11.380  15.654  10.052  0.2640 -0.0623 -0.2831
17255W        W33329  17.366  15.467   5.418  0.2232  0.1028  0.2451
17256W        W33330   8.188   1.596  14.873 -0.0407 -0.4343 -0.0963
17257W        W33331  19.107  12.955  13.731 -0.0984  0.3785 -0.0216
17258W        W33332  17.836  12.089  13.108 -0.2912 -0.1969 -0.3761
17259W        W33333   1.431  11.027   0.662 -0.3285 -0.0439 -0.1119
17260W        W33334  16.743  13.765   2.259 -0.0441  0.1316  0.1030
17261W        W33335   4.389   0.979  10.105  0.1551  0.1292 -0.2129
17262W        W33336  18.101   8.163  11.936  0.0395  0.0398  0.1809
17263W        W33337   0.626  18.734   4.627 -0.0947 -0.1674  0.0389
17264W        W33338   7.608  18.039  11.259  0.0169  0.0522 -0.0687
17265W        W33339  16.851   4.409   2.573  0.0147  0.1028  0.4192
17266W        W33340  14.884   5.999   3.867 -0.2279  0.0839 -0.0114
17267W        W33341   5.439  10.392  12.740 -0.3114 -0.1129  0.2958
17268W        W33342  16.084   5.973   1.944  0.0596  0.0797  0.0511
17269W        W33343   2.866   9.105  12.221  0.1568  0.1091  0.1195
17270W        W33344  17.603   9.940   1.991  0.0337 -0.1564  0.2912
17271W        W33345  11.528   2.283   1.130 -0.0224 -0.2026 -0.1073
17272W        W33346  12.332   0.904   2.110 -0.0468  0.1036 -0.1962
17273W        W33347  14.664  15.225   1.971 -0.0859  0.1135  0.1032
17274W        W33348  15.882   8.261  14.856  0.0375  0.1006 -0.1294
17275W        W33349   0.409   9.248  14.616  0.0148  0.0397 -0.1428
17276W        W33350  12.839  19.237   3.560  0.1675  0.1108  0.0326
17277W        W33351   9.963   7.944   3.467 -0.0424 -0.0776  0.1552
17278W        W33352   8.358   9.484  13.974  0.0023  0.0856 -0.0203
17279W        W33353  17.072  10.768   2.199 -0.0984 -0.0035  0.1129
17280W        W33354   0.830  11.261  12.718 -0.1389 -0.0303 -0.0036
17281W        W33355   3.015  14.454   4.120 -0.0026  0.3511 -0.3173
17282W        W33356   0.962  13.137   2.543 -0.0580  0.0613  0.2432
17283W        W33357   1.450  17.620  11.176 -0.0145  0.0910  0.0536
17284W        W33358   5.002   6.967  14.747  0.2355 -0.2814  0.3352
17285W        W33359  16.012  15.052   4.739  0.0149 -0.2855 -0.2155
17286W        W33360   5.927   5.511   5.696 -0.2432  0.0186  0.0057
17287W        W33361  11.037   3.259  13.402  0.1855  0.0195  0.0118
17288W        W33362   8.255   1.469   1.919  0.0445  0.1713  0.2340
17289W        W33363   5.560   8.267  11.447  0.0563 -0.0926  0.0710
17290W        W33364   4.542   9.955   1.499 -0.1907  0.2097 -0.0646
17291W        W33365  12.914   3.728  11.034 -0.1163 -0.0995 -0.5215
17292W        W33366  17.380  17.715  10.584  0.1557 -0.1072  0.2466
17293W        W33367   5.844   5.538  12.571  0.3011 -0.2794 -0.0561
17294W        W33368  18.541  15.980   5.720  0.1180 -0.1774  0.0074
17295W        W33369  14.990   2.525   0.106 -0.1043 -0.2175  0.0580
17296W        W33370  14.484   2.116  11.628  0.2820  0.1085 -0.1280
17297W        W33371  13.297  10.580   2.646  0.0711 -0.1055 -0.1457
17298W        W33372   6.842   2.205   4.527 -0.0628 -0.1665 -0.0355
17299W        W33373   9.439  10.896  12.385  0.0090 -0.0659  0.0691
17300W        W33374   0.597  16.816  14.730 -0.0027  0.1453  0.2676
17301W        W33375   8.257   6.853   2.726 -0.0421  0.0387  0.0180
17302W        W33376   6.882  17.906   4.786  0.2130  0.1217  0.2162
17303W        W33377  15.399  10.600  14.217 -0.2425 -0.0086  0.1493
17304W        W33378  17.346  18.613   1.041 -0.0817 -0.1627 -0.3051
17305W        W33379   5.907   3.505   3.561 -0.1209 -0.1705 -0.1606
17306W        W33380   2.587   7.092   3.848 -0.2220 -0.1126 -0.1262
17307W        W33381  13.779  17.267   3.419  0.2402  0.2975 -0.2662
17308W        W33382   3.640   1.857  12.940 -0.0816 -0.1005 -0.1914
17309W        W33383   7.478  11.234  11.915  0.1184  0.3345 -0.1468
17310W        W33384   7.288   8.618   3.049  0.3418 -0.1076 -0.0804
17311W        W33385  19.063  18.954   2.154  0.0181 -0.1629  0.0303
17312W        W33386  13.150   3.467  10.579 -0.1001 -0.1046 -0.2347
17313W        W33387  17.320   5.786   3.302  0.0251 -0.2762  0.0719
17314W        W33388   2.312  10.996  11.639 -0.1837 -0.0783 -0.0296
17315W        W33389   2.825   2.585   5.404 -0.0017  0.0619  0.3334
17316W        W33390   7.066   8.216  11.886 -0.0621  0.1195  0.1086
17317W        W33391  11.456   9.727   2.704  0.3068  0.0277 -0.0588
17318W        W33392   8.657  15.964  10.805  0.1050 -0.2753  0.0090
17319W        W33393   2.747  15.153   0.816  0.0080  0.1929  0.0723
17320W        W33394   1.339   0.598   5.339  0.0524 -0.3546  0.3016
17321W        W33395  16.415   3.776   3.240 -0.0908  0.1785  0.0984
17322W        W33396  16.912  14.518   2.201  0.1689  0.2626 -0.1084
17323W        W33397   9.632  14.956  10.261 -0.0397  0.0541  0.0971
17324W        W33398   9.396  15.847  10.096  0.1283  0.1667  0.1001
17325W        W33399   3.045  18.586  10.272  0.0850  0.0764  0.1409
17326W        W33400   2.554  14.425  13.648  0.0685 -0.0431 -0.0994
17327W        W33401   8.266  15.637  11.977 -0.1136 -0.1827 -0.0131
17328W        W33402   0.460   4.002   0.681 -0.1670  0.0900 -0.2103
17329W        W33403   9.505  10.904   1.859  0.0716  0.0506  0.1405
17330W        W33404   1.632  19.090  10.943 -0.1295 -0.3549 -0.1155
17331W        W33405   5.039   5.700  11.087 -0.0563 -0.1065 -0.1109
17332W        W33406  11.917   0.520  10.262  0.1773  0.1566 -0.0202
17333W        W33407   9.886   0.484  13.230  0.0065 -0.1125  0.2508
17334W        W33408   0.946   7.351   0.858 -0.1414  0.1426  0.2295
17335W        W33409  10.715   2.952   0.189 -0.1111  0.3538  0.4045
17336W        W33410   6.915   4.616  11.650 -0.3342 -0.2808 -0.1314
17337W        W33411   9.424  12.246   3.228 -0.1279 -0.3199  0.2731
17338W        W33412   5.450  13.488   1.074  0.2042 -0.0218  0.2822
17339W        W33413  15.588  15.007  11.633 -0.3407  0.2341  0.2968
17340W        W33414  10.224   3.410   2.729  0.0273 -0.0531 -0.0015
17341W        W33415   3.265  19.039   0.440 -0.0308  0.1485  0.2075
17342W        W33416   9.506  17.151  14.616 -0.2148  0.3579  0.0563
17343W        W33417   6.411  15.086   0.510  0.1539 -0.3931  0.0422
17344W        W33418   1.795   2.020   1.279 -0.1164  0.1307 -0.0132
17345W        W33419   2.631   5.621   3.050  0.2097  0.0015 -0.0347
17346W        W33420   5.619  18.731  12.547 -0.0777  0.2199  0.2244
17347W        W33421  11.419   2.869   2.065  0.5125  0.1345  0.1047
17348W        W33422   2.876  18.066   4.107  0.0393 -0.1324 -0.5690
17349W        W33423  16.492  10.399  14.970 -0.3750  0.0368  0.1237
17350W        W33424  17.685   7.730  10.928 -0.1182  0.1123  0.0283
17351W        W33425   5.273   0.691   3.624  0.1578  0.0363 -0.1382
17352W        W33426   2.415  11.815   3.716 -0.2365 -0.1031  0.0513
17353W        W33427   9.639   1.170  11.261 -0.1943 -0.0125 -0.0868
17354W        W33428   6.225  11.226   0.660  0.3348 -0.0174 -0.0612
17355W        W33429   8.646   6.288   9.823  0.1326 -0.0633  0.3144
17356W        W33430  16.305   6.710   0.008 -0.0036 -0.2212 -0.1395
17357W        W33431  14.233  16.461  14.700  0.3390  0.0247  0.2420
17358W        W33432   6.411  14.002   4.297  0.5287  0.0490 -0.0037
17359W        W33433  11.924  11.147   2.188 -0.1149 -0.0476  0.1564
17360W        W33434   4.823   4.012  13.902  0.0324  0.0618 -0.1066
17361W        W33435   4.344  10.750   2.136  0.1672  0.3032 -0.0499
17362W        W33436  11.236  10.284  10.670 -0.3775 -0.1584  0.0605
17363W        W33437  11.623   6.390   1.751 -0.3984  0.4050  0.4507
17364W        W33438  14.690  16.201  11.794 -0.0469  0.2509 -0.1500
17365W        W33439   9.697  11.718  12.820 -0.3211 -0.1731  0.1802
17366W        W33440   1.969  17.409  12.731  0.0721  0.0069  0.3156
17367W        W33441   5.449   2.846   0.638 -0.2278  0.0243  0.1133
17368W        W33442   5.093  17.243   2.874 -0.2014 -0.1234 -0.0320
17369W        W33443  16.825   8.421   0.549 -0.0681  0.0879  0.1718
17370W        W33444  12.189   5.305   2.590  0.0652 -0.1550  0.0105
17371W        W33445   2.852   3.459  11.607  0.1100 -0.3550  0.2890
17372W        W33446  17.319   8.786  13.309  0.0230 -0.2794 -0.0284
17373W        W33447   3.766  13.164   2.770 -0.2140  0.0502  0.4171
17374W        W33448  19.077   4.085  14.258  0.1290 -0.1335  0.3036
17375W        W33449  12.136  15.980  14.085  0.0162  0.0300 -0.0202
17376W        W33450  12.362   7.089  11.580 -0.0661  0.2323  0.2249
17377W        W33451   1.288   5.184  10.837  0.1366 -0.2678  0.0911
17378W        W33452   0.314  11.115   1.637  0.1414  0.0411 -0.0846
17379W        W33453   5.623  10.836   1.715  0.2229  0.0149 -0.0488
17380W        W33454  12.047   8.116  11.567  0.2330  0.0678 -0.1020
17381W        W33455   9.966  12.695  14.947 -0.1710  0.1082  0.1971
17382W        W33456  12.023  12.926  13.924 -0.0442 -0.1665 -0.1068
17383W        W33457   1.421  13.160   3.383  0.0663 -0.3037  0.0890
17384W        W33458  17.367  15.401   2.803 -0.3551  0.3396  0.1188
17385W        W33459   6.096  15.150  13.047  0.1927 -0.1592 -0.1895
17386W        W33460  12.171  12.492   3.535  0.1459  0.0836  0.0279
17387W        W33461  16.149  10.302   4.140  0.0538  0.0437 -0.1723
17388W        W33462  13.786  14.314  14.425 -0.1063  0.2623 -0.1351
17389W        W33463   1.249   8.385   4.089  0.0416 -0.2527 -0.0454
17390W        W33464  17.227  16.613   1.753  0.3911 -0.1107  0.3594
17391W        W33465   1.622   3.047  13.222 -0.2030  0.2523 -0.2761
17392W        W33466  16.514   3.799   5.102 -0.1747  0.0667 -0.0026
17393W        W33467  18.441  12.916   3.121  0.1547 -0.2852  0.1036
17394W        W33468   3.518   9.989   3.271 -0.0430 -0.0910  0.4608
17395W        W33469   5.056  11.850   0.442  0.1022  0.0837 -0.2386
17396W        W33470   9.240  17.227  13.103 -0.3693  0.0330 -0.1570
17397W        W33471  14.674  16.742  13.884 -0.0272  0.0237  0.2235
17398W        W33472   5.740  11.794   1.902  0.4655  0.0087  0.0153
17399W        W33473  13.773   1.224   2.035 -0.1001 -0.2125 -0.3572
17400W        W33474  17.917   5.161   3.452  0.4215  0.2877  0.0222
17401W        W33475  17.462  12.361  13.177  0.3567 -0.1572 -0.0662
17402W        W33476  15.918  11.876   4.684  0.0504 -0.2250  0.0719
17403W        W33477  15.948  13.819   1.079 -0.1683 -0.0512  0.2947
17404W        W33478   9.653  15.062  13.068 -0.1019  0.3553 -0.1815
17405W        W33479  17.718  11.147  12.329 -0.0816  0.0665 -0.0452
17406W        W33480  12.334   3.567   0.451  0.1981  0.0179 -0.2149
17407W        W33481   9.594   8.710  14.680  0.1236 -0.3515  0.0197
17408W        W33482  12.605  12.837   2.440 -0.0423 -0.1798 -0.0704
17409W        W33483  17.595  16.949  11.600 -0.3659 -0.0686  0.1418
17410W        W33484   4.156   4.225   3.210 -0.2514 -0.2858 -0.2051
17411W        W33485   5.363  12.866   4.317 -0.1226 -0.6521  0.0747
17412W        W33486  12.806  19.084   1.708 -0.0851  0.1153 -0.2168
17413W        W33487   4.924   9.636   3.218 -0.1773  0.1426  0.0207
17414W        W33488   6.195  11.920   2.090 -0.1896  0.1946 -0.2268
17415W        W33489   3.585  14.052   0.418  0.2842 -0.1573  0.0430
17416W        W33490  12.766  15.325   3.281  0.2278  0.1960 -0.0136
17417W        W33491   8.897  12.388   4.151 -0.2981 -0.1573 -0.4860
17418W        W33492  14.414   6.532   2.713  0.1105 -0.0208 -0.1516
17419W        W33493   0.232  12.171   5.704  0.1435  0.0495  0.1195
17420W        W33494  15.977   5.118   3.330 -0.3288 -0.0929 -0.1570
17421W        W33495   1.890  10.565   0.724  0.2331 -0.2337 -0.0771
17422W        W33496   7.167  14.149  10.982  0.2508 -0.1885 -0.0628
17423W        W33497  15.872   8.602   3.735 -0.0257  0.4825 -0.3277
17424W        W33498  14.308   8.659  13.106 -0.2388  0.1211 -0.3010
17425W        W33499  13.047   8.229   4.231 -0.0626 -0.1593 -0.1144
17426W        W33500  14.775  18.836   1.921  0.0378 -0.0703  0.2969
17427W        W33501  17.994   8.179   4.258 -0.1493 -0.0520 -0.1976
17428W        W33502  10.280  16.936   0.270  0.0604 -0.1731  0.0303
17429W        W33503  16.987  10.701   0.771 -0.1145  0.1077  0.3777
17430W        W33504  10.964   6.272   2.880  0.1402  0.0996 -0.1240
17431W        W33505   5.328   0.102   0.076  0.0033  0.4215  0.2057
17432W        W33506   7.969   9.882  11.233 -0.0638  0.3434  0.0742
17433W        W33507  12.349  12.523  12.141  0.0468  0.4490  0.1218
17434W        W33508  15.751  10.980  13.276 -0.2380 -0.2137  0.0223
17435W        W33509  12.486   8.943  14.007 -0.2443 -0.2497  0.2739
17436W        W33510   9.519  19.271   1.526 -0.0749  0.2673  0.0229
17437W        W33511  16.765   4.638   3.125 -0.1891  0.1045 -0.0146
17438W        W33512   6.321  14.114   2.775 -0.0022  0.5653  0.0173
17439W        W33513  17.573  19.078  14.093 -0.2673  0.1524  0.0976
17440W        W33514   5.685   5.340   3.339 -0.0750 -0.1865  0.0611
17441W        W33515  10.221  16.065   2.711 -0.0575  0.2708 -0.3751
17442W        W33516  12.378   9.523   0.601  0.1494 -0.2408 -0.1305
17443W        W33517  11.456   3.928  14.404 -0.1189 -0.2422  0.2583
17444W        W33518  15.623  11.065   1.899 -0.2635 -0.2315  0.2120
17445W        W33519  16.760   4.947   2.460 -0.0933 -0.0125  0.0301
17446W        W33520   3.154   0.543   0.792 -0.1734 -0.0636  0.0741
17447W        W33521   2.287   6.432  14.031  0.0394 -0.0943  0.0032
17448W        W33522   4.472   1.124  14.927 -0.0745 -0.0465  0.3930
17449W        W33523   9.386  14.925  13.540  0.1323  0.3797 -0.0552
17450W        W33524  14.427   7.057   4.763 -0.1730  0.3332  0.2516
17451W        W33525   5.326   0.181  12.003 -0.4268  0.3689  0.4630
17452W        W33526  16.442   2.975  13.824  0.1914 -0.0664  0.0230
17453W        W33527   3.993  14.981  10.954  0.1719  0.0868  0.2001
17454W        W33528   5.992   1.569  14.669 -0.1035 -0.2619 -0.1415
17455W        W33529   3.278  17.678  11.490  0.1169 -0.0337  0.3040
17456W        W33530   0.705   2.789  13.605 -0.2502 -0.3103 -0.1271
17457W        W33531   2.030  12.160  11.863  0.1050 -0.1041  0.7278
17458W        W33532   1.370   0.283  10.857 -0.1854 -0.0135  0.1080
17459W        W33533   3.463   0.593   3.809 -0.1793  0.0903 -0.0469
17460W        W33534  15.407   3.848  12.816 -0.2895  0.1448 -0.0175
17461W        W33535   6.796   2.364   9.947  0.3193 -0.1387 -0.1668
17462W        W33536  18.971   8.257  13.348 -0.1039 -0.2186  0.3246
17463W        W33537  17.528   9.946  12.027  0.1342 -0.0260  0.1661
17464W        W33538  12.542  11.025   5.374  0.1377  0.0737  0.3283
17465W        W33539  15.418   0.501   3.975 -0.2335 -0.1336 -0.0618
17466W        W33540  13.376  15.450  11.350 -0.0662  0.2208 -0.1681
17467W        W33541  14.623   0.020  13.222 -0.1668  0.1611  0.1898
17468W        W33542  15.692  10.138   4.971  0.0192 -0.1897  0.1347
17469W        W33543  12.186  19.105  13.608 -0.2671 -0.1751 -0.0113
17470W        W33544   3.420   0.303  13.613 -0.0588  0.2076 -0.1201
17471W        W33545   7.252  15.796  12.050 -0.2062 -0.1582  0.1074
17472W        W33546  11.244  15.044  14.793 -0.5396  0.2760  0.3225
17473W        W33547  16.476  15.796   4.382 -0.0077 -0.0163  0.2270
17474W        W33548  18.242   1.614   0.649  0.3351  0.0118  0.0508
17475W        W33549   3.445   7.644   5.304  0.2109  0.0532  0.0377
17476W        W33550  15.055   4.082   1.566  0.1354  0.0414 -0.0082
17477W        W33551   2.412   1.644   3.391  0.0090  0.0037 -0.2494
17478W        W33552  18.281   3.562   3.439  0.1948  0.1327 -0.0694
17479W        W33553  11.205   6.642  11.962  0.0876 -0.0284  0.0696
17480W        W33554   4.300   6.978   3.810 -0.2966 -0.3976 -0.0933
17481W        W33555   9.792  17.311  12.763 -0.0593 -0.0535  0.0173
17482W        W33556  15.598  19.335  12.193  0.5267  0.3629  0.4041
17483W        W33557  10.200  16.751   3.735  0.2375 -0.1142 -0.2766
17484W        W33558   6.906  10.337   2.165 -0.0261  0.0506  0.0970
17485W        W33559   0.491   6.241   5.727 -0.1680 -0.0543 -0.1952
17486W        W33560  17.087   2.738   1.986 -0.0675 -0.0378  0.0127
17487W        W33561  15.604  10.376   2.923 -0.0235 -0.0590 -0.0568
17488W        W33562  10.933   1.583   4.516  0.0657 -0.1014  0.2316
17489W        W33563   0.074   9.855  13.595  0.0424  0.4065  0.2641
17490W        W33564  11.637   8.158   4.439 -0.2910 -0.2108  0.1031
17491W        W33565   6.437   8.139   2.852  0.0950 -0.2848 -0.1747
17492W        W33566   2.960  14.205   5.511 -0.0227 -0.1196 -0.2158
17493W        W33567   9.969   0.617   4.785 -0.0741 -0.0112  0.0929
17494W        W33568   8.474   0.953   1.232 -0.0586 -0.0646 -0.1808
17495W        W33569   4.905   8.001  12.360  0.0383  0.1370 -0.0587
17496W        W33570   2.418   5.517   2.335  0.1436  0.2249  0.1912
17497W        W33571  17.633  17.930  11.991 -0.2020 -0.2423  0.1230
17498W        W33572  13.973   3.445   5.014  0.0700 -0.1311  0.0647
17499W        W33573  10.949   5.612   1.498  0.1121  0.4066 -0.1106
17500W        W33574   0.430  12.964  14.422  0.0055 -0.0301  0.2240
17501W        W33575   6.318  10.678  12.236 -0.0443 -0.1223 -0.0798
17502W        W33576   2.118   8.230   2.699 -0.1629  0.0609  0.1007
17503W        W33577  15.624   3.486  14.995 -0.1585 -0.1043 -0.0290
17504W        W33578  10.815   4.115  13.687  0.1608  0.1078  0.0542
17505W        W33579   2.716   7.309   1.975  0.3724 -0.0496 -0.3889
17506W        W33580   7.073  16.278  14.424  0.1701 -0.1363 -0.0532
17507W        W33581   8.557  12.668  13.685  0.1057 -0.0937 -0.1171
17508W        W33582   2.115  11.195  14.987 -0.1006 -0.3156 -0.1377
17509W        W33583  15.800   3.742   3.543 -0.2922 -0.0663 -0.0368
17510W        W33584   2.037  13.009  11.149  0.1272 -0.2321 -0.2396
17511W        W33585   3.577   3.197  10.265 -0.1345  0.3859 -0.0233
17512W        W33586  14.517   5.433   3.328  0.2034 -0.0356 -0.0534
17513W        W33587  15.842  17.802   1.915 -0.0546 -0.1754  0.0916
17514W        W33588   2.706   9.408  10.467 -0.1404  0.0503  0.1646
17515W        W33589  10.123   4.738  10.682  0.1927  0.3799 -0.0836
17516W        W33590   6.926   9.537   0.404  0.1068 -0.0152  0.2285
17517W        W33591   3.321  11.849   3.574  0.0681  0.1984 -0.2445
17518W        W33592  15.419   6.864   3.351 -0.2418  0.0067  0.4628
17519W        W33593   0.919   9.781   4.991 -0.1833 -0.1335  0.2317
17520W        W33594  12.625   4.219   4.468  0.1928  0.2508  0.2970
17521W        W33595  11.432  11.584   0.742 -0.2635  0.1220  0.0689
17522W        W33596   9.332   7.802  11.960 -0.0550 -0.1032 -0.4780
17523W        W33597  11.064   1.141  11.186  0.1701 -0.0529 -0.1707
17524W        W33598   5.794   5.883  14.565  0.0575  0.0111  0.1201
17525W        W33599   8.823   7.192   3.949  0.0777  0.2652 -0.0536
17526W        W33600  14.520   2.952   0.874 -0.2320  0.0223 -0.0184
17527W        W33601  13.385  18.664  10.109 -0.0114  0.0247 -0.3628
17528W        W33602  15.060  19.323  14.628 -0.0067 -0.0684  0.0869
17529W        W33603  17.491   1.501  13.142 -0.3620  0.0239  0.0888
17530W        W33604   0.879  19.325   1.256  0.0908  0.2246 -0.0087
17531W        W33605   7.259   6.806  12.536  0.0092  0.1561 -0.0001
17532W        W33606   2.635   9.287  13.582 -0.0915  0.0649 -0.0090
17533W        W33607   3.601   2.357   3.296 -0.3234  0.2437  0.2721
17534W        W33608   0.540  18.637  13.169 -0.0560  0.2526 -0.1041
17535W        W33609  12.792  12.776  10.289  0.2866 -0.0649  0.1053
17536W        W33610   4.787   8.614   2.697  0.2823  0.3156  0.0760
17537W        W33611   3.566  17.965  12.314  0.1105  0.3212 -0.2520
17538W        W33612  12.115   0.179   2.654 -0.2194  0.0095 -0.2307
17539W        W33613   9.442  19.177   0.158 -0.5570 -0.0152  0.1075
17540W        W33614   5.334   0.160  14.600  0.2305  0.0865 -0.3065
17541W        W33615   4.813   8.661  11.597 -0.1104  0.0175 -0.0706
17542W        W33616   8.930  18.918   4.944 -0.0047  0.1677 -0.2106
17543W        W33617   5.627   7.734   1.547 -0.2006 -0.0893  0.0416
17544W        W33618  19.169  11.060   3.829 -0.3549 -0.1417 -0.2797
17545W        W33619  11.409   6.625   5.322  0.3769 -0.0153 -0.1623
17546W        W33620  12.257   4.886  12.901 -0.5684  0.1855  0.1275
17547W        W33621   9.457  12.794  11.284  0.4048  0.2664  0.2621
17548W        W33622   8.874  14.671  14.249 -0.1487 -0.0478  0.1208
17549W        W33623  13.526  18.304   1.262 -0.2238  0.0631 -0.0860
17550W        W33624  10.556   8.550  11.803 -0.4636  0.0746  0.0052
17551W        W33625  14.424  16.331  13.720 -0.2238  0.1900 -0.3758
17552W        W33626  14.550   3.761  14.864  0.0875 -0.0645  0.0881
17553W        W33627   9.049  12.514   3.203  0.1671 -0.2726 -0.0012
17554W        W33628   2.646   3.044   3.600 -0.1853 -0.0163 -0.1259
17555W        W33629   9.299  17.763  11.189  0.1586  0.0291  0.1859
17556W        W33630  18.605   9.333   3.948  0.1155 -0.3788  0.0354
17557W        W33631  18.251   4.936   3.892 -0.1027 -0.1189 -0.2781
17558W        W33632   9.708   0.972   3.760  0.1780  0.0714 -0.1093
17559W        W33633  16.213  16.754  10.806  0.1959  0.3093  0.0737
17560W        W33634   6.938   8.138   1.537 -0.0568  0.1856 -0.3266
17561W        W33635  18.008   9.076   2.478  0.2517  0.0643 -0.1664
17562W        W33636  14.580   2.258   5.315  0.0320 -0.2152 -0.0017
17563W        W33637   3.266  10.696   3.825 -0.0406  0.3699  0.1051
17564W        W33638   4.600   4.883  11.073  0.2808  0.0804 -0.3132
17565W        W33639   2.542  10.823   5.000  0.2388  0.0850  0.2864
17566W        W33640  11.162   4.531   2.788 -0.1471  0.2944 -0.0473
17567W        W33641  14.681  10.748   1.667  0.3160  0.0497  0.2768
17568W        W33642  13.135   8.561   3.844  0.2095  0.1730  0.3245
17569W        W33643   3.059   0.761  11.692 -0.0476  0.3443 -0.2454
17570W        W33644  10.025   7.606   1.162 -0.0789  0.0554  0.2445
17571W        W33645  16.510   0.054  11.685 -0.2216  0.3188  0.2351
17572W        W33646   4.584   2.308   4.911 -0.0234  0.0158  0.2760
17573W        W33647   6.561   9.073  11.293 -0.0131 -0.0938 -0.4031
17574W        W33648  18.925  18.159  11.453  0.2317  0.2149  0.0594
17575W        W33649  15.941  15.599   3.153  0.0604  0.0530  0.0451
17576W        W33650   1.171  17.770  12.143  0.1330 -0.0385  0.0326
17577W        W33651  12.287  12.334   0.167  0.1708  0.1110  0.4823
17578W        W33652   8.978   2.848  11.979  0.0343 -0.0582  0.1856
17579W        W33653  12.422  10.871   2.149  0.2052  0.1115 -0.0092
17580W        W33654  14.179   4.719  13.862 -0.0459 -0.4453  0.0089
17581W        W33655  12.465   2.012   4.755 -0.0808 -0.1533 -0.1997
17582W        W33656  16.594   0.058  13.888  0.0626 -0.3566  0.0917
17583W        W33657  12.412   2.062  12.948  0.2202 -0.1675  0.0844
17584W        W33658   4.608   7.989  11.940 -0.0129 -0.3512  0.2273
17585W        W33659   1.260   5.868   1.173  0.0326  0.0652  0.0555
17586W        W33660   7.501  17.217   9.787 -0.0092 -0.1034 -0.1134
17587W        W33661  18.856  18.811  12.351  0.1654  0.0307 -0.0909
17588W        W33662   3.530   5.459  13.785 -0.0263 -0.0140 -0.0635
17589W        W33663  15.867   1.849   5.170  0.3508 -0.1191  0.1783
17590W        W33664  12.823   1.344  13.617  0.1322 -0.0143 -0.2691
17591W        W33665  11.238  12.854   1.978 -0.0350 -0.0780 -0.0765
17592W        W33666   1.804   3.205   3.418  0.1042 -0.3438  0.1299
17593W        W33667   8.770  16.710   2.119 -0.0884 -0.3687 -0.0026
17594W        W33668   0.585   5.827   2.931  0.4073 -0.0696  0.0838
17595W        W33669  17.135  14.842  11.940  0.0850 -0.0464 -0.0446
17596W        W33670  18.478  12.557   4.544  0.1615  0.3686  0.1755
17597W        W33671  11.358  19.174  10.468 -0.0811 -0.1146  0.0436
17598W        W33672  15.456   9.962   1.723  0.2996  0.1599 -0.1684
17599W        W33673  17.726   1.276   3.802  0.0325 -0.0115 -0.2384
17600W        W33674   7.169  17.574  10.009 -0.3793 -0.3561  0.3786
17601W        W33675  13.523  18.077  10.822 -0.3164  0.0084  0.1515
17602W        W33676  15.069  19.265   1.766  0.1488  0.1429 -0.3783
17603W        W33677   6.791  16.348   9.952  0.0864  0.1222  0.0594
17604W        W33678  14.919  12.789   3.072 -0.2519 -0.1457  0.2414
17605W        W33679  10.916  11.097   5.562 -0.3486 -0.0949 -0.1082
17606W        W33680  15.813   6.534   3.171 -0.3523  0.4566  0.0363
17607W        W33681  13.855   2.824  14.461  0.2774 -0.3404  0.3123
17608W        W33682   2.223  14.485   0.647 -0.2014 -0.0901  0.1723
17609W        W33683  15.849  10.160  12.894 -0.2085 -0.2279 -0.2043
17610W        W33684   4.219   9.792   1.104 -0.2225  0.1269  0.0323
17611W        W33685   8.054  11.507   0.719 -0.4301  0.0335  0.2692
17612W        W33686  18.900  16.135  13.487 -0.0115 -0.1897  0.3596
17613W        W33687  14.161  18.882  14.235 -0.1213 -0.1815 -0.3844
17614W        W33688   9.432  18.103   9.743  0.2623 -0.3569  0.3649
17615W        W33689  18.462  11.804   4.943  0.3055  0.0919  0.3121
17616W        W33690   9.205   3.456   3.196  0.0023  0.0156 -0.0819
17617W        W33691  15.034  17.123  12.008 -0.0060 -0.1274 -0.0335
17618W        W33692  18.295  15.348   1.687  0.0634 -0.1652 -0.0211
17619W        W33693   2.666  17.238  14.732 -0.1444  0.2770 -0.0769
17620W        W33694  13.052  18.475  13.591  0.0872 -0.1183  0.2707
17621W        W33695  12.174  10.018   4.449  0.1337 -0.1307 -0.1720
17622W        W33696   9.825   5.146   5.585  0.0145 -0.0863 -0.0665
17623W        W33697   7.898  11.485   4.657 -0.0252  0.0481  0.2738
17624W        W33698   1.367  17.399   1.592  0.1907  0.1631  0.0181
17625W        W33699   6.656  16.544   1.452 -0.3765 -0.0593 -0.2850
17626W        W33700   5.062   6.366  10.437  0.2463 -0.3348 -0.4412
17627W        W33701   1.519  12.919   5.850 -0.2295  0.1788  0.2895
17628W        W33702  16.559  18.176   3.154  0.1847  0.1846  0.0732
17629W        W33703  15.575   0.340   0.287  0.1791 -0.1214 -0.1655
17630W        W33704   8.150   6.787   2.228  0.3924 -0.2341  0.0461
17631W        W33705   1.698   1.401  10.797  0.1161  0.2986 -0.1811
17632W        W33706  14.451   8.377  14.912 -0.0198 -0.0208  0.0097
17633W        W33707   4.076  11.574   2.686  0.0447  0.1405  0.2036
17634W        W33708   9.181  13.996  11.662 -0.1207 -0.1822 -0.1465
17635W        W33709   1.515  16.694   1.442 -0.0197 -0.2021  0.1823
17636W        W33710  15.106   7.686   0.824 -0.0529 -0.0663  0.1014
17637W        W33711  17.533   6.754  12.025 -0.2718 -0.2565 -0.1200
17638W        W33712  10.290   5.974  12.852  0.1421  0.3353 -0.3193
17639W        W33713   5.693   0.948  12.509  0.0536 -0.2392  0.2358
17640W        W33714   0.756  12.910   1.680 -0.1722 -0.2952 -0.2260
17641W        W33715  10.455   6.542   1.750  0.2747 -0.0324 -0.0681
17642W        W33716   8.271   6.113   1.217  0.5350  0.0506 -0.1819
17643W        W33717   2.422   5.112  14.785 -0.0066  0.1047 -0.0188
17644W        W33718  18.730   5.136   1.229  0.0745 -0.0342  0.1033
17645W        W33719  14.924  18.657  12.204  0.0973  0.0545  0.2247
17646W        W33720  11.646  13.997   5.136 -0.0212 -0.1528  0.0264
17647W        W33721  15.826  14.629   3.078 -0.4326 -0.2713  0.0530
17648W        W33722   9.030   1.036   4.701 -0.2781  0.0673  0.0603
17649W        W33723  12.434   2.395  11.947  0.0382  0.0658  0.0718
17650W        W33724   6.847   4.343   0.630  0.0749  0.2448  0.2401
17651W        W33725  18.844  14.663   0.296  0.0781  0.0276 -0.0646
17652W        W33726  17.746  18.508   0.469  0.0707  0.0306 -0.1285
17653W        W33727   5.996   3.029   3.353 -0.1765 -0.1776 -0.1679
17654W        W33728  11.090   3.919   0.617  0.0169 -0.3457  0.0878
17655W        W33729  17.450   4.554  14.557  0.1709 -0.1654 -0.0796
17656W        W33730   0.792   5.569   1.827 -0.2310 -0.1965 -0.0084
17657W        W33731  16.459  12.275   9.798  0.2862 -0.2906  0.0652
17658W        W33732   1.841   4.121  12.065 -0.0666  0.2477  0.1320
17659W        W33733  18.114   2.339  12.493 -0.0532 -0.0610  0.0504
17660W        W33734   9.209   3.938  14.846  0.0454  0.1063 -0.1240
17661W        W33735  15.547  17.713   1.370 -0.1119  0.0598  0.2865
17662W        W33736   1.150  10.152  11.308 -0.0151  0.1157 -0.0959
17663W        W33737  19.151   3.043   2.670 -0.0856 -0.0319  0.4253
17664W        W33738   4.050  12.080  10.732  0.0869  0.1131  0.0850
17665W        W33739   5.232   4.061  10.583  0.0487 -0.0533  0.1693
17666W        W33740   2.632   2.020  11.435  0.2274 -0.0397  0.0899
17667W        W33741   0.956  14.536   1.481 -0.3690  0.3734  0.0226
17668W        W33742   4.175   4.236   2.453  0.0024  0.0476  0.2886
17669W        W33743  11.602   0.626  14.727  0.0240  0.2003  0.1819
17670W        W33744  19.157   0.599  13.539  0.0445  0.0607  0.1513
17671W        W33745   6.267  16.088  10.785  0.0178 -0.2460  0.1998
17672W        W33746  19.150  17.722  11.508  0.1435 -0.2343 -0.1183
17673W        W33747   1.188  10.912  11.179  0.0074 -0.1966  0.5303
17674W        W33748   6.124  11.565  13.443 -0.3733  0.0312 -0.0355
17675W        W33749   5.779   0.031   0.897 -0.2361  0.0212 -0.0747
17676W        W33750  16.748  10.444  14.549 -0.5951 -0.0801 -0.1979
17677W        W33751  11.492   6.144   5.122  0.3370 -0.1147  0.1393
17678W        W33752   1.957  19.103   0.319 -0.0606 -0.2985  0.0221
17679W        W33753   1.632   1.799  10.502 -0.2136 -0.0360 -0.4247
17680W        W33754  13.987  11.864  13.038 -0.0893 -0.2506 -0.0895
17681W        W33755   0.963  13.122   4.084 -0.0334 -0.2593 -0.1058
17682W        W33756   1.104  10.437   1.223 -0.1357 -0.0162  0.1272
17683W        W33757  10.425  10.009   2.389  0.0453  0.1059 -0.0677
17684W        W33758  15.396  12.725   0.008  0.1235 -0.0330 -0.1148
17685W        W33759  14.651  18.065   5.045  0.4377 -0.0474 -0.0608
17686W        W33760  11.336  15.611  13.988 -0.2114  0.1819  0.1158
17687W        W33761   3.119  12.160  11.870  0.0308 -0.0368 -0.0851
17688W        W33762  11.559   0.696   5.571  0.0554 -0.0988  0.2453
17689W        W33763   2.023   6.367  13.598  0.4411 -0.0700 -0.0171
17690W        W33764  10.863   6.068   5.140 -0.2768 -0.2240  0.0479
17691W        W33765  12.582   7.200  13.165  0.2323 -0.0202 -0.0078
17692W        W33766  11.195  13.791  11.931  0.0505  0.4116 -0.0351
17693W        W33767  13.821  12.328  14.334 -0.1753 -0.3355  0.3857
17694W        W33768   1.443  12.090   2.254 -0.3138  0.1818  0.7029
17695W        W33769  15.004  11.767   2.886 -0.1287  0.2158  0.0778
17696W        W33770   8.051   3.542  14.106  0.0300 -0.0759 -0.0279
17697W        W33771  11.687   9.119  13.434  0.4059 -0.3082 -0.0249
17698W        W33772   1.422   4.016   1.995 -0.3681 -0.1363  0.0346
17699W        W33773  17.415  17.477   9.075  0.1861  0.0474 -0.2164
17700W        W33774   9.032  11.937  13.999  0.0688  0.0704 -0.1237
17701W        W33775  18.272   9.713  11.659  0.0556  0.0784  0.3172
17702W        W33776   9.319  15.715   2.398 -0.0510  0.2362  0.1563
17703W        W33777   4.452  18.183  10.842  0.0014  0.3187 -0.0403
17704W        W33778   3.124  15.472  13.186 -0.0966  0.1067 -0.1248
17705W        W33779   6.252  11.223   1.220 -0.2094  0.2200 -0.1272
17706W        W33780  19.191   1.220   1.561  0.0049 -0.0048 -0.0433
17707W        W33781   8.003  11.175  11.991  0.0185  0.0201 -0.1608
17708W        W33782  14.220   1.592   1.304  0.2306 -0.0172  0.0002
17709W        W33783  10.376   5.533  13.220  0.2388 -0.0168  0.1559
17710W        W33784  11.215   8.227  13.297 -0.1726  0.0396 -0.1749
17711W        W33785   1.208   7.939   2.765  0.2200  0.1350  0.3435
17712W        W33786   4.337  17.126   4.290 -0.2339  0.0624  0.1115
17713W        W33787   8.553  14.944   2.329  0.1186  0.1162 -0.3730
17714W        W33788  18.068  17.533   5.162 -0.1291  0.0780  0.2451
17715W        W33789   1.111  18.410   4.371  0.0994  0.0531  0.2095
17716W        W33790  13.014   6.774  12.406 -0.2249 -0.2379 -0.0913
17717W        W33791  11.352   7.994   4.104  0.0969 -0.0150 -0.1614
17718W        W33792   0.310  15.804  14.207 -0.1209  0.0100 -0.0258
17719W        W33793  18.131  17.041   5.179 -0.0687  0.1303  0.0832
17720W        W33794   1.238  15.803   3.295  0.2109  0.4683 -0.0863
17721W        W33795  14.770  11.337   0.867  0.2254 -0.2182 -0.0049
17722W        W33796   8.827   4.078  11.447  0.1833 -0.1380 -0.0782
17723W        W33797  10.307  10.002   9.583  0.0991 -0.0680  0.0560
17724W        W33798  14.321  15.902  10.354  0.1692 -0.2312  0.1003
17725W        W33799  18.864   6.557   2.526 -0.4698  0.0904 -0.0653
17726W        W33800   0.037  18.699  12.823 -0.0034  0.0016 -0.2123
17727W        W33801   0.315   2.201   0.969 -0.1534  0.1029  0.1776
17728W        W33802   1.769   1.794  14.999  0.0426 -0.1902 -0.1191
17729W        W33803  15.868  11.338  12.043  0.0183 -0.0030 -0.1761
17730W        W33804   4.174  13.965   3.480 -0.1159  0.0809 -0.2540
17731W        W33805   8.891   8.274   2.206 -0.1724  0.3598  0.1500
17732W        W33806  11.070   0.683  10.827 -0.3621 -0.0667 -0.2007
17733W        W33807   8.047  11.920  14.117  0.4689  0.0335 -0.0620
17734W        W33808   4.044   8.425   2.958  0.1304 -0.1793  0.2524
17735W        W33809  15.757   1.669   3.821 -0.3621  0.1995 -0.2388
17736W        W33810  16.463  14.392  13.956 -0.0653 -0.1894 -0.3340
17737W        W33811  11.617   8.959  10.589 -0.0536  0.1032 -0.0226
17738W        W33812  13.235  11.927   2.581 -0.0485 -0.1448  0.1005
17739W        W33813  12.582  10.186  11.784 -0.1173 -0.0562  0.0981
17740W        W33814  10.208   7.513  13.569 -0.0225  0.1761 -0.1114
17741W        W33815  18.450   8.296  13.879 -0.1953 -0.2322  0.1656
17742W        W33816   4.411  11.902  11.091  0.0420  0.0350 -0.3043
17743W        W33817   0.496   9.199   3.090 -0.0757 -0.1080 -0.0736
17744W        W33818   7.000  10.684  13.098  0.6261 -0.1492  0.0719
17745W        W33819  18.486  12.318   5.010 -0.1587 -0.3276 -0.1528
17746W        W33820  13.011   8.938   0.928  0.0838 -0.2830 -0.2722
17747W        W33821   1.262  18.948   3.202 -0.0907  0.0459  0.4389
17748W        W33822  16.200   3.841   4.169 -0.0769 -0.3823 -0.0740
17749W        W33823   1.928   2.488  14.308  0.1594  0.1741  0.0671
17750W        W33824   8.028  12.135  11.119 -0.1521 -0.3109  0.3023
17751W        W33825   3.952  16.851   2.928  0.0209  0.3032  0.1358
17752W        W33826  12.802  14.760  10.986 -0.1627 -0.1061 -0.2369
17753W        W33827  14.763  10.809   2.751  0.0624  0.0396  0.0576
17754W        W33828  10.984  15.476  14.803 -0.1714  0.4204 -0.0955
17755W        W33829  10.362   2.648   2.621  0.0561  0.0182  0.1320
17756W        W33830   2.232   7.071  10.687 -0.3758  0.0350 -0.0670
17757W        W33831  15.456  10.564   4.883  0.1432 -0.2245 -0.0022
17758W        W33832   5.594   4.183  12.296 -0.1698 -0.1372 -0.0537
17759W        W33833  17.811  14.548   2.756  0.2222  0.0910  0.0278
17760W        W33834   7.445  11.234   1.387  0.0472 -0.1377  0.1115
17761W        W33835   9.600  15.350  11.093  0.0153  0.1027  0.1027
17762W        W33836   4.884   9.955  13.386 -0.3776 -0.0903 -0.2578
17763W        W33837  10.222   7.773  11.614  0.0871  0.0924 -0.0922
17764W        W33838  13.483   1.355  14.486  0.0029  0.1794 -0.0168
17765W        W33839  19.114   1.399   4.735  0.0311 -0.0807  0.0801
17766W        W33840  11.301  10.139   1.468  0.1876 -0.0743 -0.4649
17767W        W33841  10.811  10.707   4.022  0.0912  0.2356  0.0447
17768W        W33842  12.754  11.014  10.803  0.0297 -0.2346 -0.0266
17769W        W33843   5.490  18.080  13.739 -0.1830  0.1191  0.0407
17770W        W33844   3.183  13.888   1.187  0.3829 -0.1368 -0.0677
17771W        W33845   7.946   1.672  13.538  0.2130 -0.1890  0.2631
17772W        W33846  14.028   5.337   1.946  0.2975 -0.0898  0.1969
17773W        W33847  16.236  19.324  10.835  0.2175 -0.1032  0.0391
17774W        W33848  16.329   9.194  10.829 -0.2735  0.0103 -0.0865
17775W        W33849  17.627  16.707   0.301 -0.4911 -0.3319 -0.1623
17776W        W33850  14.810  15.084  13.376 -0.1585 -0.1318  0.0507
17777W        W33851  13.720   8.749  14.509 -0.1515 -0.0871  0.0618
17778W        W33852   4.563   1.902  10.443 -0.0167  0.0622  0.2046
17779W        W33853   9.525  11.383  11.808  0.1899 -0.0127  0.3231
17780W        W33854  12.599   6.721   4.770  0.1297  0.0535  0.1319
17781W        W33855   8.160   8.165  12.805  0.0303 -0.1604  0.1236
17782W        W33856  17.170   0.285   3.880 -0.1963 -0.1181 -0.4788
17783W        W33857   0.758  14.748  11.551 -0.0932  0.0855 -0.1019
17784W        W33858  15.547   9.613  11.515  0.0012  0.1093 -0.0938
17785W        W33859   7.651   9.240   1.065  0.0991  0.0296  0.3168
17786W        W33860   5.986  14.813  13.608  0.2471  0.1716 -0.0599
17787W        W33861  15.082   5.023   3.071 -0.0629  0.0720  0.2850
17788W        W33862   2.329  17.145   1.955  0.1988  0.3813 -0.2624
17789W        W33863   4.632   1.336   3.883  0.0397  0.1262 -0.0444
17790W        W33864  10.384   8.049   3.069  0.2889 -0.1181  0.0533
17791W        W33865  14.961   1.198   3.464 -0.1989 -0.1297  0.1636
17792W        W33866  12.253   3.209  10.479  0.0722 -0.1536  0.1537
17793W        W33867  12.273  10.150  10.954  0.0629 -0.0168  0.4012
17794W        W33868  16.906  11.291  14.220 -0.0700 -0.0538 -0.1253
17795W        W33869   7.522   1.024   3.102 -0.0732 -0.0474  0.1539
17796W        W33870   2.988  16.366  14.928  0.0542  0.1221  0.2947
17797W        W33871   9.164  13.894  13.554 -0.0430 -0.1057 -0.0014
17798W        W33872   0.620   8.567   1.896  0.1697 -0.3836 -0.2482
17799W        W33873  16.380  11.436   1.220  0.0074  0.1907 -0.1728
17800W        W33874  16.844  17.573   3.798  0.0374  0.3214  0.1561
17801W        W33875   1.352  16.617  14.173  0.0115 -0.2103 -0.0127
17802W        W33876   5.315  13.741   1.965 -0.2347 -0.3356  0.2854
17803W        W33877  18.451   4.121   4.189 -0.0942 -0.0726 -0.0254
17804W        W33878   9.155   0.929  10.392 -0.0403 -0.0515 -0.3844
17805W        W33879   9.239   0.418   4.999  0.1567 -0.1167 -0.5203
17806W        W33880   8.616  18.542   4.886 -0.0844 -0.3687 -0.0062
17807W        W33881  16.512   1.652   0.561  0.2980  0.1395  0.0182
17808W        W33882  18.486  18.965  12.734 -0.1455 -0.0496 -0.1600
17809W        W33883  19.252   7.523   1.518  0.1385 -0.3947  0.0369
17810W        W33884  15.293   2.677   1.520  0.0720  0.2200 -0.1045
17811W        W33885   1.350   6.444   0.446  0.0956 -0.0564 -0.0968
17812W        W33886   2.135  17.381  14.821 -0.3126 -0.2844 -0.0768
17813W        W33887   1.505   4.915   1.898  0.0570 -0.0554  0.0324
17814W        W33888  15.638  10.959  12.268 -0.0574 -0.2231 -0.3782
17815W        W33889   2.598  13.455  12.185 -0.3932  0.0684 -0.1308
17816W        W33890   2.936  17.906   2.017  0.1283  0.1470 -0.2764
17817W        W33891  11.568  11.843   9.888 -0.1313  0.0597 -0.1358
17818W        W33892  16.588   7.699   0.082 -0.0597 -0.1273 -0.1459
17819W        W33893   2.015  15.378   2.223  0.0405 -0.0333  0.1263
17820W        W33894   3.385   7.651   0.010  0.0960  0.3605 -0.2624
17821W        W33895   2.676   0.380   2.276  0.1076 -0.0054 -0.1661
17822W        W33896   6.254  18.866  11.673 -0.0541  0.1081 -0.1120
17823W        W33897   1.834  16.462  11.470 -0.1949 -0.1912  0.0616
17824W        W33898  16.438  17.405   5.186  0.0900 -0.0433  0.0145
17825W        W33899   5.474  12.579  11.074  0.0919 -0.1007 -0.0842
17826W        W33900  18.642   9.391   0.169 -0.1238  0.1222 -0.1187
17827W        W33901   3.882   6.025   4.761 -0.1413 -0.2777 -0.2179
17828W        W33902   9.397  18.005   0.625  0.2275 -0.5025  0.0707
17829W        W33903  17.292  10.597   2.668 -0.4700 -0.1552 -0.4871
17830W        W33904   3.846   9.848   0.231  0.0007  0.2190 -0.0847
17831W        W33905   0.451  16.758  13.291 -0.5655  0.0919  0.3656
17832W        W33906   0.113  13.550   0.030  0.3629  0.3574 -0.1652
17833W        W33907   8.472   0.258  13.171  0.1896  0.1246  0.0669
17834W        W33908  18.482  17.240   5.458 -0.1640 -0.2373 -0.3729
17835W        W33909   1.546  15.750  11.026 -0.1020 -0.0091 -0.1474
17836W        W33910  13.601   8.873   3.983 -0.3306  0.1683  0.0989
17837W        W33911  10.906   3.505  10.077 -0.2713  0.1292  0.0379
17838W        W33912   4.601  16.292   2.913 -0.5022 -0.0558  0.0567
17839W        W33913   2.357   8.173  11.738  0.2832 -0.0539 -0.0365
17840W        W33914   3.977  12.066   2.917 -0.0907 -0.0180 -0.0876
17841W        W33915   8.809   2.995   4.693  0.2815 -0.2136 -0.1563
17842W        W33916   3.275  13.833   5.534 -0.1377  0.1467 -0.2944
17843W        W33917   7.979   7.047   5.444  0.0827  0.0295  0.0551
17844W        W33918  16.879   7.657   3.872 -0.2116 -0.1074  0.1207
17845W        W33919   9.632   2.619   1.430  0.0415 -0.1207 -0.0239
17846W        W33920   1.103   2.911  14.617  0.0117  0.0479 -0.4483
17847W        W33921  15.474   6.605   5.133 -0.1474  0.1202  0.0889
17848W        W33922   7.721  10.029   4.185  0.1469 -0.1728 -0.1120
17849W        W33923   7.914   4.707  10.856 -0.1317  0.2182  0.1642
17850W        W33924   8.554  14.505   0.235 -0.0550  0.0662 -0.0651
17851W        W33925   2.556  18.830  11.175 -0.0434 -0.3306 -0.3486
17852W        W33926   2.017   3.485   2.921 -0.1670 -0.0786  0.2091
17853W        W33927   5.555   4.161   1.015 -0.0942 -0.0197  0.3179
17854W        W33928  14.744  10.205   5.471  0.2891  0.1286 -0.0912
17855W        W33929   5.720  13.988  11.193 -0.4427  0.1771  0.2551
17856W        W33930  14.802  15.579   4.524  0.0145 -0.0872  0.0560
17857W        W33931  16.565  17.080  12.548  0.1213  0.0025 -0.2949
17858W        W33932   3.489  10.815  13.451  0.1880  0.0854 -0.0256
17859W        W33933   4.008  14.326  10.470  0.4509  0.2409  0.0823
17860W        W33934  15.615  10.916   1.409 -0.2419 -0.0209  0.1008
17861W        W33935  13.025   9.695  10.885 -0.2879  0.2091  0.1133
17862W        W33936   7.225   4.406  14.518 -0.0990  0.2687 -0.1681
17863W        W33937   0.194  10.927  13.490 -0.0978  0.1968 -0.0123
17864W        W33938  18.528   8.045   5.030  0.1159 -0.0477  0.0184
17865W        W33939  17.339  10.027  11.563  0.1130 -0.4002  0.1934
17866W        W33940  11.874  18.985  10.325 -0.0187  0.0409  0.0235
17867W        W33941  16.062  10.971   1.035  0.1305  0.1091  0.0949
17868W        W33942   0.538   2.397  14.669 -0.0406  0.3047  0.0560
17869W        W33943   5.546  11.316   2.709 -0.0268 -0.0416 -0.0632
17870W        W33944   7.298  19.330   9.976 -0.0733 -0.3016  0.2174
17871W        W33945  17.837   2.742   4.687 -0.0471  0.0580  0.0239
17872W        W33946   0.968  10.600   3.573 -0.1430  0.1132 -0.0961
17873W        W33947   8.464   6.544  14.556  0.3170  0.0952 -0.0435
17874W        W33948   6.601  17.596  12.767  0.1144 -0.2660 -0.1998
17875W        W33949  15.857  15.521  14.938  0.4743 -0.3066 -0.0525
17876W        W33950   3.879   8.472   1.695 -0.1940 -0.0986  0.2918
17877W        W33951  11.792  14.222  13.157 -0.0265  0.3960 -0.0605
17878W        W33952   4.787  17.254  12.328 -0.1930  0.0118 -0.0273
17879W        W33953   7.690  11.832  11.661 -0.2177  0.0556  0.3165
17880W        W33954   3.650   7.614   2.647  0.0704 -0.1880  0.0691
17881W        W33955  17.489  14.839   1.519 -0.2604  0.2406 -0.2620
17882W        W33956  13.498   5.947  13.071 -0.1445  0.0793 -0.0147
17883W        W33957   7.943   8.611   3.656 -0.0877  0.2388  0.0403
17884W        W33958  13.171  15.896   4.995  0.1783  0.1000 -0.1876
17885W        W33959  16.023  14.595   3.613  0.3289 -0.3322 -0.1676
17886W        W33960   6.772  10.469   4.119 -0.1557  0.1893 -0.0038
17887W        W33961  15.436   8.867  14.162 -0.0569 -0.1184  0.1624
17888W        W33962   9.930  15.054   0.770  0.0422  0.1822  0.0385
17889W        W33963   5.712   8.810  14.207  0.0754 -0.3898  0.0629
17890W        W33964   4.561  11.335  10.538  0.0247 -0.0580 -0.2082
17891W        W33965   3.150  11.012  12.901 -0.0480 -0.0520 -0.2786
17892W        W33966   9.765   1.258  11.731 -0.1316 -0.1555  0.1633
17893W        W33967  12.745  19.253   5.093  0.3048  0.2571  0.2349
17894W        W33968  18.094   4.451   0.234 -0.0610 -0.0345  0.1560
17895W        W33969  13.793   4.226   0.609  0.3152 -0.1691  0.3157
17896W        W33970   5.240  14.185  13.920 -0.0995 -0.2852 -0.1006
17897W        W33971   0.525   0.879  13.029  0.1718  0.0458  0.0958
17898W        W33972  17.692   2.199   5.003  0.0787  0.0304 -0.2294
17899W        W33973  18.914   9.370  12.532  0.0431  0.0296  0.0439
17900W        W33974  15.176   1.335   1.871 -0.0374  0.4294 -0.1791
17901W        W33975  16.225  19.240  12.526  0.0212  0.1369  0.0538
17902W        W33976  16.433   7.227   0.188  0.0088 -0.0098  0.3341
17903W        W33977  10.392  19.173   1.506 -0.2071  0.0396  0.2565
17904W        W33978  18.755  12.546   0.961  0.4096  0.1130  0.1942
17905W        W33979   7.163   4.230  10.815  0.0942 -0.2406  0.0441
17906W        W33980   8.646   9.105   2.565  0.3498  0.1662 -0.3016
17907W        W33981   1.436   1.868   2.985 -0.2618 -0.0288  0.2187
17908W        W33982  13.640  15.124  12.909  0.1812 -0.1865  0.4161
17909W        W33983  10.398  17.475  13.567 -0.3903 -0.2433  0.1074
17910W        W33984  15.901   5.716  10.410  0.0077 -0.2153  0.1084
17911W        W33985   5.267  15.315  14.314 -0.3632  0.5173  0.0464
17912W        W33986  17.646   0.028   4.593 -0.1565 -0.0134  0.0708
17913W        W33987  16.990  17.888  12.682  0.0641  0.1440  0.1298
17914W        W33988  10.361  11.906   8.969  0.2291  0.3246  0.0207
17915W        W33989  13.206   7.212   4.163 -0.0850 -0.0192 -0.2382
17916W        W33990  17.595   7.360  12.988 -0.2653 -0.5219  0.0976
17917W        W33991   6.325   8.947  10.626  0.0013 -0.0120 -0.0394
17918W        W33992  13.060  13.169  11.721 -0.1285 -0.1664  0.3609
17919W        W33993   1.882   3.857   2.035 -0.0508 -0.3557  0.2425
17920W        W33994  16.218  10.688  11.638  0.1730 -0.2072  0.0544
17921W        W33995   6.988   1.789   1.972  0.4307 -0.0321 -0.1056
17922W        W33996  12.230  18.054  13.506 -0.0087  0.0408  0.0908
17923W        W33997   7.221   7.501  11.448 -0.0861  0.1241  0.1586
17924W        W33998   7.093   0.088  10.544  0.0645  0.1941 -0.0006
17925W        W33999   4.185   8.029   3.822  0.0056 -0.1983  0.0133
17926W        W34000  11.921   7.241  11.328  0.0686  0.1132 -0.0444
17927W        W34001   1.563   8.296   4.896 -0.0439  0.0963  0.0142
17928W        W34002   5.559   7.350  13.672  0.2250  0.0294  0.0871
17929W        W34003   0.567   6.179  13.869  0.1885  0.1060  0.1384
17930W        W34004  15.522  17.265  13.509  0.0520  0.3252 -0.1476
17931W        W34005   8.052  14.745  14.584  0.3228  0.0651 -0.0201
17932W        W34006   9.804   6.430  11.883  0.1110 -0.0804  0.0812
17933W        W34007  11.270  16.649   0.548  0.1437  0.2587  0.5156
17934W        W34008  11.547   7.608  10.065 -0.2303  0.1374  0.2141
17935W        W34009   2.925  14.184  11.931  0.1488 -0.0191  0.1707
17936W        W34010  11.818  18.369  10.132  0.0398 -0.0699 -0.1987
17937W        W34011  10.304   1.276  11.052  0.1717  0.0991  0.0645
17938W        W34012   0.638   2.745  11.156 -0.0953  0.1405  0.0546
17939W        W34013  13.230   3.384   0.287  0.2816 -0.1892 -0.2070
17940W        W34014   3.211   9.575   3.134 -0.1679 -0.0208  0.1019
17941W        W34015   3.110   4.551  12.823 -0.4370  0.0720  0.1572
17942W        W34016  16.467  11.360   1.815  0.1667 -0.0019 -0.0401
17943W        W34017  12.259   9.098   3.782 -0.2822  0.3657  0.2174
17944W        W34018   2.889   1.663   4.305 -0.2006  0.4284 -0.0312
17945W        W34019  12.448  14.365  11.161  0.1746 -0.0410  0.1025
17946W        W34020  17.052   4.786  11.999 -0.1265  0.1138  0.4287
17947W        W34021   0.726   9.681   3.778 -0.0604 -0.1329 -0.1505
17948W        W34022   3.255   8.213   3.390  0.1739  0.0158 -0.2140
17949W        W34023   4.181   9.246   0.442 -0.2338 -0.1880 -0.1941
17950W        W34024   7.584   3.333   3.937  0.1673  0.2128  0.0788
17951W        W34025   4.862  16.717   5.338  0.0791 -0.2761 -0.0869
17952W        W34026  16.727   6.912   5.849  0.4303  0.1618 -0.1864
17953W        W34027   3.780  10.285  11.617  0.2463 -0.0161 -0.0204
17954W        W34028  16.916   3.669  14.093 -0.3990 -0.1694  0.0003
17955W        W34029   3.498   3.994   2.370  0.0877  0.2424 -0.1057
17956W        W34030   9.562  12.031  14.098 -0.2882  0.0606 -0.0097
17957W        W34031  19.055   2.301   2.925 -0.0291 -0.0445  0.0663
17958W        W34032  10.249  18.972  12.454  0.2088 -0.2334 -0.2743
17959W        W34033   2.556  10.343   0.359 -0.0017  0.0925 -0.3025
17960W        W34034   5.347   9.212   5.333 -0.4130 -0.0072 -0.0067
17961W        W34035  13.028   4.031  10.636 -0.1731  0.1619  0.1706
17962W        W34036   8.881   8.912   1.024 -0.1200  0.0101 -0.2073
17963W        W34037   5.585   4.928   2.042 -0.2166  0.3643  0.2802
17964W        W34038   3.829   6.156   5.636 -0.3094  0.1544 -0.1848
17965W        W34039  14.799   7.250   0.892  0.0875  0.2375  0.1475
17966W        W34040   5.686   6.302   0.825 -0.0446  0.2982 -0.1552
17967W        W34041   8.697  12.015   2.950 -0.1641  0.1017 -0.0377
17968W        W34042  17.409   2.643   4.993 -0.0226  0.0660 -0.1477
17969W        W34043   1.557  12.816  11.172  0.0449  0.0233 -0.1782
17970W        W34044  16.665   4.402  12.086 -0.0062  0.0814 -0.1654
17971W        W34045   1.103  17.492  11.746 -0.0934 -0.2983 -0.1297
17972W        W34046  13.799   2.489  14.789  0.2402  0.0691  0.1931
17973W        W34047  11.779   7.843  10.408 -0.2577  0.0265 -0.1002
17974W        W34048   5.203   8.308  13.284  0.2242 -0.2581 -0.3899
17975W        W34049   8.227   4.759  14.666 -0.0713 -0.1581 -0.2381
17976W        W34050   4.848   9.246   4.397  0.3371  0.0841  0.1994
17977W        W34051  14.515   5.930   3.488  0.1630 -0.2682 -0.4306
17978W        W34052   9.415   0.761   0.909 -0.1530  0.0543  0.0487
17979W        W34053   5.852  12.992  11.039 -0.0600 -0.1861 -0.1523
17980W        W34054   3.159   3.613  10.170  0.0668 -0.0150  0.1659
17981W        W34055   8.348  11.009  11.204 -0.3741 -0.1881  0.0610
17982W        W34056  11.576  11.425  12.277 -0.0315  0.2380  0.0989
17983W        W34057   4.238   8.181   3.395 -0.2269  0.0245  0.2030
17984W        W34058  13.965  15.698   2.351 -0.0356 -0.1240  0.1256
17985W        W34059   9.939  18.156   2.279  0.2756  0.2430  0.0108
17986W        W34060  10.749  13.073   2.672  0.2973  0.0209 -0.0445
17987W        W34061   9.405   6.445   0.662  0.1418  0.0446  0.0582
17988W        W34062  12.516  16.217   2.661 -0.1409 -0.2051 -0.0898
17989W        W34063   6.327   1.236   0.828 -0.2743  0.0594  0.1977
17990W        W34064  18.873   3.929   4.386 -0.3106 -0.1551 -0.5260
17991W        W34065  16.951   3.762  14.804  0.1245 -0.0636  0.0414
17992W        W34066   8.125   6.845   1.391  0.3416  0.3965  0.1070
17993W        W34067   6.586   3.011  11.154  0.1493  0.2760  0.1662
17994W        W34068   4.612  13.612  12.055 -0.4246  0.0241  0.2765
17995W        W34069  12.083  15.651   1.573 -0.0430  0.2963 -0.1547
17996W        W34070   8.653   7.396   4.367 -0.0349  0.0342  0.2133
17997W        W34071  17.851   4.707  12.920 -0.0639 -0.0112 -0.2530
17998W        W34072  14.595   8.012  13.992 -0.0113  0.2397  0.1085
17999W        W34073  17.695   0.647   3.040 -0.0979 -0.0322  0.3584
18000W        W34074  16.260   0.807   2.795 -0.1357 -0.0289  0.1208
18001W        W34075   6.665   6.648  12.512 -0.0135  0.0949  0.1114
18002W        W34076   2.605   4.439   5.548  0.1047  0.2804  0.3671
18003W        W34077  13.487   0.565   0.485 -0.0233  0.2805 -0.0694
18004W        W34078   6.061   8.289   4.156 -0.1838  0.3388  0.4339
18005W        W34079  18.436  17.745   5.297  0.3377 -0.1005 -0.0915
18006W        W34080  12.918  10.217   4.071 -0.4778  0.0978 -0.3558
18007W        W34081  13.364   3.122  12.812  0.1418 -0.0415  0.4523
18008W        W34082  14.356  10.475   2.681  0.0817  0.1725 -0.0027
18009W        W34083   7.064  11.294  12.861  0.1133 -0.2179 -0.0035
18010W        W34084  18.614   5.651   1.009  0.2905 -0.1767  0.0915
18011W        W34085   4.726  14.939   1.752 -0.0501 -0.2557  0.1424
18012W        W34086   5.373   2.413   1.471  0.0197  0.2683 -0.1434
18013W        W34087  17.332   7.372   1.974 -0.4284 -0.0357 -0.2202
18014W        W34088  15.377  13.751   0.181 -0.0995  0.0735 -0.0591
18015W        W34089  16.210   4.169  13.018  0.0577 -0.0528 -0.0135
18016W        W34090  16.518  18.742   3.205  0.0805 -0.1843 -0.3451
18017W        W34091   2.355   7.074  12.369  0.0443  0.3219 -0.3239
18018W        W34092   9.720  12.075   3.634  0.2449 -0.7503 -0.1665
18019W        W34093   8.176  16.917   2.984  0.0358 -0.2968 -0.4801
18020W        W34094  15.593   1.266  14.334  0.0563  0.1609 -0.1324
18021W        W34095   3.997   0.893  11.342  0.4413  0.0413 -0.0278
18022W        W34096  14.711   6.365   2.202  0.1699 -0.0990 -0.3367
18023W        W34097   3.999   5.269  12.009  0.3426  0.2584  0.1915
18024W        W34098  15.565  16.578  14.484  0.2996  0.1269 -0.0300
18025W        W34099  10.430  12.981   1.504 -0.1511 -0.0305 -0.1425
18026W        W34100   8.996   2.625  13.892  0.0445 -0.0665 -0.2595
18027W        W34101  16.714   6.558   3.883 -0.1131  0.1847 -0.4306
18028W        W34102  11.980   7.676  11.691 -0.0700 -0.0057 -0.0175
18029W        W34103   6.308  16.567   1.831 -0.0406  0.3788 -0.0711
18030W        W34104   9.677  16.551  12.180 -0.1000  0.1686  0.1227
18031W        W34105   6.154   6.296  12.559  0.0120 -0.2003  0.2040
18032W        W34106  15.307   8.295   1.899 -0.0523  0.1559  0.1620
18033W        W34107   8.525   8.152   4.842  0.0697 -0.2570 -0.2311
18034W        W34108  12.921   7.084   2.203 -0.2479  0.2891  0.0757
18035W        W34109  15.995  15.109  12.689 -0.1508  0.3168 -0.2404
18036W        W34110   3.860  18.926  12.555 -0.4080  0.1664  0.1292
18037W        W34111  10.509   6.397   2.721  0.2975 -0.2923 -0.1235
18038W        W34112  16.953  11.709  14.642  0.1493  0.3207  0.1618
18039W        W34113  16.229  17.826   6.126  0.1347 -0.2629 -0.0729
18040W        W34114  17.850   1.779  13.282 -0.1340 -0.2484  0.0832
18041W        W34115   3.367  17.237  11.724  0.1800  0.0955 -0.1325
18042W        W34116  14.748  11.375  12.921  0.1308  0.4058  0.0728
18043W        W34117  16.719   7.108  13.217 -0.1342 -0.0283 -0.0693
18044W        W34118  10.970   9.618   1.233  0.3053 -0.0660 -0.1150
18045W        W34119   4.179   0.604  12.514  0.0489  0.2419  0.0043
18046W        W34120   5.100  14.477   0.737 -0.0974  0.3072  0.0898
18047W        W34121   5.503  18.189  13.218 -0.4773  0.2549 -0.0608
18048W        W34122  14.104  14.550  14.091 -0.0552  0.3178  0.2428
18049W        W34123   0.851  14.688   3.316 -0.0947 -0.0226  0.2102
18050W        W34124  11.701   9.876   4.672  0.1423 -0.0220  0.2763
18051W        W34125  16.006  13.574   3.526  0.0956  0.1782  0.0317
18052W        W34126   0.839  15.896   1.615 -0.3732  0.0459  0.3357
18053W        W34127  14.210   3.127   1.217  0.1310 -0.1827 -0.1106
18054W        W34128   0.851   3.668  10.271  0.1212  0.2557  0.0879
18055W        W34129  16.527  10.549   5.747  0.3637  0.1282 -0.1403
18056W        W34130  14.128   2.276  13.385  0.0439 -0.1273  0.0056
18057W        W34131   9.021  13.195   4.381  0.2922  0.1581  0.0601
18058W        W34132  16.705   9.021  11.093  0.2307 -0.1210 -0.0073
18059W        W34133  11.253  17.939  13.179 -0.1796  0.2748 -0.1703
18060W        W34134  16.926  10.864   0.325  0.2054  0.0490 -0.2144
18061W        W34135   9.460  16.153   3.326 -0.1446 -0.0095  0.0298
18062W        W34136  10.424  15.731  12.179 -0.0126  0.2660 -0.1235
18063W        W34137   5.046  13.754   0.619 -0.1211 -0.0964 -0.2543
18064W        W34138  11.933   8.456   2.025 -0.0385  0.1231  0.1724
18065W        W34139   3.642   3.677  10.012 -0.0637 -0.0779 -0.0150
18066W        W34140   0.713  12.165  11.708 -0.1567 -0.0274  0.0117
18067W        W34141   0.448   4.734   3.793 -0.1878  0.3299  0.0177
18068W        W34142  18.777   4.031   3.110  0.0014 -0.0792  0.2991
18069W        W34143  17.283   3.042  13.345 -0.2081 -0.2637  0.0154
18070W        W34144   7.562  10.763  12.400  0.1626 -0.1587 -0.0862
18071W        W34145  11.178   4.278  11.807  0.0912 -0.1917  0.0849
18072W        W34146  17.682  16.013   0.784 -0.1843 -0.0014 -0.0068
18073W        W34147  15.695  10.599   4.025  0.0576 -0.2137 -0.0842
18074W        W34148  17.608  14.790   2.268 -0.2692 -0.0088  0.1953
18075W        W34149   5.849   0.594   1.073  0.2388 -0.1876  0.2560
18076W        W34150   2.627  15.827  13.116 -0.2126  0.0867  0.2199
18077W        W34151   1.434   5.945  12.358 -0.1169 -0.0173  0.1582
18078W        W34152  11.364   4.662  12.785  0.0315  0.5076 -0.0176
18079W        W34153  15.124   2.057  13.669  0.1066 -0.1009  0.0243
18080W        W34154   2.656  12.846   1.694 -0.3671 -0.1088  0.2950
18081W        W34155  11.650   9.637  11.290 -0.0164 -0.2761 -0.0221
18082W        W34156   4.857  14.669  14.862  0.1607 -0.0623 -0.2181
18083W        W34157  10.394  12.420   1.683  0.1375  0.0980 -0.0260
18084W        W34158  14.367   5.980   0.538 -0.3098  0.5757  0.0508
18085W        W34159  11.047  10.075   0.966  0.1382 -0.1166  0.2500
18086W        W34160  17.246   6.920   3.077 -0.1686  0.1032  0.1517
18087W        W34161  15.539   2.742  11.613 -0.0366 -0.2114  0.2985
18088W        W34162  16.431  12.187   4.256 -0.0528 -0.1047 -0.0161
18089W        W34163  18.757   0.415   1.431  0.0385 -0.0909  0.2589
18090W        W34164   0.528  10.830  12.586 -0.2664  0.0753  0.2115
18091W        W34165   2.392  14.022   0.069 -0.2076  0.1280 -0.0599
18092W        W34166   8.440  13.805  11.532  0.2323  0.0699  0.3159
18093W        W34167   5.609   5.814   4.235  0.0099  0.2847 -0.1267
18094W        W34168  12.467   3.457  14.651  0.2122  0.2502  0.0142
18095W        W34169  13.863  11.969  14.017 -0.0515 -0.1506 -0.0409
18096W        W34170  18.183   3.520  13.704 -0.1746 -0.6210  0.0456
18097W        W34171   0.838  18.407   5.671 -0.1519 -0.1828 -0.1700
18098W        W34172  16.746  10.546  13.624 -0.3703  0.1149 -0.2196
18099W        W34173  11.320  16.001  11.334 -0.1895 -0.0975  0.3057
18100W        W34174   2.953  17.669  14.968  0.1433  0.0471 -0.1939
18101W        W34175   4.215   5.068   2.653 -0.2081 -0.0805 -0.1714
18102W        W34176  18.704  10.051  12.077  0.3106 -0.1294 -0.0447
18103W        W34177   4.859  13.987   1.951  0.4370  0.0431  0.1754
18104W        W34178   5.285   1.173  12.204 -0.1237  0.0951 -0.2389
18105W        W34179  13.420   0.237  14.138 -0.1180 -0.1057 -0.1849
18106W        W34180  11.937  15.446   5.219 -0.0356 -0.1134 -0.2183
18107W        W34181  13.506  11.504   0.421 -0.2138  0.1425  0.1181
18108W        W34182   4.058  14.601   5.665 -0.1737 -0.1605 -0.1095
18109W        W34183   4.541   3.552   2.898  0.1211  0.2093  0.0664
18110W        W34184  16.010  12.795   2.877  0.1056  0.1083  0.2896
18111W        W34185  15.929   1.319   1.542  0.2346 -0.0047 -0.0633
18112W        W34186   2.217  12.876  13.738  0.0220 -0.2014 -0.2481
18113W        W34187  18.494  11.805   2.279 -0.0256 -0.1865  0.1027
18114W        W34188  11.715   4.106   3.955  0.3703  0.5279  0.1735
18115W        W34189   0.890  13.107   0.253  0.0122 -0.1718 -0.0204
18116W        W34190   8.983   1.432   4.055 -0.1257 -0.1790 -0.1316
18117W        W34191   9.139   8.083   2.579 -0.1203  0.1264  0.0652
18118W        W34192  13.183  14.452  10.906  0.0608 -0.0606  0.1288
18119W        W34193  18.374   2.186   0.910  0.0833 -0.1068 -0.3941
18120W        W34194   3.959  18.041  12.934 -0.1993  0.1212 -0.0637
18121W        W34195  13.395  18.050  14.285  0.2230 -0.1672 -0.4856
18122W        W34196  11.031  17.115   0.698 -0.1421  0.2596  0.3174
18123W        W34197   4.790  10.376  14.096 -0.6027  0.2675  0.0874
18124W        W34198   8.146  12.241   4.270 -0.0295 -0.0417 -0.0648
18125W        W34199   2.865   2.084   2.525 -0.1810 -0.1149  0.1153
18126W        W34200  15.051   9.955  10.382  0.0599  0.1608 -0.3325
18127W        W34201   1.607   3.472   1.225  0.2814 -0.1425 -0.0180
18128W        W34202   7.251   3.871   4.077 -0.0364  0.2584 -0.0427
18129W        W34203   9.240   6.647  11.199 -0.1857  0.0200 -0.1407
18130W        W34204   6.579  15.285  13.001  0.0678 -0.1348  0.0225
18131W        W34205   7.491  13.001  14.959 -0.1137  0.3077  0.3106
18132W        W34206  14.585   4.922  11.098  0.0424  0.3080  0.0821
18133W        W34207   9.718  18.469  11.304  0.1089 -0.1792  0.1633
18134W        W34208  12.834  16.144  11.580 -0.0110  0.2389 -0.1163
18135W        W34209  13.212   3.483   3.357  0.1087 -0.0409  0.1152
18136W        W34210   1.925  12.099   2.148  0.2034 -0.0566 -0.2018
18137W        W34211  15.528   3.711   5.655 -0.0937  0.0020 -0.0410
18138W        W34212   5.937   3.652  13.055 -0.1791 -0.0936  0.1239
18139W        W34213  15.052  18.363   3.194 -0.2064  0.3011 -0.2325
18140W        W34214   6.473  14.230   3.247  0.0155  0.0671 -0.2942
18141W        W34215  13.708  17.326  12.139  0.3040  0.1378  0.2172
18142W        W34216   6.635   5.340  12.284 -0.1618 -0.0779 -0.5529
18143W        W34217   1.740  18.501  13.804  0.0880 -0.1255  0.2876
18144W        W34218  12.353   1.204  13.546  0.0873 -0.0837  0.0487
18145W        W34219   1.489   7.503   2.477 -0.0261  0.1631 -0.1997
18146W        W34220   0.924  11.457   4.484  0.2053  0.1198 -0.2939
18147W        W34221   5.481   8.193   4.789  0.1773  0.0185  0.2250
18148W        W34222  12.820  15.267  13.064  0.1161 -0.3685  0.1994
18149W        W34223   6.860   3.937   0.982 -0.0619 -0.0374 -0.4121
18150W        W34224  10.868   2.516   1.509 -0.1069  0.1241  0.1462
18151W        W34225  12.276   0.216   3.152  0.2483 -0.1942  0.0275
18152W        W34226   7.895   5.187   1.580 -0.4836 -0.0837 -0.3645
18153W        W34227  14.244   6.843   1.585  0.0747 -0.2684 -0.0112
18154W        W34228  10.512   9.179  13.733 -0.1480  0.2607  0.0878
18155W        W34229   7.113   1.709  14.849  0.1105 -0.0813  0.5036
18156W        W34230   7.594  13.871   2.308 -0.0829 -0.0813  0.2884
18157W        W34231   6.356  13.902  11.881 -0.1663 -0.1749  0.0357
18158W        W34232  16.035  17.586  12.860 -0.4235 -0.0200 -0.1810
18159W        W34233   2.634  13.146  13.627  0.0807 -0.1702 -0.3071
18160W        W34234   3.948   6.408   0.526 -0.2166  0.1670 -0.0097
18161W        W34235   3.604  14.445   3.400 -0.1818 -0.1231 -0.1746
18162W        W34236   7.787   8.759  10.167 -0.0480 -0.1402 -0.0557
18163W        W34237  11.132   7.352   1.593  0.0566 -0.1996 -0.0176
18164W        W34238  10.389   4.634   4.696 -0.0390 -0.4449 -0.2516
18165W        W34239   6.120  17.845  14.340  0.0787 -0.3268  0.1669
18166W        W34240  16.014   5.650   1.539  0.1118 -0.3074 -0.2480
18167W        W34241   8.828  11.339   4.198 -0.0341  0.2037  0.0856
18168W        W34242  15.444   1.953   1.590 -0.0835 -0.1416  0.0563
18169W        W34243  16.567   4.934   0.645  0.0706  0.0486 -0.0663
18170W        W34244   7.391  18.251   1.367 -0.3310 -0.3512 -0.0339
18171W        W34245   0.614   0.829   2.945  0.1228 -0.2604  0.2382
18172W        W34246   9.917   4.350  11.603  0.3002 -0.2097 -0.0537
18173W        W34247   8.830   2.030  10.312 -0.1160 -0.0776 -0.1347
18174W        W34248  11.529   9.923   3.731  0.0917  0.1542  0.0877
18175W        W34249  13.817  11.624   0.740 -0.0457  0.3856  0.4376
18176W        W34250   7.955   8.466   2.342 -0.0876  0.3178  0.0804
18177W        W34251   2.311   8.903  12.183  0.1723  0.0852  0.1697
18178W        W34252  13.534   9.504   1.307  0.0454  0.1309  0.2478
18179W        W34253  14.753  10.018  13.165  0.0190  0.1420 -0.1361
18180W        W34254   8.002  17.379  14.032  0.1147 -0.2521  0.0257
18181W        W34255  17.657  12.862  12.224  0.1796  0.0224  0.1151
18182W        W34256   1.951   5.792   3.719 -0.0863 -0.0484 -0.1913
18183W        W34257   9.710  11.605  10.869  0.3439 -0.0696 -0.1277
18184W        W34258  11.014   4.414  14.191 -0.5315 -0.1319 -0.0622
18185W        W34259   0.631   7.523   4.437 -0.3773 -0.2638  0.0462
18186W        W34260   8.412  18.424   0.136  0.0592  0.2135  0.0117
18187W        W34261  11.306   2.968   0.370  0.1322  0.1229 -0.0938
18188W        W34262   4.833   8.863   4.728  0.1410  0.0780  0.4005
18189W        W34263   8.800   0.615   4.063 -0.0906  0.0605 -0.0479
18190W        W34264   8.195   7.141   0.143 -0.0358  0.0062 -0.0105
18191W        W34265  11.964  14.073   5.499  0.0908  0.1078 -0.3443
18192W        W34266   6.164  11.395   2.575 -0.6233  0.0658 -0.2006
18193W        W34267  14.174   2.760   4.333  0.0409 -0.0841  0.0057
18194W        W34268   2.202  11.940   0.681  0.1040 -0.0534  0.0450
18195W        W34269  15.121  15.367   2.152 -0.2802  0.0542  0.0199
18196W        W34270  16.401  14.141  12.611 -0.1596  0.0958 -0.1674
18197W        W34271   8.749   4.857   0.111 -0.3326 -0.1606 -0.0678
18198W        W34272   0.430   4.431  10.659  0.1522  0.0462  0.6618
18199W        W34273  11.648  10.477   1.700 -0.0427  0.3296 -0.1246
18200W        W34274   5.772  15.139   9.763  0.2270  0.0044  0.0079
18201W        W34275   9.506   5.188  10.945  0.1005 -0.1782  0.2326
18202W        W34276   8.492  12.895   3.111  0.0202  0.1226  0.1291
18203W        W34277   4.076  11.735   5.253  0.0915 -0.1521  0.2826
18204W        W34278   4.710   5.951   2.546 -0.1935  0.2366  0.0682
18205W        W34279  15.519   9.467  12.397  0.0518  0.0301 -0.2262
18206W        W34280   8.967   9.588  12.638  0.0512 -0.0984 -0.1443
18207W        W34281   1.104   2.686  12.588  0.0554  0.1075 -0.0529
18208W        W34282  15.556  11.828  12.238  0.0495 -0.0073 -0.2557
18209W        W34283   0.732   3.740   1.419  0.0045  0.0835 -0.0835
18210W        W34284  17.270  10.272  14.651 -0.2191 -0.3384  0.0387
18211W        W34285   7.806  14.409  13.231  0.0124 -0.1908 -0.0692
18212W        W34286   0.234  18.011   1.750  0.1233 -0.1641 -0.1387
18213W        W34287   1.409   8.709  14.703 -0.0663  0.2662  0.0817
18214W        W34288  19.096  14.793  12.109 -0.0753  0.1208 -0.2303
18215W        W34289   0.243   3.122  12.584 -0.0620 -0.0514 -0.0082
18216W        W34290   7.723  11.740  11.132  0.1237  0.0593  0.1515
18217W        W34291  12.863  12.402  13.182  0.0668 -0.1194 -0.0068
18218W        W34292  18.117  13.657  14.487  0.3013  0.0694  0.2982
18219W        W34293  13.403   9.749  12.043  0.1614 -0.0978  0.0006
18220W        W34294   5.269   7.365   1.216 -0.2368  0.0647  0.0531
18221W        W34295  18.473   9.538   6.071  0.2735  0.0640  0.2587
18222W        W34296   8.841  12.434  14.082 -0.1639 -0.3041 -0.0987
18223W        W34297   9.114  15.816  11.494  0.0708  0.0651 -0.4102
18224W        W34298  15.223  17.057   4.392  0.1069 -0.1572 -0.0105
18225W        W34299   0.100  18.503  11.106 -0.0182  0.1090 -0.1359
18226W        W34300   1.656   2.830   3.877 -0.1193  0.0070 -0.2326
18227W        W34301  12.523  13.243   1.361 -0.4652  0.0593 -0.0478
18228W        W34302  19.064   9.654   3.874  0.0794 -0.2059 -0.2255
18229W        W34303  14.488  14.785   2.106  0.2242  0.0496 -0.4226
18230W        W34304  17.649  16.094  12.539  0.1715 -0.1769  0.1242
18231W        W34305   8.887  13.928  10.606 -0.0011  0.2770 -0.1991
18232W        W34306  10.642   2.054   4.320  0.1279 -0.1357 -0.3004
18233W        W34307  13.136  12.605  10.600 -0.1940  0.0001 -0.2424
18234W        W34308  15.779   7.550   1.896  0.0213  0.1532 -0.0876
18235W        W34309  10.431   6.531   5.378  0.3203  0.0456 -0.0432
18236W        W34310  12.637   7.236   3.541 -0.0271  0.0661 -0.4008
18237W        W34311  16.488  17.053   5.603  0.0133 -0.1920 -0.0725
18238W        W34312  14.097   7.995  13.894  0.4831 -0.0031 -0.2597
18239W        W34313  15.902  16.900  11.763  0.1821  0.1691 -0.0468
18240W        W34314   2.608   1.812  14.203 -0.0869 -0.0826  0.4909
18241W        W34315   5.433  15.831   1.321 -0.2816 -0.0224 -0.2945
18242W        W34316  12.152  15.573  11.629 -0.4747 -0.0839  0.4443
18243W        W34317  19.097   4.802  14.876 -0.1145 -0.0131 -0.1002
18244W        W34318  13.199  13.509  12.246 -0.0183 -0.4081  0.3969
18245W        W34319   4.699   6.744   3.900 -0.0489  0.1467 -0.4216
18246W        W34320   8.716   8.022   1.094  0.1272  0.3157  0.0730
18247W        W34321  15.492   4.271   4.547  0.0109 -0.2066  0.0407
18248W        W34322  10.775  14.561   2.554 -0.2555 -0.1643  0.0862
18249W        W34323   9.479  17.547   2.709  0.1231  0.0232  0.0504
18250W        W34324  13.541   9.669   1.971 -0.0942 -0.2315  0.0494
18251W        W34325   0.101   5.864   2.259 -0.0377 -0.1486  0.0350
18252W        W34326  12.734   7.212  12.385 -0.0935 -0.0802 -0.1505
18253W        W34327   5.869  11.600  10.403  0.2426 -0.0684 -0.0694
18254W        W34328   3.249   0.968   1.048  0.2497 -0.0557  0.4344
18255W        W34329  15.808  16.394   4.143 -0.1774  0.2848 -0.2336
18256W        W34330  10.286  14.364   2.537 -0.1136  0.0288 -0.0907
18257W        W34331   8.405  13.443  11.178 -0.0151  0.1611  0.0858
18258W        W34332   3.416  13.919   2.852 -0.1430  0.1114  0.2546
18259W        W34333  18.094  12.245   4.682  0.1898 -0.0941 -0.1442
18260W        W34334  17.973   8.707  11.293 -0.2606 -0.1956 -0.0686
18261W        W34335   3.148  16.325  11.158  0.0644 -0.1360  0.1649
18262W        W34336   7.210   9.364  12.023 -0.3296 -0.0394  0.0719
18263W        W34337  18.889  17.840   1.635  0.3523 -0.2512 -0.4643
18264W        W34338  11.608   9.173  14.220 -0.1077 -0.1467 -0.0559
18265W        W34339   4.259  14.014   5.345  0.1782 -0.2226 -0.0074
18266W        W34340  12.740  18.127   4.600  0.0583  0.1070 -0.0455
18267W        W34341   4.804  11.081  14.262  0.0943  0.0821  0.1663
18268W        W34342  10.319   9.169   3.656  0.0530  0.2356 -0.1709
18269W        W34343  12.158  17.952  10.148 -0.1406 -0.3515 -0.0861
18270W        W34344  12.323   2.224   5.181  0.0156  0.2581  0.1598
18271W        W34345  12.229  18.544   1.876  0.1437  0.2192  0.1338
18272W        W34346   3.887  14.272   0.029 -0.0268 -0.0545 -0.2000
18273W        W34347   5.121  13.364   4.264 -0.3243 -0.2639 -0.0897
18274W        W34348  16.000   5.281  10.639  0.2366  0.1005  0.1385
18275W        W34349   8.803  16.514  12.805 -0.0372  0.2471 -0.0871
18276W        W34350   6.612  15.361   3.115 -0.0987 -0.1606 -0.0756
18277W        W34351   2.319  17.156  13.306  0.5156 -0.0298 -0.1554
18278W        W34352  16.727  19.241   9.990 -0.1247 -0.0082  0.0843
18279W        W34353   9.012  13.564  12.959 -0.0633  0.1043 -0.1105
18280W        W34354   5.375   2.318   4.375 -0.1305 -0.1448  0.0402
18281W        W34355   8.033  16.395  13.189  0.1187 -0.0013 -0.1728
18282W        W34356   3.304  17.879   0.512 -0.0605 -0.2875 -0.2419
18283W        W34357  17.401  12.253  11.657  0.1365 -0.0733 -0.1138
18284W        W34358   8.965  14.669  14.832 -0.2902  0.0435 -0.0750
18285W        W34359   5.629  16.064  13.871  0.0377  0.2605 -0.0028
18286W        W34360  11.636  15.627  12.415 -0.0194  0.0364  0.3444
18287W        W34361   6.947  13.726  11.174  0.1465 -0.0069  0.1165
18288W        W34362   3.556  17.786   3.346 -0.1689  0.1348  0.1930
18289W        W34363  16.614  11.822  13.142  0.1014 -0.0763  0.2170
18290W        W34364   8.347   1.989   1.997 -0.3358 -0.0909 -0.0195
18291W        W34365  10.008  12.970   2.862  0.1209 -0.0553 -0.0515
18292W        W34366  10.705  17.488   2.362 -0.0910  0.3970 -0.0212
18293W        W34367  18.254   0.720   9.317  0.3083  0.0664  0.1110
18294W        W34368  16.886   6.638  13.953  0.3357  0.0920 -0.2630
18295W        W34369  11.942  12.329   4.132  0.0340 -0.0991 -0.0318
18296W        W34370  14.015   8.955  12.044 -0.3246  0.2744  0.1174
18297W        W34371   7.581   7.672  13.081  0.4667  0.0875  0.2692
18298W        W34372  15.646   8.114  13.138 -0.1805  0.0254 -0.2263
18299W        W34373  15.603  17.223   2.652 -0.4301 -0.0828  0.3990
18300W        W34374   2.386  18.672   2.200 -0.2510  0.0058  0.0566
18301W        W34375   3.378   7.781   4.825 -0.2457  0.4493  0.0015
18302W        W34376  11.722   5.789  13.662  0.1320  0.4986 -0.0544
18303W        W34377   6.078   1.117  14.424  0.2325 -0.3114  0.0529
18304W        W34378  17.348  16.671  14.905 -0.0445 -0.1906  0.0552
18305W        W34379  11.719  13.121   4.014  0.1295 -0.2551 -0.1761
18306W        W34380  13.408   8.019  11.503 -0.1612  0.2553 -0.0759
18307W        W34381   9.867   1.152   0.860  0.1935 -0.2213 -0.3406
18308W        W34382  16.338   7.959   1.399  0.2479  0.1891  0.0282
18309W        W34383  18.958   4.310   0.707  0.2657  0.0390 -0.1945
18310W        W34384  19.331   4.988   4.572  0.1898  0.1282  0.2429
18311W        W34385  15.287   9.425  14.450 -0.1881 -0.1939  0.0740
18312W        W34386   6.312  10.450  11.238 -0.0668 -0.1332  0.0070
18313W        W34387  16.642  17.674  14.243  0.3399  0.0483  0.1846
18314W        W34388   0.528   3.921   4.453  0.3132  0.2363 -0.0444
18315W        W34389   8.833   5.027  13.423  0.0358 -0.3868 -0.0180
18316W        W34390   1.350  15.458   0.775  0.1977 -0.2808  0.4025
18317W        W34391  17.219  13.590   3.470  0.2028  0.4722  0.1854
18318W        W34392  13.126   1.152   1.168 -0.3003 -0.0214  0.3383
18319W        W34393  14.431   2.800  13.703  0.1150  0.2490  0.2832
18320W        W34394   5.318  19.326  12.455 -0.1265  0.1322  0.2907
18321W        W34395  10.755  18.391   0.955 -0.0658 -0.1122  0.0350
18322W        W34396   6.093  18.919   4.282 -0.0783  0.2979 -0.0275
18323W        W34397  13.527  12.034   0.804 -0.2156  0.2008  0.0607
18324W        W34398   4.478   0.576  12.069  0.3126 -0.1095 -0.1200
18325W        W34399  14.840  18.876  10.907 -0.0961 -0.1103  0.1133
18326W        W34400   4.277  14.247   0.446  0.1489 -0.1537  0.0849
18327W        W34401   4.476   1.353   4.774 -0.1928  0.3231  0.0605
18328W        W34402  10.890  13.656  11.401 -0.1302  0.0577 -0.3219
18329W        W34403  11.322   7.181   4.872  0.1221 -0.0834 -0.0668
18330W        W34404  18.243   3.572  14.277 -0.2117 -0.2936 -0.0299
18331W        W34405   7.662  14.269  11.101 -0.0100 -0.3543 -0.0135
18332W        W34406  12.317   9.257   4.926 -0.2583  0.0619 -0.3694
18333W        W34407  14.245   4.428   3.143  0.1369 -0.0788  0.1269
18334W        W34408  11.005  14.654   0.489  0.2054  0.0641 -0.1678
18335W        W34409   3.669  10.414   5.952  0.2784  0.2798 -0.0510
18336W        W34410   4.816   2.145  11.358 -0.0633  0.0702 -0.3534
18337W        W34411  14.231   2.333  13.902 -0.0555 -0.1119  0.1601
18338W        W34412  10.035   5.561   2.803  0.2971 -0.0489 -0.1694
18339W        W34413  18.962  16.614  11.837 -0.3443  0.0185  0.1885
18340W        W34414   5.023   4.709  14.990 -0.0874 -0.2746 -0.1297
18341W        W34415   6.916  13.586   0.604 -0.1070 -0.2209 -0.3584
18342W        W34416   8.351   3.090   1.185 -0.1671 -0.2838  0.3079
18343W        W34417  16.659   0.005   1.420  0.0983 -0.0335  0.3994
18344W        W34418   6.438   2.971  12.992  0.2330  0.2993  0.0781
18345W        W34419  15.246   8.977  14.702 -0.1046  0.1256 -0.3651
18346W        W34420   1.071   0.973  10.024  0.1659  0.2916  0.3138
18347W        W34421  18.982   1.634   0.923 -0.3462 -0.1964  0.2934
18348W        W34422  11.197  13.540   0.267  0.5416  0.0503 -0.2681
18349W        W34423  10.008   3.204  14.028  0.1689  0.2273  0.0160
18350W        W34424  12.655   1.690  14.799 -0.4212 -0.0319  0.2128
18351W        W34425  10.534   2.992  12.567 -0.0266 -0.3155  0.1645
18352W        W34426   3.569   3.503  11.639  0.1782  0.1145  0.0773
18353W        W34427   6.600   9.270   1.813  0.3871 -0.3289 -0.1185
18354W        W34428  16.940   6.099   9.755 -0.2583  0.0356 -0.2510
18355W        W34429  11.672   0.141   9.535 -0.1274 -0.0294  0.1021
18356W        W34430   8.164   4.090   1.442 -0.0586  0.0521 -0.0076
18357W        W34431  15.307   2.786   2.890  0.1877  0.2578  0.0369
18358W        W34432   5.563  10.667  14.708  0.1986  0.0186  0.1316
18359W        W34433  18.695   3.594   2.357  0.0230  0.1843  0.0398
18360W        W34434   1.481   8.013   4.461  0.2707 -0.0439  0.4565
18361W        W34435   4.242   5.477  11.537 -0.0614  0.1627 -0.0158
18362W        W34436   5.596  18.484   2.538 -0.1211 -0.3368  0.0972
18363W        W34437  10.375  14.962   1.119 -0.0225  0.1060  0.0095
18364W        W34438  13.117  13.122  12.593  0.3609  0.0216  0.2178
18365W        W34439  16.673   0.147   2.666 -0.0653  0.1214  0.1136
18366W        W34440  17.543   6.103  12.751  0.1331 -0.2302  0.1027
18367W        W34441  14.270  13.516   4.602 -0.0194 -0.0110 -0.2238
18368W        W34442   0.893   0.451   2.334  0.0170 -0.0769  0.0778
18369W        W34443   0.887   9.847   1.487  0.1336 -0.0652 -0.3234
18370W        W34444   5.463  18.868  10.327  0.0114 -0.0938 -0.0097
18371W        W34445   1.668   4.336  11.152  0.2746  0.0037  0.2742
18372W        W34446   6.878   7.050  12.166  0.0404  0.2619  0.1831
18373W        W34447   7.634   5.853  11.702  0.3506  0.0909 -0.1883
18374W        W34448   6.770  18.083   2.823  0.2206 -0.1087  0.0774
18375W        W34449   2.681  17.759   9.544  0.2042  0.1445 -0.1130
18376W        W34450   2.172   8.291   0.546 -0.0718  0.2069  0.0878
18377W        W34451   0.794   9.968  10.058  0.1183  0.2198 -0.0175
18378W        W34452   1.650   2.161  13.654  0.0069  0.0970  0.1065
18379W        W34453   9.440  10.321  10.398 -0.2368  0.0867 -0.1329
18380W        W34454  12.310   2.961   2.343 -0.0011 -0.0369 -0.4144
18381W        W34455  12.083   8.558  13.966  0.3055  0.2400  0.1466
18382W        W34456   9.067  16.043  13.986  0.0265  0.2524  0.0540
18383W        W34457   2.235  15.084   4.339 -0.0695  0.1674 -0.1154
18384W        W34458   0.420   2.971   4.884 -0.1498  0.2081  0.1194
18385W        W34459   4.532  12.074  14.227 -0.0545 -0.0778 -0.3026
18386W        W34460  18.336   2.598  11.478 -0.0292  0.0735  0.1206
18387W        W34461   2.521   3.174  10.180 -0.2750  0.0799 -0.2563
18388W        W34462  15.040  13.729   3.863  0.0693  0.1156 -0.1878
18389W        W34463   1.395   7.763   0.051 -0.2517  0.0585 -0.0103
18390W        W34464  14.875   9.515   4.013  0.1162 -0.2625 -0.3134
18391W        W34465  10.436  18.213  14.885 -0.1878 -0.0460  0.0051
18392W        W34466  17.647   7.566   5.525  0.0126 -0.2693 -0.0110
18393W        W34467   2.488   4.637  13.519  0.1665  0.0868 -0.0136
18394W        W34468   6.625  18.178   0.904 -0.0808 -0.1563  0.0449
18395W        W34469   1.389   1.438  12.295 -0.2581  0.0782  0.0136
18396W        W34470   8.079  10.169   4.629  0.1924  0.0451  0.0129
18397W        W34471  10.223   3.488  11.708  0.2108 -0.0356 -0.0795
18398W        W34472   3.184  10.206  14.153  0.0903  0.1841  0.1039
18399W        W34473   4.487   5.592  12.833  0.3301 -0.0014 -0.1517
18400W        W34474   9.744  14.051  11.573  0.0901  0.2362 -0.1162
18401W        W34475  16.603  11.323  12.414 -0.0491  0.4362  0.0533
18402W        W34476   9.880   2.233   3.216  0.1145  0.1686 -0.1838
18403W        W34477   7.906  10.396  13.715  0.1583 -0.0899 -0.2713
18404W        W34478   6.324   5.530   9.588  0.1595 -0.2623  0.2677
18405W        W34479   7.243   6.767  10.515  0.1470  0.1755 -0.0509
18406W        W34480  18.631  18.683  11.597 -0.0095 -0.1086  0.2671
18407W        W34481   6.209   4.474   5.208  0.4535 -0.0683 -0.1045
18408W        W34482  11.101   3.802  11.872  0.1238 -0.0350 -0.2699
18409W        W34483  11.187   0.301   9.635 -0.0952  0.1809 -0.2821
18410W        W34484   5.514  17.040   0.882  0.1107 -0.2549 -0.1889
18411W        W34485   0.241   7.912  12.116  0.1942  0.1199  0.0827
18412W        W34486   3.745   9.258  10.470 -0.3153 -0.1069  0.2921
18413W        W34487   3.895   9.472   4.980 -0.1429 -0.0742 -0.1365
18414W        W34488  17.773  15.654  12.305 -0.0155 -0.3200 -0.3235
18415W        W34489   5.721   1.819  13.239  0.2742  0.3117  0.0244
18416W        W34490   1.445   2.605  12.146 -0.1772 -0.2698  0.1165
18417W        W34491  18.122   7.250  11.521  0.0154  0.0082  0.0180
18418W        W34492  17.715   0.528   4.359  0.0670  0.0193 -0.1513
18419W        W34493   4.888   4.537  13.152 -0.0644  0.3132  0.1178
18420W        W34494  19.207   1.271   0.089  0.0352  0.0158 -0.0494
18421W        W34495  17.508  12.623   3.273  0.0612 -0.0652 -0.0712
18422W        W34496   6.294   0.244  10.267 -0.0211 -0.1899 -0.1820
18423W        W34497   5.806  12.648   3.797  0.1136  0.1942 -0.1931
18424W        W34498   1.353  17.529   3.849 -0.0009 -0.0552  0.2332
18425W        W34499  16.664  16.934  14.331 -0.0411  0.1874 -0.0074
18426W        W34500  13.008   2.770  12.765 -0.0263  0.0414 -0.2607
18427W        W34501   6.187  12.730   2.347  0.1471  0.3122  0.0962
18428W        W34502   7.153   2.819  11.145  0.0617 -0.0408  0.0638
18429W        W34503  16.145  12.251  12.712  0.1554  0.0678  0.1024
18430W        W34504   9.771  18.271   4.698 -0.2867  0.2584 -0.2100
18431W        W34505  14.547   7.100   1.921 -0.1619  0.1109  0.0624
18432W        W34506   6.685  11.861   2.282  0.0971 -0.3423  0.0748
18433W        W34507   7.930  16.318  14.995  0.0504 -0.2242 -0.1142
18434W        W34508  12.562   0.784   5.520 -0.1397 -0.1040  0.0540
18435W        W34509   1.497   1.920   2.057 -0.2038  0.0802  0.0066
18436W        W34510  10.542  12.655   4.985  0.1129 -0.1009 -0.0618
18437W        W34511   3.566  14.419   2.844 -0.2130  0.3204 -0.1497
18438W        W34512  13.645  16.810   2.126  0.0581  0.0730 -0.1157
18439W        W34513  15.451  11.256  12.942  0.4742  0.1543  0.1908
18440W        W34514   7.077   9.089   3.245 -0.2366 -0.1575 -0.0271
18441W        W34515  19.030   3.541  13.244  0.0244 -0.1064 -0.0565
18442W        W34516  15.055   3.196  12.789 -0.3473  0.2160  0.2600
18443W        W34517   1.734   7.804  13.095 -0.1176 -0.1858  0.0996
18444W        W34518   3.092   1.617  14.050  0.1781  0.1061 -0.2070
18445W        W34519   9.715   7.512   2.547 -0.4307 -0.1064  0.2900
18446W        W34520  18.354   1.296   5.130  0.0454 -0.3428  0.0808
18447W        W34521   8.301  13.703  14.324  0.0671  0.0830  0.0893
18448W        W34522  19.321   7.220  14.197 -0.0009  0.4240 -0.2728
18449W        W34523  17.053  14.241  13.383  0.0612  0.0237  0.3710
18450W        W34524   5.851   7.105  14.880  0.0357 -0.1894  0.0100
18451W        W34525  16.682   2.624   2.254  0.3484  0.2636  0.1042
18452W        W34526   9.366   3.478   0.066  0.0951  0.0332  0.2211
18453W        W34527  13.448   4.858   4.397  0.1380  0.2884  0.4945
18454W        W34528   3.357  16.006   1.762 -0.2467 -0.0947 -0.0158
18455W        W34529   2.214  18.568  13.905 -0.0755  0.0151  0.1334
18456W        W34530   0.478  14.282  12.545  0.0856  0.1357 -0.1294
18457W        W34531  16.877   9.065   1.975 -0.1441 -0.2554 -0.3820
18458W        W34532  17.436   0.280   4.938  0.2543 -0.4175  0.0877
18459W        W34533  18.737   7.132   4.109  0.0389  0.1137  0.2996
18460W        W34534   0.764   5.257   4.573 -0.0217  0.2634  0.0981
18461W        W34535   0.165   8.374   5.330  0.0881  0.0693  0.4142
18462W        W34536   9.687   3.323  10.308  0.1647 -0.1660  0.0715
18463W        W34537   8.977  12.031  11.394  0.2371  0.0654 -0.0462
18464W        W34538   7.824  14.608   4.261 -0.0686  0.0014 -0.1816
18465W        W34539   0.292   5.353   0.501  0.3036 -0.2860  0.2677
18466W        W34540   6.818  18.536   2.645  0.1582 -0.1201  0.0278
18467W        W34541   3.995   9.589   3.338  0.0376 -0.1345  0.0633
18468W        W34542  12.223  17.442  12.281 -0.0438 -0.2571  0.0864
18469W        W34543   0.699   7.523  13.931  0.0125 -0.2784  0.2871
18470W        W34544  19.274  14.811   1.734 -0.1760  0.0256 -0.0345
18471W        W34545   2.114   5.307  11.891  0.2367  0.2623  0.2470
18472W        W34546   5.721   5.957  10.529  0.1278  0.0484  0.0738
18473W        W34547  12.694  17.953  14.968 -0.1811 -0.0262 -0.0789
18474W        W34548   6.204   8.495   2.024 -0.0364  0.3337 -0.4671
18475W        W34549   5.649   7.374  10.357  0.1548 -0.0687 -0.0750
18476W        W34550  16.213  12.674   2.295  0.0018 -0.0276 -0.2917
18477W        W34551   9.264   0.150  13.338  0.2743  0.2744 -0.0731
18478W        W34552   2.144  10.130   1.241  0.2154 -0.2840  0.1400
18479W        W34553   6.591  18.892   4.563 -0.0577  0.0799  0.2219
18480W        W34554  16.862   3.919  13.654  0.2368 -0.0413 -0.4199
18481W        W34555   1.045   6.486   1.991  0.3107 -0.1049  0.1853
18482W        W34556   9.411  16.155   3.884 -0.0717 -0.2806  0.3040
18483W        W34557  15.312  13.298  10.658 -0.3644  0.0177 -0.0964
18484W        W34558  11.191  11.689   4.341  0.2931 -0.3182  0.2206
18485W        W34559  13.470   4.624  11.869  0.1325 -0.1465 -0.0793
18486W        W34560  14.609   4.042   5.227 -0.2033 -0.2360  0.0622
18487W        W34561  18.279  12.984   3.776 -0.2334  0.0112  0.0334
18488W        W34562  16.800   0.603   2.558  0.0493 -0.2366  0.2186
18489W        W34563   3.227  14.675   2.602  0.1369  0.1412 -0.2748
18490W        W34564  13.003  16.001   2.462 -0.2707 -0.0693 -0.1015
18491W        W34565  15.503  18.132  11.133  0.2437  0.0614 -0.0065
18492W        W34566   4.430   1.303  11.859  0.0284  0.1225 -0.2007
18493W        W34567   4.621  17.762  12.375 -0.4308 -0.1271  0.0355
18494W        W34568  11.604   0.709   1.538  0.0836  0.1390 -0.3052
18495W        W34569  18.001  10.625  12.406 -0.1587 -0.2073  0.0048
18496W        W34570  11.722   4.097  12.672 -0.2143 -0.2927  0.1182
18497W        W34571   9.509   2.069  13.308  0.1567  0.2622  0.0876
18498W        W34572  12.534  16.417  14.831  0.0648 -0.4383 -0.2972
18499W        W34573  14.016   0.325   0.497  0.2744  0.1193 -0.1217
18500W        W34574   8.604  17.314   2.949 -0.1648 -0.0066  0.0894
18501W        W34575  18.748   5.137  14.918  0.2436 -0.0861 -0.4584
18502W        W34576  15.826   0.096   1.165 -0.1815  0.0464 -0.0077
18503W        W34577  17.016  10.206   0.825  0.0129  0.1752  0.1947
18504W        W34578  17.871   6.722  10.721 -0.0265 -0.1412  0.0556
18505W        W34579  17.850   7.260   0.712 -0.0856 -0.2279 -0.0425
18506W        W34580  11.300  10.621   1.188  0.0851  0.0965 -0.1516
18507W        W34581   1.487   9.468   4.498  0.1951  0.0481  0.2315
18508W        W34582   7.740  13.605  12.319 -0.1210  0.0942  0.3205
18509W        W34583   5.224  16.125  12.879  0.2830  0.0975 -0.2405
18510W        W34584   6.519   6.340   1.452 -0.1330  0.0256 -0.0176
18511W        W34585   2.641   6.562  14.825  0.1114 -0.4582 -0.0636
18512W        W34586   1.493   8.020  11.291  0.1305 -0.1313 -0.0753
18513W        W34587   2.145  18.212  13.368 -0.2822  0.1792  0.0085
18514W        W34588   2.917   9.583  12.068  0.1655 -0.3750 -0.2484
18515W        W34589   1.305   6.850   1.788  0.2831 -0.0600  0.0646
18516W        W34590  17.709  17.393  14.201  0.3899 -0.0071 -0.1005
18517W        W34591   0.982  17.014  13.251 -0.1763  0.1365  0.1668
18518W        W34592   6.393   5.188   4.081  0.0511  0.3318 -0.1261
18519W        W34593  14.480   7.397  12.638 -0.2071  0.0156 -0.0611
18520W        W34594  15.359  18.954   0.898  0.1098 -0.0003  0.0110
18521W        W34595   3.525   9.392   1.588  0.0813  0.0734  0.2018
18522W        W34596   6.622   7.713  13.272  0.0635  0.1127  0.3401
18523W        W34597  17.181   5.953   4.199  0.0457  0.2197 -0.0775
18524W        W34598  18.475   1.342  10.821 -0.0101 -0.0170 -0.0180
18525W        W34599  18.646   9.872   1.626 -0.2682  0.1415  0.0107
18526W        W34600  18.782   7.318   5.469  0.0542  0.1562  0.1247
18527W        W34601   8.717   2.496  11.748  0.1604  0.2285 -0.1988
18528W        W34602   9.306  15.301   2.048  0.3211 -0.0685 -0.0617
18529W        W34603   5.080  16.932  10.743 -0.2557 -0.1441  0.1250
18530W        W34604   8.609  13.010   8.679 -0.0098 -0.2017 -0.1844
18531W        W34605   3.483   2.923   2.037  0.1403  0.1899  0.1074
18532W        W34606   9.165  10.156   9.978  0.1019 -0.1460 -0.1294
18533W        W34607  10.178   2.946   0.252  0.1802 -0.2279 -0.0907
18534W        W34608  10.471   2.343  11.066 -0.0242 -0.1448  0.2453
18535W        W34609  15.499   1.693  11.517  0.2260  0.0118 -0.1516
18536W        W34610  17.069  13.102  12.027  0.0388  0.0871  0.0992
18537W        W34611  10.281   7.003   0.089 -0.1220 -0.1988 -0.0404
18538W        W34612   3.250  16.382   1.361 -0.0203  0.1926  0.1407
18539W        W34613   8.971   1.244  12.001  0.0280 -0.0704 -0.0086
18540W        W34614  12.516   4.785  10.232  0.2206 -0.2906 -0.1070
18541W        W34615   4.627  13.834   1.024  0.1703  0.1740  0.0791
18542W        W34616  10.749   2.878   2.416 -0.1474 -0.2009  0.2686
18543W        W34617   2.881   0.125   1.433 -0.1854  0.2359  0.1200
18544W        W34618  12.643  15.028  10.498  0.1065 -0.2046 -0.3079
18545W        W34619   2.897  17.062   3.226 -0.0435 -0.0937 -0.2334
18546W        W34620   7.644  14.253  10.252  0.0636 -0.1305  0.1153
18547W        W34621   9.698   1.538  14.156 -0.2383 -0.3956  0.0669
18548W        W34622  17.836   6.491  12.729 -0.0372 -0.0728  0.0972
18549W        W34623  12.814  11.746   2.359  0.0263  0.0958 -0.1527
18550W        W34624  16.285  13.753   2.562 -0.1396 -0.1457  0.0266
18551W        W34625   5.082   1.536   3.973  0.2853 -0.0743  0.0821
18552W        W34626  14.944   7.904   2.146  0.2461  0.0762  0.0877
18553W        W34627  15.044  10.330   1.863  0.0729  0.0294 -0.0681
18554W        W34628   8.712  14.715   1.693 -0.0100  0.2623 -0.0644
18555W        W34629  16.529   4.646  10.744  0.1310 -0.0480  0.1544
18556W        W34630   1.444  16.755   2.419  0.0534  0.3622 -0.0451
18557W        W34631   9.754   5.016  13.760 -0.4823  0.4270 -0.2185
18558W        W34632   8.497   6.749  10.892  0.1425  0.2438 -0.0843
18559W        W34633  17.422  16.944   3.185  0.0533 -0.1824  0.0594
18560W        W34634  12.277   8.189  12.127  0.2283 -0.0748 -0.0787
18561W        W34635  17.561  18.061   0.436  0.1458  0.0776  0.0479
18562W        W34636   6.752  14.495   0.628  0.0269  0.0671  0.0847
18563W        W34637  13.759   4.258  14.588  0.0011  0.2725  0.1266
18564W        W34638   0.063  10.771   3.428 -0.0346 -0.1195  0.2072
18565W        W34639  18.950   5.595   4.001  0.0791  0.1532  0.1226
18566W        W34640  16.018   1.935   5.711  0.0019 -0.0460  0.0011
18567W        W34641  13.309   8.012   0.097 -0.1089 -0.2027  0.1063
18568W        W34642   2.500   0.268   3.759  0.0899  0.0021  0.0432
18569W        W34643  12.630  13.829   1.823  0.2566 -0.2430  0.1292
18570W        W34644   3.883  18.067   4.094  0.4655 -0.0427  0.1235
18571W        W34645  15.602   7.547  13.791  0.0221  0.0120  0.0294
18572W        W34646  17.456   2.442  11.952  0.0481 -0.1016 -0.3623
18573W        W34647  17.700  16.688  14.341 -0.1754  0.0364 -0.0292
18574W        W34648  18.876   9.574   3.020 -0.3119 -0.3559 -0.0210
18575W        W34649  16.381   1.033   1.494 -0.2879  0.1942 -0.0369
18576W        W34650   7.996   4.613   0.757  0.0727  0.2317 -0.0604
18577W        W34651  12.627  15.979  12.440  0.1317  0.2268 -0.2099
18578W        W34652   0.139  13.143  13.360 -0.1008 -0.2069 -0.2364
18579W        W34653   9.111  13.287  14.533  0.1429 -0.1185 -0.0339
18580W        W34654   2.284  16.340   4.419  0.2631  0.0976 -0.0952
18581W        W34655   6.306  13.225   5.592 -0.1401  0.2756  0.0132
18582W        W34656  17.548   9.308  14.117 -0.0667 -0.2193  0.1173
18583W        W34657  12.618   1.015  13.953 -0.0006  0.0235  0.0895
18584W        W34658   3.631  17.590   4.161  0.4231  0.2376  0.0448
18585W        W34659   2.012  11.914   5.298  0.0470  0.2663  0.0556
18586W        W34660  14.407  15.183  12.109 -0.0314  0.2684  0.1239
18587W        W34661  13.599  17.912   0.840 -0.2412 -0.3545 -0.1841
18588W        W34662   3.344  18.738   4.156  0.2164  0.1152  0.0654
18589W        W34663   8.607   6.475   1.302  0.0862  0.1699 -0.1763
18590W        W34664  13.267   8.962   1.355 -0.1049  0.0088  0.3998
18591W        W34665  11.408   3.743   1.606  0.3725 -0.0589 -0.2670
18592W        W34666  16.798  18.429  12.122 -0.1014  0.0537 -0.1224
18593W        W34667   4.841   6.643  11.499  0.2708 -0.0680 -0.1465
18594W        W34668   9.379   9.768  13.983  0.1571 -0.1680 -0.0243
18595W        W34669  13.278   1.052  12.699 -0.2401 -0.1292 -0.2958
18596W        W34670   2.240   6.295   4.368  0.2266  0.0608  0.2690
18597W        W34671   9.993  10.347  13.184  0.1999  0.2772  0.2344
18598W        W34672  13.678  11.893  12.634 -0.0738 -0.2601 -0.0559
18599W        W34673   1.818  17.003  13.025  0.3209 -0.1043 -0.2523
18600W        W34674   9.472  17.985   9.226  0.0030  0.1225  0.1253
18601W        W34675  14.314   8.264   2.372 -0.0829  0.2939 -0.3377
18602W        W34676   2.476  12.911  11.638 -0.1019  0.1139 -0.2280
18603W        W34677   0.934  18.796  11.250 -0.3094  0.0771 -0.3687
18604W        W34678   6.063   0.035   5.225 -0.0029 -0.0929 -0.2040
18605W        W34679  16.281   1.474   3.390  0.2713  0.1354  0.2292
18606W        W34680  11.186   1.255   2.873  0.0730  0.4085 -0.0477
18607W        W34681  16.406   2.536  13.584  0.1281  0.2090 -0.2660
18608W        W34682   7.361  15.568   2.115  0.3539 -0.1240  0.0429
18609W        W34683   5.945  17.195   0.406 -0.1346 -0.3285  0.0805
18610W        W34684   9.140   8.255  12.808  0.1916 -0.2081 -0.3151
18611W        W34685   3.783  16.224   1.397 -0.2310  0.0995  0.0789
18612W        W34686  16.638   1.665   2.204  0.1291 -0.0128  0.1265
18613W        W34687   0.367   2.354  10.933 -0.5408 -0.0907 -0.0047
18614W        W34688  17.087   9.115   3.010  0.0159  0.2484 -0.0186
18615W        W34689   8.064  19.056   3.578  0.3796  0.1499  0.2764
18616W        W34690  11.718  12.940  13.479 -0.3883  0.0093  0.0197
18617W        W34691   3.086   7.218   0.219  0.0689 -0.1085 -0.1403
18618W        W34692   8.006   9.582   0.242 -0.0362  0.0030 -0.3876
18619W        W34693  13.418  14.116  14.946  0.0286 -0.4572  0.0774
18620W        W34694  11.404  16.653  10.417 -0.1638 -0.2024 -0.3394
18621W        W34695   3.662   3.042  11.312 -0.0046  0.0400 -0.0919
18622W        W34696   3.374   0.491   4.691  0.0574  0.0362  0.2367
18623W        W34697   8.479   4.638   0.587  0.2104 -0.2265 -0.0270
18624W        W34698   5.087   3.253  14.561 -0.1577  0.3512  0.4029
18625W        W34699   2.478   0.196  11.773  0.2987  0.0747  0.0106
18626W        W34700   6.812   3.557  10.586 -0.1552 -0.2327 -0.2090
18627W        W34701  11.688   7.759   4.848  0.1360 -0.2461  0.3177
18628W        W34702   6.668   9.572  10.935  0.1739 -0.1262 -0.0411
18629W        W34703   1.669   6.402  14.856  0.1750  0.0192 -0.1707
18630W        W34704   7.055   3.919  12.147  0.0310 -0.0959 -0.0232
18631W        W34705  17.688  13.532   3.097  0.1169 -0.3505  0.3002
18632W        W34706   4.758  17.921  14.842 -0.0636  0.2557 -0.2922
18633W        W34707  11.398   6.007   1.444  0.0992  0.1406  0.2037
18634W        W34708   7.488   7.731   0.266  0.1895 -0.4096  0.1411
18635W        W34709  16.368   1.353  13.401 -0.6117 -0.1926 -0.0919
18636W        W34710   7.191   5.630   4.736 -0.2696 -0.2636  0.2039
18637W        W34711  12.269   2.457   1.262 -0.0296  0.3135  0.1350
18638W        W34712   7.117  13.524  13.497  0.4983  0.1862  0.1298
18639W        W34713   2.985  14.612  13.366 -0.4337  0.2732 -0.2572
18640W        W34714  17.387   4.358   4.221  0.1605  0.1672  0.5046
18641W        W34715   8.483   9.995   0.639  0.7171 -0.3375  0.2973
18642W        W34716   4.864   7.719   3.937 -0.0694  0.1347  0.3124
18643W        W34717   4.234  18.008  13.797 -0.0507  0.1919 -0.1542
18644W        W34718   7.098  15.980   3.540 -0.0873  0.1608 -0.0263
18645W        W34719  16.531  17.556  14.729  0.1978  0.1114  0.1553
18646W        W34720   9.187  10.662   9.995 -0.1803 -0.1355  0.1083
18647W        W34721   9.512  10.400  11.225 -0.0797  0.2819  0.3746
18648W        W34722   2.878   9.447   5.682  0.0345  0.0225 -0.0652
18649W        W34723  19.314   9.188   1.571 -0.3386  0.1162 -0.2226
18650W        W34724   1.145  12.661   3.925 -0.1107  0.1542  0.1243
18651W        W34725   7.579  19.170   3.657 -0.2499 -0.3291  0.0811
18652W        W34726  14.985  11.549  14.931  0.1956 -0.0659 -0.1727
18653W        W34727   7.428  18.610   4.209  0.1351  0.3668  0.0782
18654W        W34728   9.375   4.275  10.713  0.2092  0.0677 -0.1372
18655W        W34729  12.173   8.240  13.383  0.1392 -0.5192  0.0421
18656W        W34730  18.585  10.802   4.013 -0.1078 -0.2890  0.1735
18657W        W34731  14.786  16.787   2.759 -0.3426  0.1363  0.1129
18658W        W34732  14.458  16.980  14.314 -0.1111  0.2051  0.1324
18659W        W34733   4.640   4.859  13.461  0.2931  0.0655  0.0457
18660W        W34734   3.380   0.555  12.978 -0.2359 -0.3591  0.3728
18661W        W34735   3.785   7.766   3.972  0.0714 -0.0777  0.2357
18662W        W34736   1.930   3.357  14.609  0.0606 -0.1056 -0.0292
18663W        W34737  11.242  15.433  12.119 -0.1940 -0.2473  0.2278
18664W        W34738   3.807   7.793   2.216 -0.1098 -0.3120  0.0096
18665W        W34739  18.460  15.705  13.152  0.2860  0.0373 -0.1385
18666W        W34740   3.396   1.732  14.618 -0.0939 -0.1669  0.1176
18667W        W34741   7.285   0.504  12.558 -0.3135 -0.0256 -0.0580
18668W        W34742   7.234   8.310  13.357 -0.1933  0.0080  0.0157
18669W        W34743   7.029   7.571   5.526 -0.1194  0.1039 -0.2860
18670W        W34744   7.531   0.871  11.180  0.3267  0.1121 -0.0462
18671W        W34745  16.817  12.107  11.643  0.1379 -0.2933 -0.1354
18672W        W34746   1.427   7.554   2.975  0.0484  0.3027 -0.3550
18673W        W34747   3.543   7.737   0.453  0.0773  0.1777 -0.2693
18674W        W34748  18.811   5.537   5.235 -0.1809  0.2845  0.1481
18675W        W34749   7.716  12.804  14.531  0.4123 -0.0323  0.0708
18676W        W34750  14.048  15.952  11.286  0.0057  0.0891 -0.2442
18677W        W34751  15.971  13.465   4.031 -0.2891 -0.1475 -0.1927
18678W        W34752  11.037   8.086  10.673 -0.1765  0.3282  0.1093
18679W        W34753  12.728  13.315  12.063 -0.2337 -0.2299  0.0063
18680W        W34754  19.090  18.948  14.697 -0.5746  0.1422 -0.2868
18681W        W34755   3.188  12.422  11.432 -0.0931  0.5528  0.0552
18682W        W34756  11.822  16.031   3.149  0.1255  0.0837  0.0897
18683W        W34757   2.942   7.580  14.844 -0.0108 -0.1324 -0.2854
18684W        W34758  11.157  13.292  13.831 -0.0061 -0.0177 -0.3078
18685W        W34759   4.973   8.078  10.799 -0.2796 -0.1282  0.1184
18686W        W34760  15.788  14.523  12.411  0.0727 -0.1877  0.0188
18687W        W34761   6.643  17.027  10.763  0.0784  0.0762  0.1530
18688W        W34762  12.672  13.638   4.387  0.0764 -0.2319  0.0117
18689W        W34763   4.019   5.187   3.251 -0.0139 -0.1673 -0.1096
18690W        W34764   6.007  17.946   4.213 -0.1809  0.1883  0.1229
18691W        W34765   3.855  13.670  12.146 -0.1310  0.1025 -0.1745
18692W        W34766  13.702   4.362   5.497 -0.0317  0.0154  0.0734
18693W        W34767   3.637  14.351  11.792  0.1583 -0.0169 -0.0379
18694W        W34768  18.210  12.418  13.507  0.2197  0.0023 -0.1741
18695W        W34769   8.953   3.125   3.512 -0.1654  0.0773 -0.3279
18696W        W34770  14.873  12.787  12.860  0.0494 -0.3447  0.2865
18697W        W34771   6.228   8.944  14.279 -0.1613 -0.3680  0.0696
18698W        W34772  13.812  12.697   2.935  0.2468 -0.1141 -0.1769
18699W        W34773  10.093  14.975   0.208 -0.0665 -0.0373  0.1496
18700W        W34774   8.636   4.902   1.355 -0.2244 -0.0829  0.2745
18701W        W34775   7.286   3.599  10.400 -0.2395  0.1181 -0.4459
18702W        W34776  15.100   0.199   4.276 -0.0738 -0.2127 -0.0174
18703W        W34777  17.605  15.694  12.795 -0.0034  0.0266  0.0776
18704W        W34778   5.114  11.677  13.251 -0.0902 -0.0425 -0.1111
18705W        W34779  17.238  18.279   2.672 -0.3115 -0.1224 -0.0691
18706W        W34780  11.318   4.163   4.236 -0.1290 -0.2248  0.2419
18707W        W34781   6.266   2.043  11.720 -0.1111 -0.1972  0.0613
18708W        W34782  11.419   8.154   1.459 -0.2505 -0.0917 -0.1147
18709W        W34783   0.372   4.224   2.822 -0.0244  0.1140  0.1177
18710W        W34784  11.192  18.859  13.057  0.1263 -0.0663 -0.1986
18711W        W34785  16.269  17.947   2.188 -0.0311 -0.2724  0.2494
18712W        W34786   1.136   1.697   2.280  0.0994 -0.0109 -0.1838
18713W        W34787   6.528   8.055  12.054 -0.1778 -0.4088 -0.0418
18714W        W34788   7.555  18.517  10.544  0.1206  0.0174  0.0023
18715W        W34789   4.830  18.771   0.816  0.1391  0.0589  0.2301
18716W        W34790  17.433   6.021  11.557 -0.1179 -0.0186  0.2699
18717W        W34791  13.667   3.517   0.057 -0.0470 -0.4534  0.0072
18718W        W34792  18.062  10.498   3.775 -0.0205  0.2729  0.0498
18719W        W34793   2.519   9.927  14.061  0.2057  0.3230  0.0815
18720W        W34794  17.791   6.447  13.951 -0.1105  0.0179  0.0264
18721W        W34795  15.231  14.067   4.660 -0.1688 -0.1816 -0.1480
18722W        W34796   5.894   5.561  11.310  0.0299 -0.1328 -0.0381
18723W        W34797  14.681   8.963   0.913  0.1390 -0.0291 -0.0846
18724W        W34798   9.230   4.184  11.746  0.1890 -0.1640 -0.3122
18725W        W34799   5.960   6.798  12.658 -0.1751 -0.3438  0.0190
18726W        W34800  17.097  18.451   0.619  0.1577  0.0251  0.2572
18727W        W34801   9.859  17.395  11.452  0.1674 -0.3692 -0.1918
18728W        W34802  12.215  18.998  12.972 -0.0608  0.1161 -0.1407
18729W        W34803   6.168   7.395   1.484 -0.0953  0.0644 -0.1844
18730W        W34804  10.412   1.587   3.603 -0.4296  0.1799  0.1336
18731W        W34805   2.770   2.156   3.533 -0.1459  0.3120  0.3777
18732W        W34806  11.835   9.579   1.800  0.0888 -0.0808  0.0856
18733W        W34807   5.392  17.793  11.036 -0.2540  0.1067 -0.0912
18734W        W34808   3.222   9.461   4.095  0.4571 -0.1760 -0.1781
18735W        W34809   6.192   8.988   5.757  0.1074 -0.0404 -0.1041
18736W        W34810   3.556  16.988   0.051 -0.2582  0.2665  0.3433
18737W        W34811  10.504  19.264   3.016  0.0638  0.2369  0.0570
18738W        W34812  13.360  17.813   2.907 -0.0489  0.1745  0.0119
18739W        W34813  17.214   7.004  10.632 -0.0554 -0.1059  0.2679
18740W        W34814   9.333   2.553  10.527 -0.1746  0.1332  0.3136
18741W        W34815   9.173  12.804  12.807 -0.1983 -0.3652 -0.1601
18742W        W34816   0.941   0.365   4.382 -0.1928  0.0267  0.0454
18743W        W34817   8.698  17.429   3.565  0.0703  0.0335 -0.1235
18744W        W34818   4.289   7.891   0.093 -0.0481  0.0432  0.0099
18745W        W34819  11.798  16.085  12.214  0.0920 -0.0098 -0.0488
18746W        W34820   1.286   0.072   3.258  0.0563  0.0780  0.2103
18747W        W34821   2.355   4.543   0.382 -0.1386 -0.1086  0.1189
18748W        W34822   0.003   1.450   0.593 -0.2668 -0.2269 -0.0710
18749W        W34823  17.376  18.669   3.538 -0.1288 -0.0786  0.1074
18750W        W34824   6.772   1.534   2.386  0.1354 -0.1144 -0.1991
18751W        W34825  18.096   3.049  14.016  0.2178  0.0121 -0.0151
18752W        W34826  15.418   0.913   1.267  0.1714 -0.0850  0.0634
18753W        W34827  12.006  18.613   3.297 -0.2313  0.1007  0.2327
18754W        W34828   2.160   0.742  12.312 -0.2334 -0.0831 -0.0723
18755W        W34829   1.613   2.376   5.691 -0.2106  0.1568  0.2222
18756W        W34830  18.821  16.324  14.696  0.0510 -0.0153 -0.0355
18757W        W34831   2.601   0.861  13.562 -0.1906  0.1110  0.0737
18758W        W34832   0.669  14.093  10.743 -0.0263 -0.1582 -0.2238
18759W        W34833   8.393   0.480   2.837 -0.0822 -0.0023  0.0267
18760W        W34834   7.939  16.880  11.506  0.0274  0.3062  0.2592
18761W        W34835   9.816  16.368   2.981 -0.1082  0.0469 -0.2634
18762W        W34836  12.714  11.532   0.481  0.1871 -0.1682  0.0983
18763W        W34837  10.972   2.952  14.172 -0.0240  0.0989 -0.1203
18764W        W34838   9.866  13.529  14.941  0.1730  0.1089 -0.0790
18765W        W34839   2.751  14.752   2.816 -0.0731 -0.1615 -0.0791
18766W        W34840   0.065  15.653   4.614  0.1290  0.1999 -0.3596
18767W        W34841  11.223  14.065   1.356 -0.0683 -0.2291  0.0616
18768W        W34842  17.039   4.671  12.467 -0.1528 -0.1069 -0.2062
18769W        W34843   4.829   0.129  10.259  0.2134 -0.2321  0.0225
18770W        W34844   8.548  11.561  14.418  0.3069 -0.0467  0.1530
18771W        W34845   3.575   1.227   9.494 -0.1572 -0.2779  0.0599
18772W        W34846   5.014  13.278   1.655 -0.1108 -0.1505 -0.2920
18773W        W34847  15.248  16.305   3.068  0.2021  0.6005  0.1049
18774W        W34848  14.035  19.232   2.415 -0.1731  0.0435  0.1914
18775W        W34849  19.001  12.786   2.972 -0.0719  0.2128 -0.2680
18776W        W34850   1.790   2.936   2.469 -0.1846  0.2019 -0.2460
18777W        W34851  18.104   5.657   0.309 -0.1883 -0.0813  0.1289
18778W        W34852   3.004   6.747  11.891  0.1039 -0.0788  0.0408
18779W        W34853  11.448  15.790   2.288 -0.4193  0.0448 -0.3035
18780W        W34854  17.297   4.446  12.765  0.1195 -0.0126 -0.0410
18781W        W34855   2.635   2.056   2.004  0.1480  0.0170 -0.0061
18782W        W34856   3.848  10.384   0.127  0.0518  0.0493  0.3681
18783W        W34857  18.531   4.460  13.513  0.2800 -0.3284 -0.0294
18784W        W34858   8.590  15.255   3.625  0.0130 -0.0623 -0.2004
18785W        W34859  15.050   6.027   0.157 -0.2888 -0.1336 -0.1725
18786W        W34860  16.108   6.609  11.412 -0.1841 -0.1507  0.1611
18787W        W34861  17.286  13.850   4.760  0.4277  0.0731  0.2664
18788W        W34862   7.968   2.887  12.074 -0.0820  0.0241  0.1064
18789W        W34863   2.772  14.089   3.973  0.1330  0.0293 -0.0371
18790W        W34864  10.518  17.402  12.535 -0.0525 -0.0714 -0.0787
18791W        W34865  12.643  18.619   0.267 -0.1275 -0.1000 -0.1548
18792W        W34866   2.465   2.311  13.474 -0.1581  0.0794 -0.1167
18793W        W34867   6.702  18.272  10.302 -0.1016 -0.2580  0.0038
18794W        W34868   6.833  15.331  13.823 -0.2775  0.0595  0.0199
18795W        W34869  15.151  16.805   5.731  0.2963  0.1093 -0.0250
18796W        W34870  14.122  18.603   3.711 -0.0260 -0.2367  0.2782
18797W        W34871   1.574  12.075  11.905  0.0521  0.3290 -0.1620
18798W        W34872  14.012  13.637   1.790 -0.0189 -0.0743 -0.1613
18799W        W34873  18.478  13.719   2.566 -0.0861  0.0081  0.0041
18800W        W34874   4.288  16.401   3.697 -0.0822 -0.5296  0.0255
18801W        W34875  10.869   5.229  14.475  0.2827 -0.2228 -0.0478
18802W        W34876   1.878  10.443  12.707 -0.1535 -0.0072 -0.0548
18803W        W34877   0.754   3.716  12.227 -0.1267  0.1579  0.0933
18804W        W34878  12.108  15.293  14.400 -0.3451 -0.0762  0.2979
18805W        W34879  10.155   9.181  14.074  0.0009  0.1139 -0.0964
18806W        W34880   6.078  18.026  11.320 -0.1643 -0.0236 -0.1980
18807W        W34881  15.240   8.009  14.695 -0.1982  0.4541  0.1001
18808W        W34882  18.213   2.372   0.006 -0.0540  0.0814 -0.1146
18809W        W34883  10.433  13.892  14.501  0.0882  0.2971  0.1345
18810W        W34884   4.495  10.760  13.508  0.1733 -0.2155  0.3638
18811W        W34885   5.645   0.220   4.535 -0.0906 -0.0967  0.1147
18812W        W34886   4.638   5.242   0.253 -0.1469 -0.3485  0.4610
18813W        W34887   1.953  17.390   0.255 -0.2265 -0.1170 -0.3511
18814W        W34888  14.754  15.908   0.872 -0.0762 -0.2637  0.0743
18815W        W34889  13.734   9.662   2.584  0.1780 -0.0808  0.2341
18816W        W34890   1.509   6.759   3.882 -0.0430 -0.0872 -0.2013
18817W        W34891   7.496  13.782  11.154 -0.1785  0.2532 -0.2465
18818W        W34892   0.604  13.604  12.423  0.0892  0.1431  0.0375
18819W        W34893   0.031  14.397   2.432 -0.2453 -0.1200 -0.3750
18820W        W34894   1.946  14.212  12.894  0.0334  0.1976  0.4260
18821W        W34895  17.115  11.210   4.543 -0.0009  0.2139 -0.2670
18822W        W34896   2.469  11.114   1.638  0.2047 -0.1782  0.0912
18823W        W34897  13.781  12.355   0.486  0.2802 -0.0087 -0.0145
18824W        W34898   6.615   7.038   2.554 -0.1589  0.0084  0.1888
18825W        W34899   8.553  14.081   3.868 -0.2600  0.1350  0.2086
18826W        W34900  11.380   7.182  12.663  0.2549 -0.1337 -0.2627
18827W        W34901   3.653   6.071   0.714  0.1163 -0.0506  0.2036
18828W        W34902   4.446   9.380   2.818  0.0696  0.0864  0.1913
18829W        W34903  11.186  16.021   0.082 -0.0680  0.0441 -0.2910
18830W        W34904  14.054   9.904  12.030 -0.2312 -0.0363  0.0797
18831W        W34905   0.946   8.478  14.541  0.0593  0.1880 -0.1087
18832W        W34906  18.752   5.171   2.299  0.2004  0.2512  0.1940
18833W        W34907  13.381  12.865  14.929 -0.0942  0.3338  0.5409
18834W        W34908  16.371   6.020  12.040  0.3828  0.0298 -0.3016
18835W        W34909  10.321   8.863   1.004 -0.3243 -0.1153 -0.0639
18836W        W34910  12.603  18.998  11.460 -0.2022 -0.0269 -0.0102
18837W        W34911   1.861  14.506   3.115 -0.1318 -0.0593  0.1621
18838W        W34912   6.644  11.397   0.208 -0.4387  0.1278  0.0109
18839W        W34913   5.760  16.823  12.268  0.1130 -0.0692 -0.1386
18840W        W34914  10.121   7.869   0.112  0.0269 -0.0888 -0.0861
18841W        W34915  15.550  14.170   1.435  0.0594 -0.3892 -0.1249
18842W        W34916   9.450   2.903  14.207 -0.1712 -0.1868 -0.0425
18843W        W34917   8.967  15.672  12.487  0.0529  0.2839  0.3044
18844W        W34918   9.674   0.230   3.327 -0.1705  0.3348  0.0652
18845W        W34919   4.269  10.793  14.962 -0.1846 -0.0406 -0.0280
18846W        W34920   4.584   6.597  10.534  0.1453 -0.1188  0.1213
18847W        W34921   0.795   5.235  13.355  0.1909  0.0858  0.1457
18848W        W34922  18.368   8.261  13.395 -0.1818 -0.1004  0.1944
18849W        W34923   4.585   5.356  11.164 -0.1381 -0.0605  0.0932
18850W        W34924  15.105   6.763  13.781 -0.2604 -0.2673 -0.4494
18851W        W34925   6.589  18.647  13.278  0.0319  0.0689 -0.0012
18852W        W34926   8.624  14.665  10.999  0.2368  0.1064  0.2145
18853W        W34927  18.165   7.963   3.244  0.1355  0.1230  0.0717
18854W        W34928  14.207   5.532  14.378  0.3337  0.1546 -0.0476
18855W        W34929   8.585  13.575   2.703 -0.0857  0.0386  0.1251
18856W        W34930  13.282  14.912  10.628 -0.2008 -0.1496  0.2229
18857W        W34931  15.997  10.101  14.938  0.1760  0.3266 -0.2360
18858W        W34932  10.777   8.773   3.634  0.1926 -0.0867 -0.2110
18859W        W34933   7.194   6.995  10.931 -0.0369 -0.2525 -0.0480
18860W        W34934  17.284  11.630   4.362  0.1694 -0.0252 -0.0507
18861W        W34935  14.062   5.404  10.216 -0.8452  0.3302  0.2847
18862W        W34936   0.911   5.039   3.804  0.1682 -0.1045 -0.1190
18863W        W34937  14.010   9.137   3.932 -0.0001 -0.2194  0.2930
18864W        W34938  18.782  13.953  11.735 -0.2657 -0.0966  0.0938
18865W        W34939   1.166   7.737   0.583  0.4342 -0.2680  0.1582
18866W        W34940   2.003   3.637   0.159 -0.1127  0.1843  0.0517
18867W        W34941  19.076  12.016  12.054  0.0612 -0.2770 -0.0040
18868W        W34942  15.193  18.499   4.546 -0.0031 -0.0849  0.2629
18869W        W34943  18.099   4.653   3.363  0.2680  0.0392  0.2808
18870W        W34944  12.112   0.782   0.221 -0.1453  0.0064  0.2731
18871W        W34945  14.962  12.154   2.284 -0.2525 -0.2704  0.0275
18872W        W34946  19.214   2.470  13.225  0.3753  0.0854 -0.1516
18873W        W34947   5.977  12.471  11.176 -0.0510  0.0324 -0.3238
18874W        W34948   6.576   9.095   2.594 -0.3554  0.1066 -0.2400
18875W        W34949  17.470   4.464  11.181 -0.1854  0.1645 -0.0494
18876W        W34950   2.290   0.434   9.421  0.0818  0.1604  0.0243
18877W        W34951  16.304  18.852   5.821  0.1006  0.2435  0.0570
18878W        W34952   5.629   8.620  12.124  0.0778  0.0048 -0.1450
18879W        W34953   0.713  17.171  12.787  0.2102  0.1637 -0.2545
18880W        W34954   4.394   6.696  10.056 -0.0577  0.1492  0.1743
18881W        W34955   8.059   0.378   0.279 -0.1863  0.0142 -0.2335
18882W        W34956  10.888   6.112   1.629  0.1485  0.0119 -0.0826
18883W        W34957   8.277   7.011  14.232 -0.0943 -0.1668  0.2355
18884W        W34958  13.780  17.333  14.525  0.0996 -0.1169 -0.1310
18885W        W34959   3.193  14.638   2.124  0.1909 -0.0700  0.0607
18886W        W34960  10.842   1.563  10.955  0.0390  0.2061  0.0341
18887W        W34961  12.679  18.811   5.253 -0.1059  0.0149  0.0312
18888W        W34962   7.238   2.967   0.478  0.2079  0.3633 -0.3448
18889W        W34963  13.185   6.573  11.019  0.1087 -0.1633  0.0913
18890W        W34964   0.311  16.428  14.591  0.0785  0.1151  0.0183
18891W        W34965   5.812  14.115   2.692 -0.0703 -0.1192 -0.3996
18892W        W34966   4.433  12.795   5.883 -0.0169 -0.0308 -0.1389
18893W        W34967  19.104  19.143  12.582 -0.0114 -0.1510 -0.1622
18894W        W34968  14.442  15.165   2.920  0.0639  0.2747 -0.2292
18895W        W34969   8.086  10.912   5.251  0.0294  0.1689  0.3944
18896W        W34970  14.358  12.073  13.950  0.0108 -0.0993  0.0560
18897W        W34971  16.432   0.492   1.512 -0.2644  0.1064 -0.2100
18898W        W34972   1.308   7.232  14.485 -0.0654 -0.3032 -0.1845
18899W        W34973  11.716  17.967  10.437  0.1330 -0.0854 -0.1121
18900W        W34974   6.621   6.223  11.036 -0.0175 -0.1856 -0.1180
18901W        W34975  16.893  13.263  13.390 -0.2255  0.0329  0.1366
18902W        W34976  18.144   9.821   1.756  0.0832  0.0524 -0.1491
18903W        W34977  12.149  13.967  14.347  0.2523  0.1309  0.1847
18904W        W34978  15.601   1.155  13.828 -0.1219  0.0031  0.4002
18905W        W34979  15.134   2.687  12.635 -0.2313  0.1983 -0.1561
18906W        W34980   3.868  12.643  10.054 -0.0191  0.3422 -0.0334
18907W        W34981  16.784   9.643   5.133 -0.3096 -0.3673 -0.2370
18908W        W34982  17.386   3.584   5.971  0.1914  0.0559  0.1459
18909W        W34983  17.988   2.885   1.357 -0.3971  0.1339  0.1853
18910W        W34984   8.512  19.085  12.968 -0.1758 -0.0563  0.1356
18911W        W34985   0.253  17.372   4.704  0.2245 -0.0456 -0.0965
18912W        W34986  18.903   4.550   3.175 -0.3678 -0.1105  0.1854
18913W        W34987   6.135   7.531   3.377  0.0821 -0.1398 -0.1203
18914W        W34988   7.797  10.839   2.916  0.0391  0.2966  0.0629
18915W        W34989   5.679   4.793  13.650 -0.0548  0.2683  0.0729
18916W        W34990  15.800  10.909  12.778 -0.2368  0.1540  0.0458
18917W        W34991  17.103   3.010  11.284  0.0511 -0.0836  0.0730
18918W        W34992   5.604  14.891   1.511  0.1327 -0.2448 -0.0876
18919W        W34993  18.556  10.919  13.662 -0.0030 -0.0969  0.1727
18920W        W34994  15.759   3.704   3.022 -0.1047 -0.0123  0.0842
18921W        W34995  11.463  19.107   1.116 -0.0739  0.1051 -0.2038
18922W        W34996  11.862  15.572  13.808  0.0528  0.1388 -0.0752
18923W        W34997   1.085  14.004  14.904  0.0096  0.1059  0.2479
18924W        W34998  12.689  17.010   9.936 -0.2022  0.1094  0.0831
18925W        W34999   8.419  13.743  10.774 -0.1309 -0.1130 -0.5158
18926W        W35000  16.594  11.289   0.252  0.2550  0.2550  0.0883
18927W        W35001   8.576   9.816   4.738 -0.3715 -0.0044  0.2053
18928W        W35002  16.017   7.289   0.928 -0.2084 -0.1815  0.0884
18929W        W35003   9.481   3.021   3.486 -0.1672  0.0104 -0.3632
18930W        W35004   4.103  14.777   0.233  0.2176  0.0502 -0.2960
18931W        W35005  18.221  17.365  13.903 -0.0287  0.0897 -0.2076
18932W        W35006  15.113   4.574  14.829 -0.3309 -0.0807 -0.1943
18933W        W35007  10.688   3.403  14.038 -0.2523 -0.0575  0.1210
18934W        W35008   6.476  10.044  13.191  0.0700 -0.2166  0.0881
18935W        W35009  13.676  15.884   9.590 -0.2734 -0.1449 -0.1055
18936W        W35010   3.553   4.600   0.347  0.1791  0.1693 -0.2547
18937W        W35011   9.128   0.604   1.278  0.0788  0.0204  0.0340
18938W        W35012  11.833   1.581  13.628  0.0135 -0.2332 -0.0461
18939W        W35013   1.680  13.299   0.438 -0.3316  0.3464  0.1153
18940W        W35014  17.807  13.890  14.137  0.0726 -0.0035 -0.0336
18941W        W35015  16.509   5.256   1.015  0.2395  0.0432 -0.0391
18942W        W35016   1.657  14.268   4.251 -0.0716 -0.1146  0.0538
18943W        W35017  18.527  11.680   1.330  0.3324 -0.1763  0.0775
18944W        W35018   0.547  14.480  14.227  0.0912  0.3585  0.1878
18945W        W35019   8.334  18.938   4.864 -0.0489  0.2479 -0.4566
18946W        W35020  16.819  19.162  14.632  0.0166 -0.0900  0.3768
18947W        W35021  16.148  17.523   0.493  0.0706  0.3376 -0.1670
18948W        W35022   3.063  15.807  11.082 -0.3810 -0.1968  0.0471
18949W        W35023  16.745   1.131   3.860 -0.0185  0.1914  0.0368
18950W        W35024   1.239   9.736   1.052  0.0425 -0.2646 -0.1403
18951W        W35025   1.456  14.954   0.611 -0.2321 -0.1385 -0.2298
18952W        W35026   0.204  17.598  15.001  0.0472 -0.6263  0.0319
18953W        W35027  17.153   5.351   0.151  0.0841 -0.2100 -0.1840
18954W        W35028   3.262   0.294   4.200  0.1624  0.1779 -0.1000
18955W        W35029   8.386  16.995   1.327  0.0068  0.0123  0.1249
18956W        W35030  16.330  16.256  10.625  0.2445  0.2271  0.1167
18957W        W35031  10.175  14.328   4.728 -0.3997  0.0181  0.0165
18958W        W35032  12.185   7.071   5.435 -0.0813  0.0400 -0.0289
18959W        W35033   7.992   3.644   4.657 -0.1771  0.0783 -0.1946
18960W        W35034   0.964  10.104   4.035 -0.1279 -0.0389 -0.0433
18961W        W35035  17.380   0.815  11.424  0.1443 -0.1525 -0.1885
18962W        W35036   6.505  14.595   2.671 -0.2225  0.2828  0.0494
18963W        W35037  18.908   9.168  14.827  0.0026 -0.0650  0.1063
18964W        W35038  11.393  11.039   0.658  0.2067  0.0114 -0.1384
18965W        W35039  10.406  14.077   0.556  0.1012  0.0610 -0.0315
18966W        W35040   9.660  15.839   0.460  0.1094  0.0800  0.2936
18967W        W35041   1.104   3.714   4.734 -0.4281  0.3164  0.1723
18968W        W35042  10.888   9.152  11.024  0.0832  0.0355 -0.1377
18969W        W35043  16.104  13.501  11.921  0.4833 -0.1139  0.1467
18970W        W35044   9.819  16.262   1.200 -0.2322  0.0198 -0.1739
18971W        W35045   9.927   6.771   0.972 -0.1249  0.0742 -0.1332
18972W        W35046  15.815  12.656   4.575  0.0690  0.2649  0.0576
18973W        W35047   7.686   0.251   1.540  0.0441 -0.4422  0.5397
18974W        W35048   2.756  12.601   3.537 -0.3393  0.1381  0.0842
18975W        W35049  18.327   3.151   4.314  0.1576 -0.2512 -0.0563
18976W        W35050   3.664   7.211   0.069  0.2118  0.0224  0.1844
18977W        W35051   2.741   6.481   4.346  0.0581 -0.0905  0.1129
18978W        W35052   9.634   0.392  12.438 -0.2737 -0.3934 -0.0188
18979W        W35053   3.329  10.652   6.235  0.4002  0.1302 -0.0799
18980W        W35054  13.006   7.648  12.510 -0.0584  0.0852 -0.0096
18981W        W35055   4.889   1.339  13.024  0.0290 -0.0657  0.0373
18982W        W35056  16.171  13.770   0.183  0.0917 -0.0673  0.1489
18983W        W35057  11.183  16.035  13.084 -0.1387 -0.1565 -0.0769
18984W        W35058  13.345   0.070   9.680 -0.0761  0.0367  0.4308
18985W        W35059  18.011   6.308   1.150 -0.1438 -0.0942 -0.0872
18986W        W35060  13.989  11.322  13.369 -0.1160  0.0112  0.2928
18987W        W35061  16.061   9.960  13.692 -0.3894  0.0606 -0.0001
18988W        W35062  17.072   9.323   5.960 -0.0493  0.1773 -0.2026
18989W        W35063   8.844   9.069  14.781  0.1018 -0.0939  0.1347
18990W        W35064   7.783  11.812  10.143  0.0075 -0.1513  0.0373
18991W        W35065   8.694  10.068   3.539 -0.0938 -0.0567 -0.1614
18992W        W35066   1.531  14.735  14.281  0.0197 -0.1701  0.2445
18993W        W35067  16.530  10.118   0.980  0.2294 -0.0266 -0.0967
18994W        W35068   9.210   9.592   2.987 -0.1917 -0.2746 -0.0116
18995W        W35069  13.618  12.820   0.622 -0.0703 -0.2430  0.4068
18996W        W35070   1.565  16.817   5.173  0.2286  0.1185 -0.1818
18997W        W35071  15.098   7.039   2.960 -0.2380 -0.0566 -0.3583
18998W        W35072  12.439  11.946  10.706 -0.3691 -0.1691  0.2517
18999W        W35073   5.798  14.390  12.393  0.2463  0.1920 -0.4095
19000W        W35074   7.981  13.427  13.146  0.1603  0.0410 -0.2030
19001W        W35075  12.712  12.282   2.382  0.3653 -0.1789 -0.1207
19002W        W35076   6.198   0.811  11.212 -0.0512 -0.1709 -0.0061
19003W        W35077  10.080  18.806  11.854 -0.4176  0.4141  0.0452
19004W        W35078  14.730   8.860  12.777  0.0623  0.1933 -0.0237
19005W        W35079   3.304  11.514  13.947  0.1599  0.0219 -0.0554
19006W        W35080   6.252   6.405   0.580  0.0275 -0.1433 -0.0393
19007W        W35081  12.980   9.937   3.125 -0.1310  0.0243 -0.0015
19008W        W35082   8.999   0.102  14.373 -0.3643  0.3508  0.3845
19009W        W35083   4.083   1.979   0.114 -0.3293 -0.2822 -0.0112
19010W        W35084  15.216  17.527  12.274  0.3942 -0.0111 -0.0368
19011W        W35085   9.377  15.010  12.210  0.0613  0.0906 -0.0751
19012W        W35086  16.237  17.951  11.485  0.1434  0.1198 -0.1430
19013W        W35087   8.390   4.007   2.737 -0.4002 -0.1616  0.1142
19014W        W35088   9.860  14.434   2.874  0.1026 -0.0649 -0.0406
19015W        W35089  10.549   2.141   1.556 -0.0665  0.0611 -0.5790
19016W        W35090   3.176   0.078  12.921 -0.1561  0.1106 -0.0312
19017W        W35091  11.577  16.491   3.079 -0.0333  0.0761 -0.0147
19018W        W35092   7.560  19.271   2.675  0.0067 -0.2993 -0.0208
19019W        W35093   2.608  14.283   4.400 -0.1219 -0.4592  0.2605
19020W        W35094   0.896   1.287  13.823 -0.2962  0.2078  0.4378
19021W        W35095   1.161  13.860  12.564 -0.0069 -0.1901  0.0806
19022W        W35096  15.199  14.664  14.747  0.1578  0.1747 -0.2135
19023W        W35097  14.799  18.821  11.743 -0.0809  0.1393  0.0674
19024W        W35098  13.149   1.286   1.675 -0.0043  0.1038 -0.2586
19025W        W35099   9.853  12.825   2.319  0.1233  0.1670  0.0191
19026W        W35100   9.343  15.750   8.608 -0.2195  0.2323 -0.0341
19027W        W35101  12.054  13.850   0.609  0.4292  0.0717 -0.0560
19028W        W35102  10.620  14.674   4.501  0.1923 -0.1429  0.2907
19029W        W35103   8.413  19.075  10.970 -0.2546  0.1878  0.2280
19030W        W35104   2.750  16.587   3.244  0.0873  0.1811  0.0589
19031W        W35105   2.672   9.072  11.360  0.0775  0.0005  0.2630
19032W        W35106  15.128   7.153  14.607  0.2542  0.1256 -0.0476
19033W        W35107   7.610   5.919   4.884 -0.0481  0.1902  0.0794
19034W        W35108   5.581   1.970   0.092  0.1344 -0.0958 -0.1256
19035W        W35109  14.493  10.751   2.153  0.1315  0.1162  0.0780
19036W        W35110   7.773   7.525   5.175 -0.1372  0.2216 -0.0645
19037W        W35111  15.441   2.785  14.467 -0.3199 -0.0306  0.1918
19038W        W35112   3.677   2.063   2.915 -0.0448 -0.2162 -0.2314
19039W        W35113   7.326   8.289  14.954  0.1805 -0.4919 -0.1128
19040W        W35114  15.615  19.238   3.424 -0.0703 -0.0040 -0.1214
19041W        W35115  10.722   8.286   2.029  0.1946  0.1555 -0.2026
19042W        W35116  13.155  12.687  13.971 -0.4260  0.1301 -0.0997
19043W        W35117  18.462   5.991  12.501 -0.0959  0.1086  0.0953
19044W        W35118  13.430  10.078   2.588 -0.2147  0.0508 -0.1283
19045W        W35119   1.796  16.926  11.059  0.1094  0.3008  0.2728
19046W        W35120  18.445   1.457   2.287 -0.1801 -0.2448  0.4410
19047W        W35121   5.730  11.057  13.440 -0.3237 -0.0225  0.0543
19048W        W35122   0.221  17.749  12.242 -0.0247 -0.2448  0.1140
19049W        W35123  12.511  10.778  14.024 -0.0252 -0.3499  0.3114
19050W        W35124  11.409   7.945   2.774  0.0164  0.2546  0.4175
19051W        W35125  10.721  10.312   3.668 -0.1079  0.3226 -0.2709
19052W        W35126   4.509  17.032   3.696  0.1225 -0.2533  0.0424
19053W        W35127   9.429  14.156   2.705 -0.1927 -0.2368  0.1532
19054W        W35128  19.027   6.855   5.413 -0.1229 -0.0486  0.0866
19055W        W35129   2.075   0.117  14.709 -0.0384  0.0775 -0.0401
19056W        W35130  11.716   0.886  12.959  0.0253  0.0032  0.0502
19057W        W35131  11.769  13.792  12.783 -0.0439  0.2151 -0.2760
19058W        W35132  13.553  13.275   2.535 -0.3575 -0.1131 -0.3139
19059W        W35133   9.854   9.728   2.431  0.0958 -0.2691  0.2646
19060W        W35134  13.476  18.651   0.890 -0.1415 -0.0396  0.2217
19061W        W35135   5.760   9.178   3.151 -0.0546  0.3420 -0.1996
19062W        W35136  18.873   3.559   1.068  0.2882 -0.3601  0.1313
19063W        W35137  14.706  14.841   4.360  0.1059 -0.1176  0.1046
19064W        W35138  17.589   4.817   3.495  0.1973 -0.0227 -0.0303
19065W        W35139   4.091   5.636  13.937 -0.0349  0.1309  0.0321
19066W        W35140   4.534  12.216   4.529  0.0106 -0.0117  0.2012
19067W        W35141   9.226  12.874   3.933 -0.0167 -0.0278  0.1450
19068W        W35142   4.357   8.876   0.762 -0.1894 -0.1141  0.1109
19069W        W35143   3.947   6.696   3.568  0.7673 -0.1355 -0.0142
19070W        W35144  10.039   0.556   4.313  0.2565 -0.0240  0.1389
19071W        W35145   2.507  11.535  12.423  0.0387  0.1134 -0.4909
19072W        W35146  11.099   0.210  14.405  0.0385  0.2642 -0.1956
19073W        W35147  14.743   6.118   1.310 -0.2996 -0.1522 -0.0349
19074W        W35148  10.234   9.479   2.105  0.2312 -0.0757 -0.0459
19075W        W35149   8.109   0.621   1.055 -0.0230 -0.2129  0.0472
19076W        W35150   2.735   1.000  10.496  0.4907  0.0135  0.0820
19077W        W35151   9.598  18.105   4.110 -0.0166  0.0255  0.1687
19078W        W35152  10.848  13.644   2.601 -0.3613  0.0228  0.2336
19079W        W35153  19.248  13.113   2.626 -0.0837 -0.0152  0.0858
19080W        W35154   3.151   6.580  10.923 -0.1256  0.1050  0.0693
19081W        W35155   1.966   5.990   4.687  0.0977 -0.0687 -0.2369
19082W        W35156   5.614   7.909   2.034 -0.1991  0.1965  0.0839
19083W        W35157  18.052   0.854   3.858 -0.0065 -0.0025  0.0691
19084W        W35158   7.951   4.033  14.152  0.0743 -0.2033  0.0006
19085W        W35159   2.601   9.431  14.057  0.0821 -0.2903 -0.1144
19086W        W35160   7.226  14.881  12.750 -0.2713 -0.1287 -0.0076
19087W        W35161  13.452   1.069  11.306 -0.2611  0.1097 -0.1341
19088W        W35162  17.058   6.894   0.423  0.1038  0.0228 -0.2038
19089W        W35163   1.216  16.338   2.645 -0.3096  0.4849 -0.1161
19090W        W35164  14.643   2.972  12.824  0.2534 -0.1688 -0.0755
19091W        W35165   7.683   1.306   4.200 -0.1854 -0.5115 -0.0875
19092W        W35166  15.068  18.363  11.784  0.1235 -0.0773  0.3321
19093W        W35167  12.672  18.903  10.226 -0.1027 -0.2239 -0.1091
19094W        W35168  15.748   9.002  13.177  0.0030  0.0141 -0.1476
19095W        W35169  12.313  16.818  13.260 -0.0271 -0.4560 -0.0422
19096W        W35170   8.995  19.305   0.571 -0.2948  0.0296  0.0827
19097W        W35171  19.083   8.930   2.529 -0.0046 -0.1435 -0.0242
19098W        W35172   4.786  18.368   1.510  0.3248 -0.3532  0.0742
19099W        W35173  13.843  12.478  11.388 -0.0327 -0.3318  0.1338
19100W        W35174   7.010  12.142   9.970  0.1545 -0.1925 -0.1654
19101W        W35175   6.615   3.981  13.669 -0.2533  0.1169 -0.1247
19102W        W35176  18.292  18.182   4.389  0.0153  0.0593  0.2243
19103W        W35177  15.255  15.970   1.861  0.2164 -0.3478  0.0364
19104W        W35178   6.773   0.336  11.837 -0.3186  0.2031  0.1227
19105W        W35179   2.494  10.916   4.381  0.2312 -0.0097 -0.1735
19106W        W35180  18.370   2.778   0.940 -0.1037 -0.1115 -0.0649
19107W        W35181   6.147  17.924  14.862  0.2403  0.1802  0.2177
19108W        W35182   8.550  15.596   1.739  0.1661  0.1911 -0.0595
19109W        W35183  14.275   4.239  14.903 -0.0308  0.0110 -0.0685
19110W        W35184  17.524   0.241  13.095  0.1125  0.0239 -0.3027
19111W        W35185   4.461   5.322  14.665 -0.1982  0.2444 -0.0053
19112W        W35186  13.648  13.101   5.038 -0.1379 -0.0016 -0.2769
19113W        W35187  17.737   9.672   3.688  0.1695 -0.0526  0.0993
19114W        W35188  14.217  16.141  13.293 -0.1447 -0.0584 -0.2905
19115W        W35189   2.077   1.166  14.419 -0.1308  0.1750  0.2308
19116W        W35190  12.820   9.789   2.133  0.0250  0.1129  0.0915
19117W        W35191   3.773   9.766   1.362 -0.1941 -0.0127 -0.0271
19118W        W35192  18.313  10.063  12.465  0.2962  0.0391 -0.0131
19119W        W35193   3.679  15.969  11.768  0.0713 -0.1990 -0.1218
19120W        W35194  17.223  18.966   6.219  0.0812  0.2051 -0.0396
19121W        W35195  12.706   5.310   1.191  0.0119 -0.0759  0.1053
19122W        W35196  18.581  13.622  10.782 -0.0744  0.1206  0.1077
19123W        W35197   3.782   7.781  13.285 -0.0008 -0.1331  0.1373
19124W        W35198  10.491  17.880   0.279  0.0132 -0.3591 -0.1224
19125W        W35199  14.896  11.057  14.650  0.0683 -0.1305 -0.0090
19126W        W35200   1.389   2.123  11.924 -0.0449 -0.0491  0.0560
19127W        W35201   2.443  16.994  13.898  0.2563  0.0023  0.0951
19128W        W35202   2.395  12.978   0.187 -0.1647 -0.0388 -0.0273
19129W        W35203   6.163  15.422   0.230 -0.1255 -0.2785 -0.1651
19130W        W35204  11.946   3.741  11.109 -0.0087 -0.1684  0.5449
19131W        W35205   3.570   7.776   3.508 -0.0868  0.0721  0.0921
19132W        W35206   3.957  11.818   4.720  0.0574 -0.2864  0.0523
19133W        W35207  14.667  14.297   0.434  0.3636 -0.3366  0.0486
19134W        W35208   2.292  16.296   0.491  0.0216  0.1831 -0.4687
19135W        W35209  11.312  16.607  14.869  0.0679  0.1726  0.0644
19136W        W35210  12.083   5.264   0.584 -0.1133 -0.3886 -0.2234
19137W        W35211   8.417   8.309   9.963  0.2261 -0.2209  0.2701
19138W        W35212   3.390  10.818   4.761  0.2268 -0.0125 -0.1185
19139W        W35213  18.216  12.274   3.021  0.2374  0.1165 -0.0052
19140W        W35214  11.169  10.306   3.856 -0.0061  0.0431  0.0994
19141W        W35215  12.228   5.046  11.455 -0.0167  0.0790  0.0489
19142W        W35216  14.989  12.437   0.033 -0.1166 -0.0931  0.1447
19143W        W35217  14.428   2.218   3.313  0.0185  0.0999  0.1347
19144W        W35218  11.028  16.410  11.882 -0.0334 -0.1009 -0.2065
19145W        W35219  10.700   4.140  11.731 -0.0674  0.3144  0.0269
19146W        W35220  18.703   5.918  14.524 -0.1042  0.0872  0.1124
19147W        W35221   4.010   3.494  10.326  0.4107  0.1298  0.0065
19148W        W35222  17.467  16.958   2.055  0.1624 -0.2556 -0.0356
19149W        W35223   8.199   8.656   1.938 -0.2013  0.1319  0.4052
19150W        W35224   1.430   7.300  14.947  0.2227  0.1440  0.1590
19151W        W35225  19.298   5.328  14.483  0.2530  0.2580 -0.0176
19152W        W35226  13.156  12.388   1.653  0.0580  0.1559  0.0950
19153W        W35227   5.360  18.833  11.981 -0.0415 -0.1798 -0.2177
19154W        W35228  12.395   0.472  14.256  0.0555 -0.0481 -0.0028
19155W        W35229  12.358  10.579  11.986  0.2337  0.4755  0.2557
19156W        W35230   8.413  15.331   0.705  0.2368  0.3279  0.0122
19157W        W35231  14.412  15.234   5.658  0.2861 -0.0333  0.0596
19158W        W35232   2.782   5.753  14.365  0.1299  0.0456 -0.2013
19159W        W35233   4.949   9.219   3.681  0.0140 -0.3024 -0.3535
19160W        W35234  14.985  17.135  11.437  0.0501 -0.0794  0.4214
19161W        W35235   6.771  19.328  10.084 -0.1684  0.0390  0.0182
19162W        W35236  15.097   4.191   2.648 -0.0561 -0.0828  0.2803
19163W        W35237  13.440   4.334   3.577  0.0348 -0.1469  0.1974
19164W        W35238  11.774  13.171  12.081 -0.2093  0.2454 -0.0258
19165W        W35239   4.819  13.208   3.579 -0.1088 -0.1238 -0.0579
19166W        W35240   2.563   1.682  11.850 -0.4547  0.0518 -0.1845
19167W        W35241  13.810  11.370  12.812 -0.3345 -0.1524 -0.2401
19168W        W35242   9.326  11.751   3.561  0.1025 -0.1022  0.1408
19169W        W35243   1.799  18.193  11.532 -0.0198 -0.2322 -0.3220
19170W        W35244   7.923  11.709   3.036  0.0500 -0.2819  0.1830
19171W        W35245   3.073   3.681   4.565  0.1429 -0.0004  0.2239
19172W        W35246  10.542   2.074  13.766 -0.2022  0.2194  0.1857
19173W        W35247  17.954   8.858  14.122 -0.1520  0.0622 -0.0888
19174W        W35248  11.888   2.815  10.630  0.2766  0.0326 -0.0163
19175W        W35249  14.862  16.903  12.590 -0.2169 -0.1130 -0.2819
19176W        W35250   9.885   8.002  14.244 -0.2063  0.0590 -0.1063
19177W        W35251   2.005   5.980  13.982 -0.1549  0.1321  0.0691
19178W        W35252  14.763  15.246   1.498 -0.1965 -0.0271  0.0888
19179W        W35253   2.426  15.147  12.736 -0.0829 -0.3229 -0.0525
19180W        W35254   2.880   9.136   4.377  0.1278  0.1838 -0.4626
19181W        W35255   0.291   1.694   4.046 -0.0664  0.2315 -0.0030
19182W        W35256  12.400  13.225  11.658 -0.2170 -0.1357 -0.2328
19183W        W35257   5.925  13.870   0.898 -0.0895  0.0352 -0.1390
19184W        W35258  11.834   1.613   0.464 -0.2113  0.1725  0.2569
19185W        W35259  16.451   9.001  13.024  0.2135 -0.1732  0.0007
19186W        W35260   1.957  17.271   0.843  0.2326 -0.0430  0.2250
19187W        W35261   9.264   9.857   2.491 -0.1075  0.0442  0.2322
19188W        W35262  11.875   8.024   1.182 -0.0086 -0.3003 -0.3072
19189W        W35263  12.153  16.377   0.224  0.3077  0.0946 -0.2208
19190W        W35264  12.268  10.695   0.127  0.0294  0.2296  0.0372
19191W        W35265   0.598   1.367   4.244 -0.1290  0.0546 -0.0415
19192W        W35266  14.994   8.433   4.190 -0.2837  0.0656 -0.1279
19193W        W35267  16.777  10.304  10.061  0.1090  0.1877  0.0663
19194W        W35268  18.446  15.980   0.963 -0.2453  0.1565 -0.0880
19195W        W35269   8.365  12.259  13.969  0.0655 -0.0397  0.2175
19196W        W35270   0.068  14.712   1.194 -0.0917 -0.0935  0.3186
19197W        W35271  11.866   3.642   1.990  0.3898  0.3295 -0.2288
19198W        W35272   2.366  10.720   3.339  0.0411 -0.0526 -0.1194
19199W        W35273  15.432  16.990  10.498 -0.2991 -0.0217 -0.0401
19200W        W35274   1.658   1.404  14.574 -0.1100 -0.0200  0.1349
19201W        W35275  11.516  18.997  11.364  0.0132 -0.2099  0.0107
19202W        W35276   0.446   8.476   0.691  0.1880 -0.0938 -0.1274
19203W        W35277  12.597  17.278   3.133 -0.0902  0.0694 -0.1828
19204W        W35278  17.415  18.807   4.955 -0.1108 -0.1279  0.2187
19205W        W35279   2.662  14.862   2.016  0.0576 -0.0010  0.0948
19206W        W35280   8.800   7.133   2.778  0.3760  0.1878  0.2327
19207W        W35281  13.913   9.917   0.815 -0.2496 -0.1314  0.2152
19208W        W35282  13.979  16.648   5.543  0.2397  0.2706  0.3805
19209W        W35283   7.925   7.340  12.984 -0.2717 -0.0219  0.3419
19210W        W35284   8.217  10.022   3.818  0.0719  0.3188  0.0885
19211W        W35285   0.841  16.534   5.652  0.3392 -0.0861 -0.3822
19212W        W35286  16.542   4.601   2.141 -0.0533  0.0493  0.1039
19213W        W35287  17.550  15.810  14.488 -0.1660 -0.1759  0.0740
19214W        W35288   1.458  18.311  14.675  0.0295  0.1417  0.1172
19215W        W35289   8.827   3.371   2.366 -0.1142  0.1081  0.1264
19216W        W35290   9.750  11.100   4.071 -0.0773 -0.0654 -0.1274
19217W        W35291   9.649   7.833   0.975  0.2450  0.1506 -0.0688
19218W        W35292  16.258   2.362   1.312  0.2720  0.2012 -0.0427
19219W        W35293  12.482   8.427  14.954 -0.0370 -0.0494  0.0824
19220W        W35294  16.239   9.717   4.215 -0.2080  0.1311 -0.4280
19221W        W35295   8.541  13.673  10.331 -0.0302  0.0937  0.1296
19222W        W35296   2.250  16.523   3.970 -0.1098  0.0998  0.0504
19223W        W35297   6.004   1.040   4.109 -0.2844 -0.0175 -0.2084
19224W        W35298  14.121  14.821   4.279  0.2705  0.4032  0.1639
19225W        W35299  18.054  12.043  14.182 -0.2355 -0.0784  0.0161
19226W        W35300  13.867  13.651  12.731  0.1289  0.1179  0.0255
19227W        W35301   5.176   5.883  10.510  0.0181  0.0613  0.3981
19228W        W35302  11.358   7.715  14.565  0.1637  0.2606 -0.0786
19229W        W35303   8.073   4.566   4.444  0.4527  0.1289 -0.3759
19230W        W35304   9.540   1.749   0.237 -0.0537 -0.3181 -0.0126
19231W        W35305   7.737  15.332  12.741  0.0891  0.0407 -0.1245
19232W        W35306   3.467   2.836   0.447  0.2262  0.1861 -0.0927
19233W        W35307   5.340  11.160   4.618  0.3237  0.1699 -0.0020
19234W        W35308   7.719  18.823   5.532  0.3131 -0.3532  0.0270
19235W        W35309   4.112   6.516   4.859 -0.2494  0.1412  0.2125
19236W        W35310   1.485   9.251   2.537  0.2513 -0.1363  0.0072
19237W        W35311   6.799   0.384   1.239 -0.0875 -0.2593  0.0010
19238W        W35312   0.388   1.415   3.527  0.0993  0.2188 -0.3118
19239W        W35313  18.296  16.466  12.744 -0.0081  0.0758  0.2988
19240W        W35314  15.152  15.162   3.461  0.3424  0.0029  0.0278
19241W        W35315  11.179  15.022   3.134 -0.2055 -0.1355  0.0881
19242W        W35316  11.454  16.427   0.975  0.1018  0.1036 -0.1090
19243W        W35317   6.163   6.692  11.397 -0.2821  0.1241 -0.3055
19244W        W35318   5.245  16.247  11.452  0.0767 -0.2201 -0.0635
19245W        W35319   5.080   1.935  14.477 -0.0273  0.2975  0.2211
19246W        W35320  11.659  17.402   3.197 -0.1689 -0.3954  0.1713
19247W        W35321   0.327  15.998   1.814 -0.0198 -0.0720 -0.0494
19248W        W35322   2.577   4.816   2.929 -0.0526 -0.0123 -0.0062
19249W        W35323   0.067   7.644   3.630 -0.2797 -0.0422  0.0161
19250W        W35324   5.907   5.330   9.328  0.3224  0.0826  0.1239
19251W        W35325  12.129  17.189   3.485  0.1556  0.0318 -0.2211
19252W        W35326  17.458  17.519  11.643 -0.1088  0.1692 -0.0784
19253W        W35327  14.910  16.640   3.663 -0.4708 -0.5308 -0.2104
19254W        W35328  10.360  17.003   2.593 -0.0777  0.1961 -0.0948
19255W        W35329   2.767  11.927  12.747 -0.0589  0.1851  0.0013
19256W        W35330   5.142   7.521  12.745 -0.1586 -0.1011 -0.2361
19257W        W35331   5.333  12.470   3.830 -0.3080 -0.1291  0.0553
19258W        W35332   6.016  18.810   1.393  0.1815 -0.0670  0.3132
19259W        W35333   7.143   6.574  14.805 -0.1213  0.0971  0.0706
19260W        W35334   7.463   8.705  11.313  0.2232 -0.3289 -0.1275
19261W        W35335  18.089  19.092   1.714  0.1323  0.1028  0.0827
19262W        W35336   5.031   9.616   4.696 -0.3241 -0.0659 -0.0576
19263W        W35337  10.259  17.673  14.102 -0.0912 -0.1332 -0.3507
19264W        W35338   8.919   3.191   1.423  0.0856  0.0239 -0.3797
19265W        W35339   4.413   9.165   2.339  0.0449  0.1576 -0.0629
19266W        W35340  16.059  15.934   5.145  0.2576  0.3509 -0.0091
19267W        W35341  16.370  14.954   0.529 -0.2800 -0.1345 -0.1638
19268W        W35342  12.806   5.629  11.330 -0.0904 -0.0410 -0.2689
19269W        W35343  12.507  11.241  12.691  0.2531  0.0023  0.0442
19270W        W35344  11.407   5.144  14.715 -0.2217 -0.1835 -0.0209
19271W        W35345   9.247   6.059   2.835  0.0046  0.1240  0.1535
19272W        W35346  15.034  17.449   1.973  0.1901 -0.0531  0.1595
19273W        W35347  16.938  14.823  12.681  0.0839  0.0775  0.2941
19274W        W35348   3.052  18.642  11.251  0.2857  0.4981  0.0067
19275W        W35349   1.737   5.100  13.470 -0.0299 -0.3632 -0.1398
19276W        W35350  14.279   4.867   0.694  0.2080  0.1806  0.0645
19277W        W35351   6.251   9.421   1.275  0.2282 -0.1139 -0.0855
19278W        W35352  15.342   7.682   5.716 -0.0078  0.1264 -0.1122
19279W        W35353   1.417  16.765  10.002  0.2169 -0.2358 -0.0130
19280W        W35354  14.292   8.417  12.284 -0.0260  0.0869  0.2256
19281W        W35355   1.837  10.025   2.528 -0.1926 -0.1941 -0.1187
19282W        W35356  17.566  10.591  13.970  0.0817  0.3715  0.3474
19283W        W35357   4.578   7.048  11.712  0.0088  0.0116  0.1913
19284W        W35358  18.911   7.334  12.406  0.1355 -0.0928  0.0930
19285W        W35359  10.450   5.000  14.730  0.2198  0.0414 -0.0812
19286W        W35360  19.099  18.237   4.636  0.0052  0.1911 -0.3661
19287W        W35361  11.641   5.075   0.515 -0.3201 -0.3900  0.1938
19288W        W35362   9.072  10.478   0.176  0.0173 -0.0972 -0.2630
19289W        W35363   0.303   5.333   4.797 -0.2890 -0.1973 -0.1061
19290W        W35364   6.730   8.212  13.489  0.1050 -0.1916  0.0061
19291W        W35365   5.630  15.401   1.435 -0.1886  0.1007 -0.2204
19292W        W35366  13.994   3.163  12.739 -0.1121  0.0415 -0.1381
19293W        W35367  17.551  10.300   1.590  0.1201  0.2331  0.0911
19294W        W35368  15.462   9.794   5.359  0.3094 -0.2231 -0.0617
19295W        W35369  16.186   6.494  14.607  0.0237 -0.3151 -0.0122
19296W        W35370   6.158  13.181   1.699 -0.4147 -0.4886 -0.0198
19297W        W35371   5.716  17.729  14.735  0.0488 -0.2998 -0.2324
19298W        W35372  15.734   5.452   0.350  0.2894 -0.0170 -0.2026
19299W        W35373   5.645   1.036   2.096  0.2745 -0.1164  0.0331
19300W        W35374   9.419   2.404   1.876 -0.1746 -0.0557  0.1121
19301W        W35375  17.567   0.075   5.509  0.2902  0.0095  0.1021
19302W        W35376   0.863  14.153   2.343  0.2508  0.1142  0.0008
19303W        W35377  10.748   6.684   0.006  0.2894 -0.3028 -0.0113
19304W        W35378  10.645   9.570  11.063 -0.2191  0.1049 -0.1347
19305W        W35379  15.960   9.265  11.717  0.1846 -0.0106 -0.0477
19306W        W35380   8.127   2.533  14.593 -0.0464 -0.0144 -0.4266
19307W        W35381   7.605   5.968  14.651  0.1867 -0.3068  0.1469
19308W        W35382   4.609   6.781   1.591 -0.0244  0.0711  0.1259
19309W        W35383   4.012  16.311   0.947 -0.0288  0.1613 -0.2237
19310W        W35384   0.577   4.427   4.565  0.2645 -0.0944  0.3190
19311W        W35385  16.266   7.242   4.428 -0.0232 -0.1187  0.1290
19312W        W35386  12.655  15.993   3.446 -0.1908 -0.0880 -0.1544
19313W        W35387  14.548  19.239  12.053  0.4515  0.2832 -0.1655
19314W        W35388  16.101   6.778   0.754  0.0478 -0.1696  0.1652
19315W        W35389   6.249   3.731   9.948  0.4054  0.0307  0.2346
19316W        W35390   8.232  13.334   2.959 -0.2655 -0.2425 -0.0633
19317W        W35391  14.707   7.054  11.030 -0.0628 -0.2132 -0.2291
19318W        W35392   4.998   4.183   1.149  0.0989 -0.2473  0.1720
19319W        W35393   9.518  13.706  14.516  0.3069 -0.1576  0.1999
19320W        W35394  15.317   5.623   4.570 -0.1201 -0.1345 -0.1464
19321W        W35395   2.611   7.336  13.561  0.0746 -0.0681 -0.6639
19322W        W35396   1.672   0.748  13.758 -0.1122 -0.0217 -0.2496
19323W        W35397  18.488   5.924   3.916  0.2167  0.1142  0.1681
19324W        W35398  16.300   8.522   1.373 -0.2838 -0.1775 -0.3118
19325W        W35399   0.261  11.424  12.879  0.2284 -0.1782  0.0758
19326W        W35400  15.903   3.610   4.470  0.2440  0.2287 -0.0718
19327W        W35401  14.489  12.999  11.086  0.0807 -0.0455 -0.1950
19328W        W35402  13.760  12.877   3.461  0.4122  0.1984  0.2377
19329W        W35403   4.229  15.129  11.888 -0.0022  0.0995 -0.1500
19330W        W35404   8.506  12.167  11.218 -0.3400  0.1512 -0.1433
19331W        W35405  16.030   9.725   1.786 -0.0717  0.2159  0.1065
19332W        W35406   9.437  11.712  13.232 -0.0131  0.2472 -0.1579
19333W        W35407  17.413   9.471   3.324  0.1742 -0.2440 -0.3946
19334W        W35408   2.672   0.766   9.437  0.5585  0.1130  0.1957
19335W        W35409  18.143   1.317   3.235 -0.0189  0.1864  0.1674
19336W        W35410   9.168   1.148   3.731 -0.3923  0.2574 -0.2680
19337W        W35411  15.133  17.138  13.765  0.1265  0.4916 -0.0863
19338W        W35412  14.929   4.406   5.258  0.0227  0.0343  0.0126
19339W        W35413   2.761  12.865  12.272  0.1086 -0.0196  0.3077
19340W        W35414  14.810   2.927   1.993 -0.1617 -0.0159 -0.0640
19341W        W35415   9.243   6.747  10.376 -0.2263 -0.3152  0.1075
19342W        W35416   4.353  18.108   4.908  0.1786 -0.1268 -0.0934
19343W        W35417  17.639  16.137  11.588  0.1452 -0.1071 -0.3744
19344W        W35418   5.589   1.465   1.087  0.0552 -0.1300 -0.1217
19345W        W35419   5.351  13.109  10.868 -0.0918  0.1325 -0.0869
19346W        W35420  16.259   4.449  11.127 -0.0822 -0.1106  0.1777
19347W        W35421  13.950   7.621   5.418 -0.2876  0.2287 -0.2787
19348W        W35422  17.985   4.342   1.503  0.3910  0.0168  0.0207
19349W        W35423  14.885   3.714  14.162  0.2795  0.2501  0.2633
19350W        W35424  17.424  14.887   4.878 -0.0278  0.0223 -0.4594
19351W        W35425   5.408   3.417  14.864 -0.2252  0.3945  0.2562
19352W        W35426   0.073  14.060   0.006 -0.0811 -0.2187 -0.2338
19353W        W35427   3.120  14.555   4.691  0.1563 -0.3179  0.0711
19354W        W35428  13.873   5.201  14.779  0.2098 -0.2960  0.2555
19355W        W35429  16.101  15.431  13.074  0.0502  0.0502  0.1294
19356W        W35430  18.387   2.719   3.039 -0.1164  0.0437 -0.1863
19357W        W35431   8.504   9.455   4.308 -0.2051 -0.2769 -0.0222
19358W        W35432  10.718   3.442   4.223 -0.2846 -0.2281  0.3680
19359W        W35433   3.177   0.366  10.063  0.2025 -0.1009  0.1469
19360W        W35434   2.743  15.595  12.157  0.4677  0.0231 -0.1503
19361W        W35435   1.918  12.038  14.916 -0.2382  0.0195 -0.1476
19362W        W35436   0.452   8.845  13.405 -0.3394 -0.1775 -0.3714
19363W        W35437   2.357   2.342   4.230  0.1765  0.1179  0.0525
19364W        W35438   3.812  18.107   8.885  0.0201  0.2247  0.1160
19365W        W35439   9.147   9.449   4.236  0.2183 -0.0865  0.2832
19366W        W35440   5.671  11.782  14.168  0.2280  0.0097 -0.2676
19367W        W35441   2.409   3.207  13.073 -0.1550  0.4368 -0.2267
19368W        W35442  10.312   2.267   0.975 -0.0059  0.0300 -0.2938
19369W        W35443   1.672   8.733   3.305  0.0989 -0.2261  0.0681
19370W        W35444  13.521  18.332   5.004 -0.0954 -0.3440  0.3227
19371W        W35445  10.115  14.561   4.204 -0.0278  0.1515 -0.0154
19372W        W35446   6.808   2.538   4.081 -0.3849 -0.0791 -0.5374
19373W        W35447  12.137   2.995   4.692 -0.1517  0.1505 -0.1601
19374W        W35448  12.026  18.354  11.244  0.1006  0.1310 -0.2637
19375W        W35449   4.125   1.702  11.452  0.0566  0.0190 -0.0192
19376W        W35450  12.740  16.827  13.498  0.2174 -0.2715 -0.0579
19377W        W35451  14.931  16.857   0.676  0.1315 -0.1168  0.1748
19378W        W35452  10.100   6.538   3.176 -0.4466 -0.2113  0.0338
19379W        W35453   1.486  17.916  14.293  0.3896 -0.0230  0.2643
19380W        W35454   4.578  10.306   5.208 -0.4983  0.1266 -0.4011
19381W        W35455  16.134  13.062  13.306 -0.0205  0.0746  0.0054
19382W        W35456  16.694  10.568   1.187  0.0381  0.0235 -0.2760
19383W        W35457  18.403  19.240  13.184  0.1908 -0.0347  0.1124
19384W        W35458   0.000  13.748  13.999 -0.0649 -0.3061  0.2388
19385W        W35459   8.764   8.358  14.925 -0.0742  0.5194  0.3955
19386W        W35460  16.170   1.443   4.940  0.2195 -0.1292  0.1304
19387W        W35461  15.259  10.121   0.730  0.2751 -0.0734  0.2748
19388W        W35462   9.271  11.186  10.085 -0.1118 -0.2881  0.0249
19389W        W35463  18.977   7.059  11.113  0.2791  0.0716  0.1794
19390W        W35464   0.557   1.471   1.329  0.1063  0.3436 -0.3428
19391W        W35465  12.469  16.911  14.458 -0.0442  0.3391  0.0430
19392W        W35466   6.149  10.265   0.980 -0.3019 -0.2381 -0.0547
19393W        W35467  18.824  11.713  11.639  0.1992  0.1984 -0.0229
19394W        W35468   2.083   3.443   2.430  0.2671  0.2247  0.2158
19395W        W35469  12.644  14.359  12.571  0.0183 -0.1955  0.1337
19396W        W35470  17.293  14.435   3.509 -0.0568 -0.0397 -0.2061
19397W        W35471  13.507  10.404  13.069  0.4403  0.5884  0.4139
19398W        W35472   6.980   3.572   0.701 -0.0875  0.3758  0.1616
19399W        W35473  14.788  13.294  14.617 -0.0030  0.2366  0.0374
19400W        W35474   8.848  12.210  13.652  0.1399 -0.1867 -0.1472
19401W        W35475  10.040  16.261   4.870 -0.1014  0.0358  0.0181
19402W        W35476   9.187  15.389  11.927 -0.1032 -0.0163  0.1895
19403W        W35477   6.036   9.635   1.769 -0.1808 -0.1296  0.1475
19404W        W35478   8.395  11.301  11.633 -0.2373  0.3489 -0.0132
19405W        W35479   1.898  19.008   2.221 -0.0059  0.2365 -0.1629
19406W        W35480   9.560  10.375  14.915  0.4953 -0.2048  0.0590
19407W        W35481   9.244   2.258   0.847 -0.2998 -0.2424 -0.0838
19408W        W35482   5.387  12.973   1.616  0.2217 -0.0290  0.4216
19409W        W35483  13.489   3.823  10.749 -0.3444 -0.0117  0.3430
19410W        W35484   9.181  15.969  12.062 -0.1496  0.0746  0.1742
19411W        W35485  14.273   4.715   1.999 -0.1671 -0.0813 -0.1397
19412W        W35486   8.032  11.129  14.456 -0.2365  0.3339  0.1226
19413W        W35487   9.207  18.305   3.059 -0.0101  0.0527 -0.0608
19414W        W35488  11.482   8.561  12.774  0.1703  0.0568  0.0093
19415W        W35489  18.828   2.457  10.962 -0.1275 -0.1285 -0.2449
19416W        W35490   5.282  10.375   0.687 -0.0443 -0.3074 -0.0603
19417W        W35491  10.836   9.236   0.128 -0.1692  0.1549  0.0646
19418W        W35492   8.616   2.206   0.746 -0.1037 -0.0560  0.0537
19419W        W35493   5.637  14.514  10.254 -0.2398 -0.0934  0.1711
19420W        W35494  14.655  11.780   4.576  0.2285  0.0215  0.1552
19421W        W35495  14.107   3.754  13.851 -0.0132 -0.1063 -0.3379
19422W        W35496   0.127   5.294  13.966 -0.3452  0.3064 -0.1651
19423W        W35497   5.902  14.950  12.637 -0.3155  0.0182  0.2814
19424W        W35498  15.260   2.410   9.830  0.0470  0.0642  0.0577
19425W        W35499  16.736  13.939  14.944 -0.1594 -0.1550 -0.2618
19426W        W35500   8.497   8.975  11.452 -0.0144 -0.0648  0.0815
19427W        W35501   3.995   7.036   4.708 -0.2184  0.2877  0.1973
19428W        W35502   3.978  18.700   3.447 -0.0323  0.3602  0.2776
19429W        W35503  12.534   7.970   2.476  0.0014 -0.0094  0.1184
19430W        W35504   0.813   8.083   0.701  0.0432 -0.0633  0.1981
19431W        W35505  17.297   4.767   3.859 -0.0253 -0.2046 -0.0973
19432W        W35506   7.067  14.928  12.213  0.0720  0.0410 -0.0435
19433W        W35507  13.095  17.517  11.690 -0.2270  0.3435 -0.0049
19434W        W35508   2.387  13.396  14.494  0.0583  0.0969 -0.2647
19435W        W35509   4.404  14.307  13.177 -0.2287  0.1423 -0.1635
19436W        W35510  16.642   1.260  10.949 -0.0565 -0.2495  0.0231
19437W        W35511   8.061  16.908   3.864  0.1801  0.0282  0.2548
19438W        W35512   3.802   0.950  12.361 -0.2537 -0.0314 -0.3829
19439W        W35513   3.046   1.138   1.470  0.3326 -0.0791  0.2456
19440W        W35514   3.587   1.910   2.444 -0.5224  0.4166 -0.0332
19441W        W35515  14.591  18.704   3.896  0.1735  0.1386  0.3451
19442W        W35516  11.945  11.676   0.819 -0.0954  0.0595  0.1488
19443W        W35517   4.044  17.450   3.096  0.0627  0.0764  0.2521
19444W        W35518  12.457   0.147   1.569 -0.2501  0.3855  0.1449
19445W        W35519  17.040   0.940  13.537 -0.2316 -0.2140 -0.1584
19446W        W35520   8.933   1.242  13.426 -0.2483 -0.0866 -0.1603
19447W        W35521   3.633   2.608  14.557  0.2850  0.2258  0.2182
19448W        W35522  11.121  14.353   0.919  0.3242  0.2521 -0.0103
19449W        W35523   1.061  15.768   2.029 -0.2067 -0.2291  0.0919
19450W        W35524  11.334   5.009   5.495 -0.0775 -0.0551 -0.0387
19451W        W35525  17.200   3.196  14.228 -0.2142  0.1313 -0.2155
19452W        W35526   4.678   7.191   3.524 -0.2048  0.1252  0.1470
19453W        W35527  14.134   7.176  13.561  0.4507 -0.0530 -0.1732
19454W        W35528  13.995  11.012  10.584  0.1398 -0.2075 -0.1824
19455W        W35529   2.980   0.866   3.073 -0.4027  0.3903  0.1585
19456W        W35530   1.228  18.722  11.720  0.2959  0.1332 -0.1104
19457W        W35531  16.330  12.544   4.547  0.2299 -0.0771 -0.1209
19458W        W35532  16.547  18.671   1.630  0.0911  0.2408  0.0821
19459W        W35533  16.664   3.241  11.476 -0.1797 -0.1622 -0.2028
19460W        W35534   5.102   1.805   4.370  0.2458  0.1982 -0.2280
19461W        W35535  19.274  13.349   0.558  0.1843  0.2124  0.2410
19462W        W35536   2.846   8.252  11.457  0.1863  0.1083 -0.2961
19463W        W35537  19.167  11.987  11.424 -0.1659  0.2793  0.4855
19464W        W35538   8.377  18.262  11.916 -0.1713  0.0900 -0.1913
19465W        W35539  12.492   0.476   0.335  0.2463 -0.2948 -0.1308
19466W        W35540   1.854   1.058  14.870 -0.0360  0.2508  0.3691
19467W        W35541   3.470  16.760   3.126 -0.1453 -0.0412  0.2273
19468W        W35542  12.681  14.566   0.277  0.1856  0.2279 -0.0947
19469W        W35543  15.514   3.391   1.747  0.2086 -0.2063 -0.0889
19470W        W35544   8.495   3.653   1.474  0.1134  0.2151 -0.1747
19471W        W35545   2.617  10.475   1.252  0.0806  0.3733 -0.3502
19472W        W35546  12.326  11.052  13.619  0.1645  0.1492  0.0032
19473W        W35547   2.762  18.416  11.627 -0.1086 -0.0905  0.1174
19474W        W35548  11.946   7.165  11.901  0.2607  0.1533  0.2533
19475W        W35549   1.837   0.710   3.323 -0.1366  0.3685 -0.0610
19476W        W35550  19.315  18.009   1.312  0.1399  0.0189 -0.0177
19477W        W35551  18.350  16.358   1.290 -0.0517  0.1427 -0.2533
19478W        W35552   7.725   3.325  14.543 -0.1164 -0.1657  0.4599
19479W        W35553   0.242   3.844   3.947 -0.1058 -0.2542 -0.2073
19480W        W35554  12.079  15.401   2.362  0.0060 -0.1632  0.0423
19481W        W35555  19.180  10.552   1.234 -0.2990  0.0396  0.0549
19482W        W35556   8.554  17.993  12.264 -0.0189  0.1561 -0.1998
19483W        W35557  18.490  12.962   1.125 -0.0483  0.2207 -0.1584
19484W        W35558   0.440  14.129   2.628  0.3967  0.3656 -0.0079
19485W        W35559   6.510   6.818  11.803  0.1247 -0.2465 -0.0716
19486W        W35560   6.498  17.281   3.005 -0.1655 -0.0284  0.0932
19487W        W35561  14.878   6.903   3.955 -0.1482  0.1497 -0.2915
19488W        W35562   7.784   9.179  14.994 -0.4163  0.3449 -0.2375
19489W        W35563   1.945   1.985   1.798 -0.0653  0.1960  0.0250
19490W        W35564  16.728  19.305  12.920  0.0691 -0.1441  0.0595
19491W        W35565  15.528  14.517  11.593  0.0603  0.1479 -0.1558
19492W        W35566  11.032   7.647   2.595 -0.0789 -0.2748  0.2515
19493W        W35567  11.405  19.083  13.444  0.0783 -0.2054 -0.2307
19494W        W35568   7.354  10.953  13.345  0.0934  0.5797 -0.2161
19495W        W35569   2.904   2.257   5.002  0.0202  0.2303  0.0223
19496W        W35570  16.721  16.466  10.851  0.0233 -0.0373 -0.2731
19497W        W35571   9.646  12.509  12.818  0.1911 -0.6417 -0.1803
19498W        W35572  15.627  14.531  14.934 -0.0484  0.0781 -0.1560
19499W        W35573  10.403  10.475  12.414  0.0466 -0.4252  0.0457
19500W        W35574  14.134  17.849   4.210 -0.3887 -0.1755  0.1960
19501W        W35575  16.481  14.968   1.453  0.1094  0.4352 -0.1080
19502W        W35576  11.415   0.829   5.079 -0.1352 -0.0731  0.0380
19503W        W35577   3.293   8.180  12.461 -0.0246  0.0162 -0.0289
19504W        W35578  15.439   4.468  12.074  0.0100  0.1219  0.0820
19505W        W35579  18.030   2.814  10.874 -0.6079  0.4360  0.0623
19506W        W35580   1.565   8.537   5.394 -0.1532  0.1187 -0.2761
19507W        W35581   8.866   0.638   2.971  0.0549 -0.0651  0.1260
19508W        W35582  12.846   8.743  14.599 -0.0445  0.5490  0.3334
19509W        W35583   4.323  14.056  12.167 -0.2544  0.1532 -0.1754
19510W        W35584   2.458   1.053  14.793  0.1272 -0.2403  0.1065
19511W        W35585   8.822   7.827  13.731  0.1267 -0.1653 -0.1201
19512W        W35586  17.123   6.611   2.704  0.0340 -0.2593  0.2587
19513W        W35587  12.991  10.813   1.371 -0.4627  0.2191  0.1734
19514W        W35588  12.909   4.797   2.783  0.4432  0.1582  0.1119
19515W        W35589   9.419  14.557   3.750 -0.2078  0.0431 -0.0024
19516W        W35590   8.458  10.322   2.095 -0.0480  0.0258  0.0053
19517W        W35591   3.123   6.594   3.203  0.0923  0.1686  0.1286
19518W        W35592   2.969   5.710   3.604 -0.0673  0.2115 -0.1104
19519W        W35593   3.596   7.614  10.884  0.0603  0.3326 -0.0107
19520W        W35594   4.511   5.283  14.163  0.0111  0.0075 -0.0425
19521W        W35595  17.598   4.958   3.006  0.0234  0.0983  0.2938
19522W        W35596   3.302  12.340   5.296  0.0366 -0.4689  0.2047
19523W        W35597  17.510   8.376   3.067 -0.0587  0.2020 -0.1901
19524W        W35598   3.291   4.310   3.443 -0.1199  0.1377  0.0304
19525W        W35599   0.274  18.339   3.223 -0.3802 -0.1735 -0.2066
19526W        W35600   0.657  14.433  11.170  0.1392 -0.0220  0.4046
19527W        W35601   7.916  15.654  11.538 -0.0097  0.0055  0.0641
19528W        W35602   3.415  13.269   3.711 -0.0912  0.1436 -0.1678
19529W        W35603  16.699  15.356   4.454 -0.1544 -0.2288  0.1830
19530W        W35604  16.945   6.149  12.634 -0.0817 -0.3073  0.2827
19531W        W35605   0.833  12.696   2.672 -0.2056 -0.0542  0.1052
19532W        W35606  10.394   6.452  12.650  0.1086 -0.0967  0.0366
19533W        W35607  10.418   6.740   0.795  0.1841 -0.1823  0.2380
19534W        W35608   3.441  18.680  13.029  0.0886 -0.0220  0.3914
19535W        W35609  15.476   7.987   0.679  0.2490 -0.3176 -0.1187
19536W        W35610  13.212   9.024   3.104  0.2825 -0.1179  0.2047
19537W        W35611  14.806   2.046  12.661 -0.0061  0.0493 -0.0614
19538W        W35612  19.079  17.713  10.482  0.2068 -0.1693 -0.3038
19539W        W35613   3.284  13.419  11.425  0.1108 -0.2483 -0.0502
19540W        W35614  10.309   9.977   1.867  0.1910  0.1264  0.0710
19541W        W35615   2.636   1.843  13.650 -0.0571 -0.0729  0.2365
19542W        W35616   5.485   7.782  10.627  0.1494  0.0349  0.3296
19543W        W35617  19.137  14.723   3.249 -0.2639  0.1454 -0.0618
19544W        W35618  17.207   1.142  10.182 -0.0011 -0.2707 -0.1336
19545W        W35619   9.475   6.417   4.659  0.2597  0.1683  0.1179
19546W        W35620  11.233  16.399  13.801  0.1389  0.3624  0.0340
19547W        W35621  19.015   4.774   2.450  0.2025  0.1609 -0.1622
19548W        W35622  16.131   8.933   4.026  0.1779  0.2025 -0.1022
19549W        W35623  14.573  15.916   3.489 -0.2604 -0.0571 -0.3443
19550W        W35624  10.137  18.914   4.314  0.3636 -0.0596 -0.4118
19551W        W35625   1.321   3.053   4.644  0.0805 -0.0102 -0.1429
19552W        W35626   8.273  16.965   2.158  0.0743 -0.2006 -0.1418
19553W        W35627  15.850   2.914  14.708  0.0783 -0.1265 -0.0489
19554W        W35628   3.056   1.664  11.721 -0.0282  0.2015  0.1883
19555W        W35629   0.508  17.435   5.740 -0.1328 -0.0217 -0.1603
19556W        W35630  18.858  10.885  12.796  0.0232  0.0002 -0.1861
19557W        W35631  17.939  18.913  11.998 -0.2312  0.1839  0.1059
19558W        W35632  14.482   1.996   3.784  0.2197 -0.3779  0.0432
19559W        W35633   8.221   4.993  11.068 -0.2738  0.1440 -0.2759
19560W        W35634  12.071  18.257  12.211 -0.3184 -0.1765  0.0497
19561W        W35635   5.510   4.452   4.250 -0.1413  0.0048 -0.0294
19562W        W35636  10.042   0.496   5.251 -0.2171 -0.0605 -0.2092
19563W        W35637  15.159   8.661   4.657 -0.0054  0.4685 -0.0546
19564W        W35638  15.553   6.699   2.388  0.1175  0.0357  0.2028
19565W        W35639  13.012   3.712   4.010 -0.2499  0.0466 -0.0916
19566W        W35640  15.435   1.717  13.243 -0.2398 -0.0896 -0.4995
19567W        W35641   3.947  15.473  11.654 -0.1479 -0.1426  0.0370
19568W        W35642  17.337  14.403  12.179  0.1368  0.0439 -0.1229
19569W        W35643  16.266   7.207  13.027  0.0368  0.0226  0.0138
19570W        W35644   5.681  12.493  13.007 -0.1724 -0.1012  0.0454
19571W        W35645   5.306   9.698   0.206 -0.0902 -0.0785  0.1803
19572W        W35646  13.266   0.171   3.419 -0.0042 -0.0687  0.0212
19573W        W35647  11.136   3.741   2.022 -0.0492  0.2040  0.1477
19574W        W35648   5.198  16.535  13.187  0.1104  0.1919  0.0323
19575W        W35649   5.323  13.197  13.718  0.0941  0.1063 -0.1542
19576W        W35650   5.420  17.965  12.740 -0.1943 -0.1289  0.1593
19577W        W35651   8.125   8.358  14.612  0.1381 -0.1108 -0.2280
19578W        W35652  15.287  12.155  14.173 -0.2739  0.1604 -0.1279
19579W        W35653   9.247   3.241  11.207  0.2925  0.0592  0.0871
19580W        W35654   3.944   9.015   4.709  0.4962 -0.0110  0.0129
19581W        W35655   0.564  16.854   3.568  0.1856 -0.1524  0.2151
19582W        W35656   8.047  11.543   2.111  0.1224 -0.1701  0.3467
19583W        W35657  17.277   4.940   1.598 -0.0154  0.0206  0.2898
19584W        W35658   9.610  12.556  13.964  0.0671  0.0486  0.1263
19585W        W35659  12.493  14.214   5.195  0.2330  0.0622 -0.0845
19586W        W35660   2.366  14.496  14.715 -0.3725  0.1234  0.1248
19587W        W35661  17.606   3.147   1.371 -0.0281 -0.0603 -0.4802
19588W        W35662   4.710  13.995   3.350 -0.1079 -0.0779 -0.0521
19589W        W35663  15.797  16.858   4.811 -0.2976 -0.1332 -0.1091
19590W        W35664   9.785   3.088  14.696  0.0124 -0.2993  0.0524
19591W        W35665   0.721   5.679  14.009  0.1699 -0.0149  0.2068
19592W        W35666   0.867   6.393   0.502 -0.3232 -0.2008 -0.1709
19593W        W35667  12.075   0.216   5.257 -0.3446 -0.0298 -0.0908
19594W        W35668  15.011   6.548  11.304  0.0967 -0.1921  0.1136
19595W        W35669  18.092   0.331  13.097 -0.1466  0.0965 -0.0514
19596W        W35670   4.286  17.319   1.646  0.4704 -0.1812  0.1843
19597W        W35671  18.358  15.183  11.802  0.2388 -0.1267 -0.1632
19598W        W35672   2.379   3.234  12.426  0.0180  0.0375  0.1195
19599W        W35673  18.923   7.958  10.043 -0.4855  0.0776  0.0117
19600W        W35674   5.359   8.878   3.178  0.3669 -0.2945  0.0044
19601W        W35675   7.015  11.204   1.681 -0.1714 -0.0203 -0.2060
19602W        W35676  17.192  13.411   0.333 -0.1672 -0.2332 -0.1910
19603W        W35677   5.275  15.863   0.458 -0.1914 -0.1418  0.1886
19604W        W35678  10.571  10.428   1.696 -0.4780 -0.4680 -0.5579
19605W        W35679  14.709   9.290   9.856 -0.1420  0.5029 -0.0614
19606W        W35680  13.733  12.410  13.360 -0.0063 -0.2127 -0.2634
19607W        W35681   8.033   3.601  12.233 -0.1418  0.2126  0.0422
19608W        W35682   8.047   5.118   4.566  0.0217 -0.4525  0.2117
19609W        W35683   3.600  10.806  11.773 -0.6471  0.0062  0.2186
19610W        W35684  16.912   7.697   4.424  0.0246  0.0889  0.0991
19611W        W35685   8.415   2.703   4.589  0.1744  0.1328 -0.1421
19612W        W35686  12.008  12.196  11.967  0.0907 -0.1399  0.0967
19613W        W35687   6.094  11.492  12.221  0.0672 -0.1173  0.4202
19614W        W35688   3.122   5.120   4.665  0.0175  0.0187  0.1637
19615W        W35689   7.691   0.789   3.909 -0.1956 -0.1675  0.0547
19616W        W35690  13.838   3.622   3.488 -0.2853  0.3300  0.1355
19617W        W35691  13.372   5.969  14.056  0.2062 -0.1034 -0.2754
19618W        W35692  12.461  12.286  14.508  0.1779  0.1270 -0.1743
19619W        W35693  11.169  11.802  10.305  0.0550 -0.2318  0.1120
19620W        W35694   6.586   1.109  14.293 -0.3822 -0.1233  0.2667
19621W        W35695   4.118   0.590  13.165 -0.4839 -0.1516 -0.0439
19622W        W35696   1.822  12.182   2.660 -0.0762 -0.3215 -0.1468
19623W        W35697  11.687   7.127   1.444 -0.0572 -0.1513  0.2627
19624W        W35698   1.071  18.328  13.244 -0.0700 -0.2215  0.2606
19625W        W35699   9.678  15.606  10.526 -0.2999  0.1536 -0.0636
19626W        W35700  12.703   0.509   4.652 -0.2238  0.1730  0.1131
19627W        W35701   6.236  11.065  12.542 -0.0489 -0.0284 -0.0047
19628W        W35702   9.117   7.334  13.910  0.0154 -0.0810  0.0722
19629W        W35703   2.440  14.739   1.511 -0.3355  0.0549 -0.0058
19630W        W35704  17.140   9.951   4.929  0.5233 -0.2830  0.0532
19631W        W35705   2.641  16.214  12.697  0.0025 -0.1475 -0.1994
19632W        W35706   8.668   1.441   1.245  0.0524 -0.1852  0.2582
19633W        W35707   4.460   2.967   3.609 -0.1544  0.3065  0.2223
19634W        W35708  11.644  12.519  10.663 -0.0410 -0.1332 -0.0529
19635W        W35709  19.213   2.484  11.763  0.4101  0.0483 -0.1950
19636W        W35710  18.166  13.038  13.378  0.1497 -0.0716 -0.2874
19637W        W35711   8.811  17.762  11.725 -0.0098 -0.0572 -0.0365
19638W        W35712   9.694  15.813   3.582  0.1291  0.1366 -0.0533
19639W        W35713   6.320   2.134   9.887 -0.0819  0.0762 -0.2213
19640W        W35714  18.118  18.802  13.999  0.5036  0.1100  0.0768
19641W        W35715  10.869  13.637  14.224 -0.2307  0.1097  0.3704
19642W        W35716   0.543   6.971   3.752 -0.2653 -0.0173 -0.0602
19643W        W35717   4.555   3.377   1.634 -0.3051 -0.1425  0.4540
19644W        W35718   5.553   7.420   0.471  0.1757  0.1847  0.0802
19645W        W35719  15.724   8.615  14.546 -0.0353 -0.3516  0.2683
19646W        W35720   9.491   3.384   5.775 -0.1682 -0.1276  0.3456
19647W        W35721   1.682   8.778   4.913  0.1841  0.2703  0.1929
19648W        W35722  12.583   2.563  12.466  0.0559  0.1843 -0.0842
19649W        W35723   0.695   0.442   1.536  0.4265 -0.2664  0.0417
19650W        W35724  14.958  14.715   2.116 -0.0465  0.4802 -0.2121
19651W        W35725  11.302  11.463   1.360  0.3456  0.1515  0.0831
19652W        W35726  16.864   7.341   1.978  0.1378  0.2527  0.0646
19653W        W35727   4.765  15.400  12.376 -0.0085  0.1460  0.0647
19654W        W35728  13.389  18.383   2.088  0.0447 -0.0560  0.1525
19655W        W35729   3.087   3.109  13.724 -0.0062 -0.2734  0.3185
19656W        W35730  11.668  15.052   3.235  0.0485 -0.0598 -0.1607
19657W        W35731  12.936  15.825   4.469 -0.3118 -0.1648  0.0062
19658W        W35732   7.247  14.400  12.863  0.1290  0.1243 -0.0611
19659W        W35733  11.047  11.780  14.946 -0.1544  0.0257 -0.1722
19660W        W35734  14.647  13.138   0.548 -0.0376  0.0701  0.2618
19661W        W35735  14.124  10.995   4.719  0.0502  0.3407 -0.1438
19662W        W35736   8.017  17.382   4.144 -0.2375 -0.4335 -0.0347
19663W        W35737   0.682  11.759   3.295  0.3030  0.0747 -0.0887
19664W        W35738   2.514   2.121   5.390  0.2627 -0.4032  0.0695
19665W        W35739  17.487   0.694  14.332  0.2254 -0.2042  0.2739
19666W        W35740  10.684  10.008  12.736 -0.1660 -0.0503  0.0075
19667W        W35741   4.237   7.862  11.628  0.5647 -0.0119  0.0321
19668W        W35742   2.683  14.494  12.392 -0.1179  0.0769 -0.3167
19669W        W35743  14.116  16.737  13.983 -0.1695 -0.1187  0.1092
19670W        W35744   4.579   5.315   4.155 -0.1797  0.0758  0.4377
19671W        W35745  15.178   0.863   3.775 -0.1955 -0.1103 -0.2292
19672W        W35746  11.384  12.369   2.322 -0.0992  0.1703  0.0017
19673W        W35747   5.126   3.236  13.223 -0.2713  0.0549  0.1249
19674W        W35748   3.971  14.682   1.104  0.1770  0.1119 -0.0860
19675W        W35749   9.456  14.590  10.563 -0.0860  0.4537  0.1102
19676W        W35750  18.918   8.337  14.307 -0.1900  0.0299  0.1650
19677W        W35751   7.755  18.294   9.942 -0.0971  0.2845  0.0821
19678W        W35752   2.421   4.927   0.747  0.0942  0.2318 -0.0193
19679W        W35753  15.856   6.314  11.728 -0.4812 -0.1689 -0.1274
19680W        W35754   0.743   0.961  11.100  0.0561  0.2721  0.2327
19681W        W35755  10.839   4.162   2.000 -0.0314 -0.0265  0.2497
19682W        W35756   1.344  12.222   5.069 -0.1082  0.0952 -0.3736
19683W        W35757  18.736  13.608   1.787 -0.1379 -0.0503  0.2988
19684W        W35758   7.235   5.462  11.210  0.0462 -0.0507  0.1988
19685W        W35759   9.057  17.961  10.795 -0.0976 -0.2591  0.1287
19686W        W35760   1.369  19.031  12.838 -0.2149  0.2145 -0.2194
19687W        W35761   6.868   7.175   3.541 -0.2136  0.0401 -0.1569
19688W        W35762   6.434  17.673   4.095 -0.4189  0.0632  0.0490
19689W        W35763  16.744   3.471  11.941  0.3288  0.0048  0.0477
19690W        W35764  11.875  12.214   3.263 -0.1103 -0.2752  0.3174
19691W        W35765   6.261  14.758   0.852  0.2752 -0.2188  0.2098
19692W        W35766   2.285  13.819   1.076 -0.1044 -0.1301 -0.1016
19693W        W35767   4.040   2.291  12.230  0.2652  0.1153 -0.0874
19694W        W35768  12.305  12.850   0.568 -0.2412 -0.0712 -0.0793
19695W        W35769   5.154   8.429   3.877  0.1389  0.2194 -0.1065
19696W        W35770   0.070   9.242   3.880 -0.0448 -0.0782 -0.1548
19697W        W35771  15.235  18.874  13.856 -0.3332 -0.2252  0.1566
19698W        W35772  15.958   6.353   0.872  0.1457  0.0477 -0.2333
19699W        W35773  10.289  16.271   3.919 -0.1946 -0.4186 -0.2447
19700W        W35774  17.795   0.515  11.333 -0.3467 -0.2597  0.5395
19701W        W35775  14.866   7.845  10.168  0.0320  0.0556  0.1842
19702W        W35776   3.951   6.802   2.476  0.1588  0.2744  0.0887
19703W        W35777   6.854  17.172   3.396 -0.0000  0.3187 -0.1822
19704W        W35778  14.026   9.887  10.342 -0.2070 -0.1580 -0.0107
19705W        W35779  15.375  13.518  12.386 -0.1102 -0.1740 -0.2273
19706W        W35780   2.491   4.420   4.697  0.1160  0.1393 -0.0625
19707W        W35781   9.340   0.912  13.663  0.0561  0.0712 -0.1174
19708W        W35782  13.179   8.836   2.674 -0.3869  0.0394 -0.2082
19709W        W35783   5.548  13.256  13.312 -0.2240 -0.0000 -0.2091
19710W        W35784   7.671   5.203  11.090  0.1411  0.0160  0.1037
19711W        W35785   8.376   5.149  14.951  0.2016  0.0700  0.0841
19712W        W35786  11.073   4.621   2.291  0.1877 -0.0050 -0.3351
19713W        W35787   6.270   9.245  13.267  0.1691 -0.2188 -0.0776
19714W        W35788  11.240   2.803   1.214  0.2513 -0.1395  0.0381
19715W        W35789  14.701   2.803   5.065  0.1156 -0.0441  0.1605
19716W        W35790   6.893  17.200  13.005 -0.1124  0.2876 -0.3119
19717W        W35791  17.997   7.518   3.278 -0.3793  0.1144 -0.3986
19718W        W35792  11.339  15.879   1.057 -0.3399  0.0008  0.1243
19719W        W35793   1.038   1.145   4.211 -0.0003 -0.1155 -0.2536
19720W        W35794  19.168   4.607  14.215 -0.1386 -0.1861  0.0751
19721W        W35795   2.168  13.036   2.943 -0.3847 -0.1893 -0.0846
19722W        W35796   8.285   1.254   0.893  0.0863 -0.3005  0.1851
19723W        W35797  18.380   0.761  13.051  0.0670 -0.1792 -0.0292
19724W        W35798   5.093  13.895   4.411 -0.1106  0.0870  0.2482
19725W        W35799   4.695  16.145   4.571 -0.2956 -0.0248  0.2130
19726W        W35800  12.661  14.333  13.052 -0.0756  0.2097  0.2427
19727W        W35801  15.947   1.684  12.130  0.0765 -0.0659  0.1542
19728W        W35802  10.528  17.588   4.309  0.0636 -0.3317 -0.0586
19729W        W35803   5.602   6.095  13.753  0.3711  0.2036 -0.2771
19730W        W35804  17.965  19.251  13.862  0.1133 -0.0935  0.1468
19731W        W35805   3.697   8.481  12.077  0.1085  0.2591  0.1644
19732W        W35806  16.458   9.518  12.484  0.0579 -0.2386  0.2047
19733W        W35807  12.057  13.806   1.835  0.1922  0.0668  0.0101
19734W        W35808  15.406   3.068   0.678  0.1244  0.1767 -0.0322
19735W        W35809  16.787  13.727  11.290  0.0181 -0.2162 -0.1598
19736W        W35810  13.881   5.188   0.882  0.0367  0.0825 -0.2328
19737W        W35811   5.690  18.610   4.090  0.0507  0.0510  0.1378
19738W        W35812  13.929   1.391   3.457  0.1901 -0.1084  0.1724
19739W        W35813  12.241   3.671   3.444 -0.1003 -0.1496  0.2592
19740W        W35814   4.622   9.248  12.196 -0.0927 -0.0007  0.3918
19741W        W35815   6.558   6.709  14.197 -0.4460  0.3528  0.1040
19742W        W35816  13.470  17.616   3.427 -0.4465  0.0316  0.0648
19743W        W35817  10.745   5.078  13.841  0.0805 -0.1687 -0.0617
19744W        W35818  11.089   0.222  10.621 -0.3400  0.2710 -0.2523
19745W        W35819   6.716   7.341  14.724 -0.1161  0.2098 -0.0519
19746W        W35820  18.094  14.699  12.030 -0.1739  0.2648  0.0672
19747W        W35821  15.530   4.851   5.517 -0.1437  0.2576  0.1073
19748W        W35822   1.068   1.296   1.760  0.0695  0.1822 -0.2756
19749W        W35823   3.806   0.837   3.551 -0.0912 -0.1424  0.3267
19750W        W35824  16.146   8.966   2.592 -0.2071  0.1618 -0.1193
19751W        W35825   2.526   6.175   9.687  0.0880  0.0659  0.1227
19752W        W35826  13.912  11.646   1.689  0.0554  0.1276 -0.0152
19753W        W35827  15.315  16.077  14.512 -0.1214  0.1641 -0.0372
19754W        W35828   2.100  15.029  11.475  0.1270  0.2604  0.1015
19755W        W35829  12.915  11.866  13.697 -0.0761 -0.0420  0.3302
19756W        W35830   6.996   3.958  14.552  0.0196  0.0053  0.1618
19757W        W35831  15.200   3.926   0.906  0.1080  0.0592 -0.1536
19758W        W35832  19.027   6.029   0.237  0.3104  0.3855 -0.0997
19759W        W35833  17.617   9.208   0.289 -0.0496 -0.0609  0.2169
19760W        W35834   4.348   1.473  13.744 -0.2108  0.0094  0.1674
19761W        W35835  12.992   5.141  14.967  0.0438  0.2115 -0.5748
19762W        W35836  18.814   4.352   2.592 -0.1739 -0.1020  0.1686
19763W        W35837  15.414   0.420   1.111 -0.3441  0.0863  0.2000
19764W        W35838  13.454  17.676  14.641 -0.4757 -0.3220  0.0557
19765W        W35839  16.280   7.797   4.504  0.0894 -0.1443  0.0012
19766W        W35840   7.904  13.112   2.707 -0.0812 -0.0597 -0.0272
19767W        W35841   4.751   3.007  11.077  0.0636 -0.0146  0.1986
19768W        W35842  14.820   0.451  11.217  0.0185  0.0635  0.1562
19769W        W35843  14.379  10.756  10.405 -0.1094  0.0885  0.1148
19770W        W35844  13.244   9.565  10.405 -0.3606 -0.1142  0.0227
19771W        W35845   6.863  18.353  11.644  0.0934  0.0928  0.1766
19772W        W35846  15.807  18.163   9.989  0.4159 -0.3076  0.0293
19773W        W35847  13.499  11.475   3.965 -0.3411  0.0502 -0.0073
19774W        W35848   0.300  14.003   2.154  0.0657 -0.1192  0.1095
19775W        W35849  17.115   3.249  14.893 -0.0964  0.0246 -0.1365
19776W        W35850  19.231  17.802   2.406  0.4904 -0.4232 -0.2810
19777W        W35851  15.469   3.097   3.961 -0.3404  0.1827 -0.0325
19778W        W35852   6.958   6.129   1.138 -0.0695 -0.2575 -0.0120
19779W        W35853  17.403   0.977  13.203  0.2394  0.2190 -0.0827
19780W        W35854  15.580  11.620  14.054  0.0078  0.2252  0.0045
19781W        W35855  15.593   7.001  14.699  0.0980  0.2366  0.0927
19782W        W35856  15.208  15.117   0.564  0.2458  0.3633  0.0459
19783W        W35857   9.455  14.972   4.014 -0.3301  0.1349 -0.0786
19784W        W35858  15.607   9.286   3.293 -0.1213 -0.1042 -0.0930
19785W        W35859  10.221  12.463  10.748 -0.1427 -0.1621 -0.2602
19786W        W35860   7.438   0.341   4.071 -0.1251  0.3176 -0.1196
19787W        W35861   2.593  17.823  14.257  0.1983 -0.1760  0.0272
19788W        W35862   8.327  11.385   3.487  0.1617  0.2144 -0.1433
19789W        W35863  12.625  15.458  10.120  0.3231  0.0922 -0.0893
19790W        W35864  16.092  12.401   3.169 -0.0569  0.1568  0.1852
19791W        W35865  13.051  11.361   4.171  0.3811  0.1552  0.3174
19792W        W35866  14.097  15.620  13.220  0.2434 -0.1445  0.3179
19793W        W35867   6.645   5.742   1.340  0.4432 -0.1257 -0.1930
19794W        W35868   2.525  18.130  13.041 -0.4083 -0.1199  0.1325
19795W        W35869  18.485  11.728  14.193 -0.0437  0.2972  0.2911
19796W        W35870  15.522  19.138  14.690 -0.0701 -0.1325  0.3016
19797W        W35871  12.478  18.317   3.275  0.0109  0.2226  0.1014
19798W        W35872  17.146   4.296   0.512 -0.1988 -0.0629  0.1844
19799W        W35873  14.642   3.156   2.794  0.3170  0.0462 -0.0640
19800W        W35874  13.244  14.885   4.504  0.1210  0.0985 -0.2216
19801W        W35875   1.369   9.396  12.649 -0.3417  0.4172 -0.0367
19802W        W35876   0.258  14.042  12.096 -0.0852 -0.2463 -0.0129
19803W        W35877  12.295  13.489   3.498  0.2163  0.0367 -0.1578
19804W        W35878  13.564  12.819   1.188  0.0267  0.0524  0.1277
19805W        W35879  16.322  17.411   1.485  0.1898  0.3788  0.0627
19806W        W35880  12.322  12.830   3.889 -0.1244 -0.0549 -0.4086
19807W        W35881   1.343   2.042  11.393 -0.1325 -0.1714 -0.1177
19808W        W35882  14.053   6.332   2.410 -0.1840  0.0047  0.0454
19809W        W35883  10.551   0.067   4.397 -0.0282  0.1103 -0.2154
19810W        W35884  17.968   5.270   0.572 -0.0983 -0.0755 -0.0408
19811W        W35885   3.299   3.070  14.633 -0.0788  0.1963 -0.0197
19812W        W35886  17.453   9.019  14.823 -0.0294  0.0770 -0.0926
19813W        W35887   2.534   8.662  11.164  0.0427 -0.2493  0.0816
19814W        W35888  14.719   4.278   4.777  0.1288 -0.0480  0.1627
19815W        W35889  12.419   4.232   2.047  0.1367  0.1011 -0.0913
19816W        W35890  14.699   0.279   5.840  0.1264 -0.1784  0.0678
19817W        W35891   2.644   0.860   0.175 -0.0753 -0.1016 -0.0790
19818W        W35892  13.567  15.348  10.339  0.0660 -0.0315  0.0996
19819W        W35893  15.433  13.613   4.913 -0.3883  0.1395 -0.2886
19820W        W35894   9.978   8.250   2.639 -0.0973 -0.4358 -0.0199
19821W        W35895   7.419   4.507   2.000  0.1299 -0.0193 -0.0511
19822W        W35896   0.606   0.416  11.768 -0.0949  0.1010  0.2855
19823W        W35897  17.792   4.097   5.088  0.0351  0.1332  0.3016
19824W        W35898   7.462   4.669  14.039  0.1968  0.0029 -0.0001
19825W        W35899  15.242   7.110   1.008 -0.1620  0.3400  0.0515
19826W        W35900  16.925  16.082   0.230  0.3166  0.3101  0.0987
19827W        W35901  16.553  14.074  13.557 -0.0395 -0.2208  0.1263
19828W        W35902   1.418  13.233   3.915  0.2108 -0.1488  0.0414
19829W        W35903  17.193  15.207   4.169 -0.0307 -0.0675 -0.1086
19830W        W35904   3.926  16.152  13.121 -0.0563 -0.1317 -0.1712
19831W        W35905  12.063   6.354  11.368 -0.0702  0.1177  0.2348
19832W        W35906  17.873  15.859  13.722 -0.0559 -0.0499 -0.0686
19833W        W35907  10.163  15.759  10.607  0.2572 -0.1239  0.1744
19834W        W35908  18.929   5.179  10.935 -0.0881 -0.0156  0.2204
19835W        W35909  18.042  11.187   0.580  0.1585  0.0329 -0.0807
19836W        W35910  11.244  19.106  14.874  0.1433  0.1061 -0.3134
19837W        W35911   5.777   2.663  11.439  0.0914  0.3671 -0.2482
19838W        W35912   4.732   0.344   4.517 -0.1669 -0.1827 -0.0329
19839W        W35913   2.786  16.515   4.721 -0.1004  0.1817 -0.2045
19840W        W35914  12.333   2.109  13.997  0.0547  0.1401 -0.0343
19841W        W35915   6.468  12.139  14.498  0.1650  0.0825 -0.0834
19842W        W35916  18.810  12.934   4.611  0.2438 -0.0467 -0.0190
19843W        W35917   3.489  13.809  13.379 -0.1136 -0.0483 -0.2325
19844W        W35918  15.177  14.464   1.308 -0.2829  0.1728 -0.0372
19845W        W35919   4.408  11.829   3.350  0.0887  0.2194 -0.2813
19846W        W35920  15.896   8.802   3.255  0.2274 -0.0857  0.0793
19847W        W35921   7.523  16.666   0.140 -0.0177 -0.2501  0.3533
19848W        W35922   9.136  16.308  11.403 -0.1194 -0.0287  0.0361
19849W        W35923  11.689  11.187   2.941  0.1363 -0.1519 -0.3152
19850W        W35924   0.397  12.484  11.138 -0.2104  0.3742  0.1020
19851W        W35925  19.014   2.485   2.368  0.1048 -0.3065  0.3097
19852W        W35926  11.040   7.755  13.329 -0.0918 -0.1206  0.0160
19853W        W35927   6.582  16.197  13.782  0.2414 -0.0998 -0.1445
19854W        W35928   7.320  17.308   3.420  0.0799 -0.0847 -0.3536
19855W        W35929  18.949  16.557  12.417 -0.0757 -0.0349 -0.1370
19856W        W35930   0.368  18.483   1.853  0.2723 -0.1944  0.0671
19857W        W35931   9.872   4.506   0.964  0.0233 -0.1025 -0.0888
19858W        W35932  11.973  10.666   2.035  0.0116 -0.2414 -0.0872
19859W        W35933   8.032   8.065  11.845  0.2110  0.1462  0.1774
19860W        W35934   9.833  12.151   1.403 -0.3063 -0.0688 -0.0810
19861W        W35935   2.551   3.323  13.584  0.1813  0.0596 -0.1401
19862W        W35936  15.289  17.448   4.696  0.0961 -0.1731 -0.2925
19863W        W35937  11.049   7.006  11.108 -0.0032 -0.1437  0.2419
19864W        W35938   9.187  18.987   0.992 -0.2104  0.1497 -0.0016
19865W        W35939  17.099   2.232  12.540 -0.0976 -0.1582 -0.3006
19866W        W35940   5.713   2.121  14.582 -0.0078  0.0044  0.3485
19867W        W35941  12.037   2.771  14.164  0.0105  0.0682 -0.1163
19868W        W35942  18.014   2.429   2.164 -0.1979  0.0918  0.3485
19869W        W35943   0.046  13.656  11.650  0.1100  0.2425 -0.1995
19870W        W35944   4.749  14.195  14.741 -0.3141 -0.0801 -0.4125
19871W        W35945  15.362   6.926  12.001  0.0214  0.3724 -0.2299
19872W        W35946   7.233   6.718  12.062  0.1807 -0.0303 -0.0826
19873W        W35947   2.286  12.014   1.858 -0.0729  0.0654  0.1530
19874W        W35948  17.431  17.200  11.101  0.1913 -0.0467 -0.3956
19875W        W35949  17.502   9.100  11.585  0.1777 -0.1605 -0.1336
19876W        W35950  18.817  17.834   4.837 -0.0610 -0.3037 -0.3548
19877W        W35951  17.951   7.575   4.323 -0.1508 -0.2720  0.2523
19878W        W35952   1.196  16.316  10.991 -0.3297  0.2045  0.1368
19879W        W35953  12.399  19.294  14.062 -0.0449  0.0367  0.1318
19880W        W35954   3.886  17.642   1.939  0.1440  0.1938  0.2124
19881W        W35955   8.835  15.960   1.007 -0.1116  0.1296  0.0257
19882W        W35956   4.008   5.127   1.273  0.3900 -0.3313 -0.1364
19883W        W35957  13.995   1.564  14.488  0.0607 -0.0703 -0.1234
19884W        W35958  14.341   7.440   1.060 -0.2894 -0.2573 -0.1549
19885W        W35959   3.418  14.769   4.331 -0.0783  0.0176 -0.0033
19886W        W35960  13.329  12.247  13.083  0.0189 -0.0413  0.1150
19887W        W35961  14.630   8.477   2.821 -0.2063 -0.1933 -0.2302
19888W        W35962   9.170  12.889  10.423  0.0208 -0.3064  0.0150
19889W        W35963   3.264   3.344   4.250  0.0864  0.0045 -0.2627
19890W        W35964   7.943  10.642   0.287  0.1488  0.0643 -0.1074
19891W        W35965   7.912  15.125   4.931 -0.0324 -0.2750  0.1288
19892W        W35966   9.660   1.903   9.898  0.0804  0.0190 -0.1185
19893W        W35967  12.195  14.713   1.583  0.1615  0.0224 -0.2591
19894W        W35968   1.915  11.271   1.970 -0.1292 -0.1268  0.0791
19895W        W35969  12.264   0.285  10.436 -0.0551 -0.2192  0.1088
19896W        W35970   9.723  15.690   2.095 -0.0411 -0.2610  0.4319
19897W        W35971  12.942   6.988  11.772  0.0119  0.1252  0.1197
19898W        W35972  17.627  13.525  13.876  0.1766  0.1429  0.1215
19899W        W35973   4.069  10.129   3.061 -0.3883  0.2571 -0.0112
19900W        W35974  14.292  14.036   9.412 -0.0102  0.3208 -0.0027
19901W        W35975   1.668  14.153  13.992  0.0059 -0.2029 -0.0664
19902W        W35976  18.608  13.357   2.175 -0.0679  0.1174  0.0934
19903W        W35977  12.375   4.368   0.548 -0.1205 -0.2026  0.2113
19904W        W35978   0.208  12.088  11.825  0.0409  0.0530  0.2685
19905W        W35979   6.086  17.539   9.549  0.0502  0.1130  0.5525
19906W        W35980   7.047  11.629   3.086 -0.0545 -0.0941  0.0111
19907W        W35981   7.973  16.562  14.304 -0.2673  0.0803 -0.1106
19908W        W35982   6.355   3.620   4.811 -0.0967 -0.0667  0.0313
19909W        W35983   3.047  12.775   5.897 -0.0184  0.0726  0.1774
19910W        W35984  14.838   2.455   5.753  0.0217  0.1611 -0.0346
19911W        W35985  11.922   9.739   0.519  0.0714 -0.1129  0.0168
19912W        W35986   1.329  13.438  12.385 -0.0168 -0.0172 -0.2790
19913W        W35987   7.325   2.202  14.840  0.2317  0.1905 -0.0406
19914W        W35988   7.844   2.066  10.887  0.1182 -0.2292  0.1502
19915W        W35989   8.206  18.160   2.926 -0.1310  0.1633 -0.3083
19916W        W35990   4.650   6.397   3.000 -0.0406 -0.0616 -0.0028
19917W        W35991   7.320   5.003   5.248 -0.2476 -0.0688  0.1039
19918W        W35992  15.141   9.915  11.086  0.0762 -0.0026  0.0674
19919W        W35993  15.256   5.562   0.068 -0.3339  0.0074  0.5496
19920W        W35994  16.139  15.388   0.657  0.0486 -0.0660 -0.2307
19921W        W35995   3.271  11.070   2.270 -0.0989 -0.1787 -0.0544
19922W        W35996   2.028  16.965  12.447  0.2454 -0.2766 -0.1019
19923W        W35997   7.665  14.991   3.152  0.0150  0.2476 -0.3436
19924W        W35998   9.675   8.818  11.998  0.0500  0.1135 -0.2876
19925W        W35999   9.825  13.465   2.781  0.1453  0.0941  0.1918
19926W        W36000  18.809   2.700   0.569  0.3084 -0.2835 -0.3453
19927W        W36001  15.660  12.383   1.019  0.2292  0.0801  0.0400
19928W        W36002  12.593  15.117   5.269  0.1430  0.3121 -0.2991
19929W        W36003  17.984   3.337  13.289 -0.0771  0.0071 -0.1917
19930W        W36004  15.851   0.927  13.437  0.0705  0.1697 -0.1435
19931W        W36005   2.360   4.845  11.977 -0.1110 -0.0832 -0.3946
19932W        W36006   8.419   4.897   5.474  0.2337  0.2433  0.0760
19933W        W36007  15.905  16.727  13.127 -0.1401 -0.0385 -0.0781
19934W        W36008  17.377  17.899   2.321 -0.0444  0.2175  0.1516
19935W        W36009   5.394   4.735   1.179 -0.1812  0.2889 -0.0126
19936W        W36010   6.343   8.664  11.058  0.1015 -0.1418  0.0269
19937W        W36011   4.466  16.151  12.968 -0.1821 -0.1163 -0.0552
19938W        W36012  15.505  12.889  11.601 -0.0532 -0.0347  0.2583
19939W        W36013  18.567  16.659  10.846 -0.0927 -0.1932  0.0795
19940W        W36014   6.550  16.157  11.216  0.0157 -0.1180 -0.2203
19941W        W36015   3.451  18.640   5.228  0.1245 -0.3125  0.1905
19942W        W36016   4.568  10.889  10.135  0.0223  0.0254 -0.0572
19943W        W36017  13.451  12.471  11.947  0.0982 -0.0702 -0.3076
19944W        W36018  16.258   8.260   3.778  0.2257  0.1110  0.0096
19945W        W36019   6.676  15.608   0.466  0.1133 -0.0522 -0.1712
19946W        W36020  17.447  15.864  11.136  0.3015  0.2100 -0.2563
19947W        W36021   2.043   1.606   2.510  0.1673  0.0397  0.1717
19948W        W36022   5.735  13.078   0.237  0.2052  0.2740 -0.0411
19949W        W36023  18.212  12.434  12.489 -0.0710  0.1546  0.0680
19950W        W36024   0.326  11.462  11.363  0.1462 -0.0548  0.0398
19951W        W36025   1.709  15.868   1.053 -0.2514 -0.4066  0.2594
19952W        W36026   9.280   8.600   1.878 -0.0572  0.0706 -0.2758
19953W        W36027   8.089  17.863  10.007 -0.0440  0.1701  0.1855
19954W        W36028  11.756  14.404   9.923 -0.2008 -0.1308 -0.1584
19955W        W36029   5.046  12.447   9.576  0.0132  0.2418 -0.1471
19956W        W36030  16.850  18.484  13.896 -0.1745  0.1177 -0.0091
19957W        W36031   3.547   8.126   1.770  0.2146  0.4272 -0.2365
19958W        W36032   9.385  13.940   0.619  0.1261 -0.1527  0.1021
19959W        W36033   7.493  17.244  13.885  0.0941  0.0747 -0.3526
19960W        W36034   1.785  16.284   9.752 -0.0128 -0.3930  0.1766
19961W        W36035  10.703  17.796  14.644  0.0489 -0.2212 -0.1926
19962W        W36036   3.010  15.612   1.751  0.1184 -0.0002 -0.0734
19963W        W36037  10.861  16.731  14.746  0.0332 -0.1974  0.0369
19964W        W36038   1.305  15.090   1.576 -0.5912 -0.0682  0.1465
19965W        W36039  14.500   2.569  10.577  0.2447  0.1535 -0.0522
19966W        W36040   0.249   9.390   0.769  0.2832  0.1045  0.2446
19967W        W36041   1.108  12.663  10.132  0.1096 -0.1408 -0.2559
19968W        W36042   8.505   9.395   3.522  0.1122 -0.1429 -0.1393
19969W        W36043   1.509   3.068   0.986  0.0506  0.3545 -0.0676
19970W        W36044   6.968  12.413  13.367 -0.2936  0.3116  0.0911
19971W        W36045   4.163  10.321   3.984  0.0578  0.4513  0.1053
19972W        W36046   9.225  18.150  13.036  0.1842  0.2281 -0.3502
19973W        W36047  10.574  13.135   3.893 -0.2980 -0.0528  0.3853
19974W        W36048   6.968   7.422   2.564  0.0621 -0.0971 -0.1818
19975W        W36049  14.247  17.567   1.829 -0.1512  0.0937 -0.1004
19976W        W36050  14.799  13.649  10.535  0.0859 -0.0493  0.0549
19977W        W36051  15.267  10.654   3.720 -0.0793  0.0913 -0.1702
19978W        W36052   8.604  17.665   0.663 -0.1552  0.0620  0.0444
19979W        W36053   5.922   7.040   4.425 -0.2332 -0.0166 -0.1092
19980W        W36054   6.040  12.076   4.201  0.1671  0.3333 -0.0542
19981W        W36055   4.779  14.846   3.283 -0.2711 -0.1490 -0.4807
19982W        W36056   2.420   2.971   0.997 -0.3007  0.0238  0.1578
19983W        W36057  16.347   8.447   0.004  0.1940  0.0456 -0.2236
19984W        W36058  13.539  18.832  12.811  0.1898  0.2582 -0.0235
19985W        W36059   2.151  15.894  12.286 -0.3040 -0.1962 -0.0148
19986W        W36060  11.818  18.603  14.363 -0.0615  0.2053  0.1309
19987W        W36061   3.545   5.064   3.201 -0.3152 -0.0839 -0.0282
19988W        W36062   2.073  17.234   3.642  0.0481  0.2091  0.0879
19989W        W36063   4.280   7.181   0.819  0.0783 -0.1766 -0.1958
19990W        W36064  11.244   9.407  12.230  0.2137 -0.1880 -0.1131
19991W        W36065   1.312  13.438   0.679 -0.0412  0.2143 -0.2371
19992W        W36066  16.861   8.967  10.255  0.0401 -0.0982 -0.3968
19993W        W36067  18.304  10.963   3.546 -0.1676 -0.2579  0.2457
19994W        W36068   1.187   3.746   3.275  0.0253 -0.1234  0.3076
19995W        W36069  18.517  16.222  12.154 -0.1840  0.0070  0.2955
19996W        W36070   5.646  16.564  14.851  0.0005  0.2789  0.3917
19997W        W36071  16.864  15.160  11.666  0.0218  0.2348 -0.1407
19998W        W36072  14.329  12.948   5.443  0.0023 -0.3154 -0.0147
19999W        W36073  15.548   7.427  12.061 -0.1664  0.1530 -0.0795
20000W        W36074   0.842   0.987   1.405 -0.0416 -0.2153  0.5415
20001W        W36075   4.566   1.531   1.260 -0.2931  0.3697  0.0562
20002W        W36076  11.813  19.275   2.984  0.1980 -0.0216 -0.0497
20003W        W36077  15.772   4.393  14.796  0.0130 -0.1166 -0.4331
20004W        W36078  11.946  15.919   5.391  0.0842  0.5022 -0.0707
20005W        W36079  12.942  16.228   1.265  0.0763  0.1257  0.0042
20006W        W36080  15.842   0.471   0.805 -0.1141  0.1795  0.3374
20007W        W36081   3.227  11.612   0.912  0.2263  0.1882 -0.3374
20008W        W36082   6.621   5.786  14.252 -0.0972 -0.0466  0.0710
20009W        W36083   4.955   1.968  10.936  0.3368  0.1426 -0.0134
20010W        W36084   8.034  10.989  14.981  0.1947  0.0521  0.1876
20011W        W36085   5.049  11.647  12.761  0.1098 -0.1081 -0.0426
20012W        W36086   7.859   7.754  10.657  0.0606 -0.1132  0.2719
20013W        W36087   3.549   4.216   1.514 -0.1714  0.2835  0.0716
20014W        W36088   5.512   1.014   1.326 -0.1613  0.0475 -0.0188
20015W        W36089  11.575  10.871  12.584  0.1388  0.0277 -0.2844
20016W        W36090   9.815  11.493  14.704  0.3339 -0.0984  0.1247
20017W        W36091  14.519   8.912  10.697 -0.1830  0.1824  0.1302
20018W        W36092  17.689  13.389   1.236 -0.1415  0.4909  0.2887
20019W        W36093  13.710   8.782   2.578 -0.1138 -0.0216  0.1567
20020W        W36094   9.799   1.329   3.061  0.0112  0.0094  0.2296
20021W        W36095   3.765  16.598   4.350  0.0068 -0.0181 -0.3326
20022W        W36096  12.695   0.001  11.831  0.3350  0.2573 -0.0098
20023W        W36097   0.942   2.186  14.262  0.4094  0.2650  0.2588
20024W        W36098  10.636  14.479   0.820  0.4372 -0.0704  0.0457
20025W        W36099  12.483   7.212   3.044 -0.1413 -0.0949 -0.0681
20026W        W36100   0.214  14.999  12.405 -0.1257 -0.0203  0.2522
20027W        W36101   7.946  14.449  10.659 -0.2453 -0.3620  0.0359
20028W        W36102   0.616  14.191   3.541  0.2147 -0.0476 -0.2625
20029W        W36103  13.329  15.349   2.307  0.1712  0.0360  0.0158
20030W        W36104  10.488  14.617   0.275  0.0250  0.1557  0.4959
20031W        W36105   9.898  16.268  10.042 -0.3279 -0.2094  0.0584
20032W        W36106   8.266   1.532  11.701  0.2632 -0.3506 -0.1376
20033W        W36107   2.022  10.387   6.147  0.0223  0.1727  0.1226
20034W        W36108   6.549  13.597   0.057  0.0004  0.2562 -0.0065
20035W        W36109   5.932   9.506   3.493  0.0200  0.1918  0.1089
20036W        W36110  13.177  18.067   5.132  0.2638  0.3729 -0.0408
20037W        W36111  18.254  15.973   4.594  0.0231 -0.0456 -0.2507
20038W        W36112  10.030  17.479   4.312 -0.1218 -0.0723 -0.1555
20039W        W36113  17.067   0.018  11.963  0.0884 -0.0336  0.3259
20040W        W36114  12.263   2.514  13.669  0.2844 -0.0864 -0.2794
20041W        W36115  17.832   7.313  14.822 -0.0080 -0.1940 -0.0349
20042W        W36116   5.712  18.515  13.575 -0.0098  0.1842  0.2670
20043W        W36117  14.202  18.324   2.620 -0.1721 -0.2600  0.1314
20044W        W36118   3.327   8.100   4.384  0.0834  0.0505  0.2631
20045W        W36119   0.633  12.624  11.545  0.1758 -0.4976 -0.2866
20046W        W36120   4.408   2.344   0.933 -0.0980 -0.1468 -0.4107
20047W        W36121   7.560  13.347  13.474  0.2261 -0.1595  0.0737
20048W        W36122  14.215   8.995   2.288  0.3104 -0.0082  0.2502
20049W        W36123   6.863   4.394   2.208 -0.3365  0.0841 -0.3930
20050W        W36124  16.143   0.892  14.880 -0.0728  0.1022  0.0373
20051W        W36125  19.145   6.966  12.990  0.0662 -0.0787  0.1337
20052W        W36126  18.681  11.517  13.774 -0.0964 -0.2076  0.0246
20053W        W36127  13.206  17.953   4.572  0.0392 -0.2871  0.0367
20054W        W36128  13.911   3.478   2.931  0.0255  0.4760  0.2591
20055W        W36129  12.801  10.461  12.574 -0.3896 -0.0825  0.0980
20056W        W36130  15.314   9.429   0.410 -0.0710  0.1160 -0.1183
20057W        W36131   9.237  17.591   3.628 -0.2290 -0.0628  0.0804
20058W        W36132   3.668  18.939   2.233  0.2521  0.3871 -0.1723
20059W        W36133   0.167  14.893  11.099  0.1400  0.0955 -0.2962
20060W        W36134   3.568   4.858   0.907  0.2022 -0.2577  0.0539
20061W        W36135  10.649  18.817  14.771  0.2413 -0.2186 -0.2533
20062W        W36136  10.361   6.023  13.552  0.1150 -0.0537  0.1850
20063W        W36137   2.578  18.454  13.465 -0.1581 -0.2719 -0.3002
20064W        W36138  11.354   4.790  10.936  0.0356  0.0399  0.1407
20065W        W36139   5.395  10.488  13.502 -0.0225 -0.1829 -0.2601
20066W        W36140   0.199   7.935   0.679  0.2350  0.0014 -0.0853
20067W        W36141  15.927  12.559  14.894 -0.1739 -0.1644  0.0667
20068W        W36142  10.058  12.033   1.905 -0.0920 -0.0010  0.1886
20069W        W36143   3.962  15.802  12.642 -0.1632 -0.1742  0.2893
20070W        W36144   0.707  11.407  13.949  0.0703 -0.2692  0.3279
20071W        W36145   6.002  13.647   4.426  0.0561 -0.2033  0.0370
20072W        W36146   4.434   2.601  14.787 -0.1952  0.1226  0.0240
20073W        W36147   5.294  13.511   0.140 -0.0358 -0.0730  0.1439
20074W        W36148   6.805  15.367   3.961  0.0555 -0.0574 -0.1393
20075W        W36149   8.993  13.794   3.914  0.0273 -0.1124 -0.2094
20076W        W36150   0.797  15.061   0.806  0.2395 -0.0416  0.2056
20077W        W36151  10.712   5.668   3.093 -0.0631  0.0110  0.2974
20078W        W36152  17.767   1.272   0.688  0.0273 -0.2262 -0.0912
20079W        W36153   5.174  18.336   0.681 -0.2390 -0.1185  0.0982
20080W        W36154   6.914  11.503   4.786 -0.0489  0.0088 -0.0511
20081W        W36155  10.494   3.810  14.324 -0.3403 -0.0296  0.0144
20082W        W36156   4.010  11.414  12.783  0.2328  0.2180  0.1856
20083W        W36157  14.071   3.454   0.388 -0.0522 -0.2673 -0.2040
20084W        W36158  16.863   7.875  13.872 -0.4206  0.0825 -0.1350
20085W        W36159  12.667  11.347  11.192  0.1139 -0.0560  0.2357
20086W        W36160  17.753  16.582   1.963 -0.0085 -0.1547 -0.0334
20087W        W36161  13.570   7.957   4.253 -0.0848  0.1328 -0.1381
20088W        W36162  14.134   0.242  13.437 -0.1067 -0.2402 -0.4180
20089W        W36163   5.691  18.933   2.263 -0.2081 -0.0087  0.0840
20090W        W36164   6.201   9.050  10.152 -0.0316  0.0647 -0.0976
20091W        W36165  13.929  14.303   2.166 -0.2350  0.2610 -0.0340
20092W        W36166  18.940   5.431   2.916  0.3330 -0.3104 -0.0570
20093W        W36167   1.526   7.120   0.993  0.1796 -0.1362  0.3486
20094W        W36168   5.281   8.038   1.608 -0.2012  0.0806  0.0192
20095W        W36169  18.643   6.205   1.822  0.4380  0.3336  0.3311
20096W        W36170   2.440  17.251  12.820  0.1962 -0.1259  0.1626
20097W        W36171  16.366   4.308   3.381 -0.2344 -0.3173 -0.1327
20098W        W36172   3.816  11.447   0.925  0.3343 -0.0302 -0.0733
20099W        W36173  16.548  17.488   4.671  0.1419  0.1897 -0.1193
20100W        W36174  15.284  13.808  14.248  0.3229  0.0452 -0.1967
20101W        W36175  12.924  17.551  12.387  0.1841  0.2444  0.0373
20102W        W36176   8.514   1.016   4.782 -0.4113  0.0757 -0.0830
20103W        W36177  14.393   9.750   1.336 -0.1573 -0.0805  0.0213
20104W        W36178  13.221  10.563   1.710 -0.0133  0.1998  0.1692
20105W        W36179   5.530   7.194   5.392  0.1261  0.1284  0.0471
20106W        W36180   0.641   4.167   4.987  0.1132 -0.2744 -0.0850
20107W        W36181   7.808  16.919   9.417  0.2680 -0.1063 -0.2854
20108W        W36182   2.175  17.907  10.918  0.0366  0.2380  0.1813
20109W        W36183  15.954   7.451  11.752 -0.1979  0.0088 -0.2732
20110W        W36184   2.613   9.802  13.595 -0.0740 -0.0634 -0.1397
20111W        W36185  16.089   2.012   0.386 -0.1670 -0.0315 -0.0878
20112W        W36186   9.498  11.706  11.388 -0.0468 -0.1101 -0.0076
20113W        W36187   8.543   7.987  12.477  0.1062 -0.1800 -0.0400
20114W        W36188  18.883   4.138  10.543 -0.1332 -0.0057 -0.1558
20115W        W36189   2.724   1.354  13.879 -0.1613 -0.2709 -0.1425
20116W        W36190  11.245   3.950  10.194  0.0539  0.0745 -0.0201
20117W        W36191   8.285   7.068  13.173 -0.2456  0.0863  0.1709
20118W        W36192  12.267   5.950   3.878 -0.0080 -0.0972  0.0214
20119W        W36193   3.075   7.721   3.708  0.3897 -0.2443  0.3219
20120W        W36194  10.664  12.501  13.862 -0.0839  0.2507 -0.0953
20121W        W36195  12.936   5.452   4.958 -0.0036  0.1707 -0.1062
20122W        W36196  15.290   1.499   3.202  0.4690 -0.3892 -0.1059
20123W        W36197   9.640   4.027  14.327  0.0526 -0.0484  0.1006
20124W        W36198  14.639   6.028  12.229  0.3626 -0.0895  0.2172
20125W        W36199   8.707   6.393   5.227 -0.1229 -0.0748  0.3490
20126W        W36200  16.682  14.690  14.246 -0.1335  0.4359  0.3097
20127W        W36201   8.777  15.084   4.509 -0.1818  0.0613 -0.0858
20128W        W36202   8.791  12.092   1.247  0.0573 -0.1619  0.0237
20129W        W36203  18.356  15.979   2.140 -0.0405 -0.1182  0.1220
20130W        W36204   7.213  12.179   3.025 -0.0767 -0.0541 -0.1283
20131W        W36205  15.705   0.844   3.724  0.2079 -0.0127  0.1170
20132W        W36206   9.634   5.003   4.232  0.2136  0.4710  0.2704
20133W        W36207   1.530  15.440   1.292  0.1490 -0.1158  0.1487
20134W        W36208  14.031   0.154  12.950 -0.1895  0.2867  0.1403
20135W        W36209   2.553   5.491   5.477  0.1020  0.2178  0.2437
20136W        W36210   8.841   0.246   3.298 -0.2795  0.0791  0.1152
20137W        W36211   9.665   0.242   1.870  0.3098 -0.2170 -0.0123
20138W        W36212   6.052  10.795   1.029  0.0291 -0.0565  0.3131
20139W        W36213   5.159  15.896   2.183  0.1131 -0.1085 -0.1209
20140W        W36214   1.762  16.814   1.029  0.0432  0.5671  0.3374
20141W        W36215   5.965   0.675  12.173  0.1354 -0.3574  0.0252
20142W        W36216  14.189   1.272   2.942  0.3777  0.0093  0.0147
20143W        W36217   6.874   7.098   0.178 -0.3384  0.1390  0.0840
20144W        W36218   3.062  11.866   0.316 -0.2652  0.1319  0.3178
20145W        W36219   9.247  15.611   3.410  0.0849 -0.0395  0.0338
20146W        W36220  11.981   2.548   0.048 -0.1970 -0.2159  0.0495
20147W        W36221   3.513  15.030   9.791  0.2002  0.0511  0.0904
20148W        W36222   0.858  13.613   0.456  0.1245  0.1966  0.2932
20149W        W36223  13.490  13.160  10.807 -0.3376  0.0294  0.1559
20150W        W36224   6.764   8.385  11.013  0.1428  0.0949 -0.0164
20151W        W36225  13.361   3.916   0.221  0.2391 -0.0370 -0.3385
20152W        W36226   5.499   9.044  13.584 -0.3348  0.3466 -0.3835
20153W        W36227   3.317  18.696   1.822  0.0999 -0.2944  0.0278
20154W        W36228  10.555   0.834  11.059 -0.2422 -0.1163  0.1298
20155W        W36229   0.057   9.308  12.212 -0.1061  0.0859  0.2916
20156W        W36230   4.187   3.374  13.702  0.0917  0.0383  0.0184
20157W        W36231   2.012   6.951   3.117 -0.0460  0.0933  0.0837
20158W        W36232  12.015   7.127  10.825  0.4181  0.0745 -0.0869
20159W        W36233   3.602   8.743   0.251  0.0690  0.0704 -0.1123
20160W        W36234  17.668   3.676   2.646 -0.4715  0.1341  0.0002
20161W        W36235  16.588   3.851   0.095  0.2366  0.3850  0.1974
20162W        W36236  12.927  13.892   2.211 -0.0051 -0.4656  0.1308
20163W        W36237  12.444   6.481  11.717  0.2302 -0.2554  0.1750
20164W        W36238  15.384  17.002   3.566  0.0319  0.1637 -0.1067
20165W        W36239   9.356   9.269  11.376  0.0014 -0.1849 -0.4876
20166W        W36240  11.734  15.536  11.936  0.1156 -0.1079  0.2723
20167W        W36241  11.680  16.320   4.090 -0.0752  0.1660 -0.2258
20168W        W36242   9.354   7.114   1.611 -0.1148 -0.1283  0.1945
20169W        W36243   5.882   0.235   1.459 -0.0114  0.0480  0.1275
20170W        W36244   4.989   6.056   1.110 -0.1714 -0.0714  0.0799
20171W        W36245   5.588   2.267   3.812 -0.0615  0.2669  0.0178
20172W        W36246  15.003  11.048  11.687 -0.0773  0.0313 -0.0734
20173W        W36247  10.325  10.718  12.815  0.0027  0.2974 -0.2320
20174W        W36248  17.830  11.753   3.596 -0.0437  0.1380  0.2166
20175W        W36249   7.531   5.266   2.853 -0.3294  0.0330 -0.1304
20176W        W36250  14.836   9.532  13.079  0.2665  0.1600 -0.2751
20177W        W36251   9.352   8.852   4.230  0.2192 -0.1822  0.2728
20178W        W36252  11.952  13.415   4.339 -0.2696  0.1627 -0.0437
20179W        W36253   6.019   5.863   2.019  0.1483 -0.1667  0.2420
20180W        W36254  15.856  13.864  11.002  0.3012 -0.1541  0.2562
20181W        W36255  14.727  18.687   0.327 -0.3283 -0.0596  0.1493
20182W        W36256  10.725  18.787   2.773  0.0651 -0.1754 -0.2742
20183W        W36257   4.354  16.152  14.393  0.1762 -0.2370 -0.1141
20184W        W36258   8.583  10.966  13.177 -0.2425 -0.2518 -0.0238
20185W        W36259   0.435  16.394  10.605  0.0627 -0.0819 -0.3167
20186W        W36260   8.222   4.728   0.153  0.2160 -0.3662  0.0913
20187W        W36261  16.756   8.812   3.222  0.0023 -0.1674  0.0940
20188W        W36262   2.421   4.167  13.016 -0.4149  0.3829  0.0284
20189W        W36263  10.067  13.752   9.800  0.2398  0.0185 -0.3778
20190W        W36264  12.334  18.197   0.277 -0.2056  0.3495 -0.2752
20191W        W36265  11.810  10.106  11.253  0.1941  0.1575 -0.1460
20192W        W36266   7.513   4.440  10.525 -0.0792 -0.1607  0.2475
20193W        W36267  12.718   2.007  11.688  0.2750  0.1068 -0.0774
20194W        W36268   8.740   6.870  11.300  0.0194 -0.1179 -0.1652
20195W        W36269  16.449  17.070  13.072 -0.1071  0.0457 -0.0141
20196W        W36270  18.671  16.226   4.705 -0.2789  0.0465 -0.0754
20197W        W36271   6.626  18.529  13.994 -0.0404  0.0510 -0.2078
20198W        W36272  17.235  10.984   2.998 -0.0826 -0.3469 -0.2987
20199W        W36273  19.173   0.701   1.745 -0.0626 -0.3829 -0.0993
20200W        W36274  11.304  15.208   0.420  0.1207 -0.1328  0.1890
20201W        W36275   0.265  14.760  13.929 -0.4466 -0.0046 -0.0404
20202W        W36276  16.520  13.401   4.710 -0.1390  0.1641  0.3151
20203W        W36277   9.936   7.389   0.136 -0.2695 -0.0902 -0.1854
20204W        W36278  14.582   1.517   0.699  0.0629 -0.1624 -0.0161
20205W        W36279  15.784   8.395   1.805  0.1606 -0.1358  0.1070
20206W        W36280  15.967  11.095   0.406  0.2079  0.0339 -0.2374
20207W        W36281  12.344  14.785   4.950 -0.2977 -0.1044  0.0241
20208W        W36282  17.249   8.924  14.344 -0.0545  0.0432  0.0241
20209W        W36283  13.723  15.450   1.279  0.2410  0.0214 -0.2831
20210W        W36284   6.463   0.404  12.656 -0.3064 -0.1030  0.2033
20211W        W36285  16.151  18.962  13.952  0.1863  0.2546 -0.0492
20212W        W36286  10.016  13.417  12.995 -0.1395 -0.2473  0.1980
20213W        W36287  10.987  13.738   5.018 -0.1111  0.2105  0.1365
20214W        W36288  14.762  10.363   2.312 -0.0463  0.0743 -0.0534
20215W        W36289   7.156   1.072   4.196 -0.2248  0.1079  0.0611
20216W        W36290   5.732  15.322   4.718  0.0304  0.1674  0.1800
20217W        W36291  18.435   4.886  11.061  0.1795  0.1596 -0.2830
20218W        W36292   7.447   3.110  11.528 -0.0026  0.1872  0.5533
20219W        W36293   6.834  14.582   4.549  0.0272 -0.2750 -0.0863
20220W        W36294  12.201   9.358  10.748 -0.2046 -0.1029 -0.0054
20221W        W36295   5.941   3.479   2.668 -0.0079  0.0678  0.0123
20222W        W36296  10.139   1.029   4.512  0.0795 -0.3011 -0.0309
20223W        W36297  16.504   0.302   2.070 -0.0373  0.4511  0.3380
20224W        W36298   1.503  15.051   2.547 -0.1121 -0.0679  0.0847
20225W        W36299   2.858   8.428   4.960 -0.0006 -0.0657  0.0295
20226W        W36300  11.302  18.618  14.299 -0.0063 -0.1950 -0.1197
20227W        W36301  14.701  19.270   2.728 -0.0005  0.1487  0.0658
20228W        W36302   6.661  13.392  13.797  0.1263  0.3698  0.1494
20229W        W36303   6.614  15.488  14.329 -0.1192 -0.0904 -0.2467
20230W        W36304  11.551   3.367   4.013  0.1347  0.4629  0.4015
20231W        W36305  13.531  10.824   0.670  0.1262  0.1657  0.0645
20232W        W36306  13.554  13.946   3.010  0.1527  0.2375  0.2944
20233W        W36307  11.503   4.614   0.628  0.0326 -0.0818  0.0964
20234W        W36308  18.826  16.423   2.892  0.5308  0.0415 -0.1639
20235W        W36309   5.111   2.450   0.744  0.1988 -0.0098  0.2917
20236W        W36310   1.614   2.117  13.071 -0.3372 -0.0555 -0.2675
20237W        W36311   6.619   2.803   1.178 -0.3142 -0.0180  0.0821
20238W        W36312   3.015   9.511  11.523  0.2627  0.0836 -0.2316
20239W        W36313   9.819  13.770   4.645  0.0998 -0.1081 -0.0726
20240W        W36314  17.626   5.470  12.248  0.3528 -0.1559 -0.1268
20241W        W36315   2.960  18.984  12.998  0.0375 -0.0643  0.2215
20242W        W36316   1.484  11.552   4.631  0.2081 -0.1298 -0.3789
20243W        W36317  12.501   6.164  12.219  0.0888 -0.2506  0.0388
20244W        W36318   4.538   2.808   0.678 -0.0101  0.2568 -0.3069
20245W        W36319   9.675   4.476  14.180  0.1348  0.5270 -0.1505
20246W        W36320   8.905  18.099   3.364  0.1356 -0.2295  0.2614
20247W        W36321   2.326   2.795  12.563 -0.2675  0.4079 -0.0445
20248W        W36322  14.878  14.307  14.573 -0.0929 -0.2259 -0.0160
20249W        W36323   7.771   8.295   4.586  0.0204 -0.1008  0.0433
20250W        W36324   2.434   0.299   2.854  0.2892 -0.2171  0.0164
20251W        W36325   8.902   7.479  13.416  0.0095  0.2118 -0.0533
20252W        W36326   0.791   2.820   0.058 -0.0068  0.0911  0.0137
20253W        W36327   9.688   0.527   2.317  0.1987  0.1111 -0.1509
20254W        W36328   5.752  11.730   4.968 -0.3455  0.0566  0.0132
20255W        W36329   1.740  17.841   3.049  0.1177  0.0373  0.0532
20256W        W36330   0.635  16.354   1.890  0.0202  0.1574  0.0058
20257W        W36331  16.709   0.215   4.210  0.2900 -0.1410 -0.2468
20258W        W36332  12.268  11.908   2.691 -0.2096  0.1213  0.0575
20259W        W36333  16.398  12.705   0.513  0.0944 -0.0730 -0.2244
20260W        W36334  16.512  15.589  13.495  0.2220 -0.3989 -0.1315
20261W        W36335   4.197   1.302   1.627  0.0357 -0.3680  0.1023
20262W        W36336   1.843   0.898  12.672  0.0198  0.0366  0.4057
20263W        W36337   3.496   6.058   2.830  0.0276 -0.1278  0.2944
20264W        W36338   6.250  16.865   1.188  0.2587 -0.3402  0.0867
20265W        W36339  11.825  15.684   1.081 -0.2553 -0.1819 -0.1780
20266W        W36340   2.178   9.093   5.077  0.2970 -0.0667  0.1173
20267W        W36341  16.035  12.301   4.929 -0.0612 -0.2205 -0.1109
20268W        W36342  17.191   8.004   4.794  0.0056 -0.4126  0.0502
20269W        W36343   0.515   6.408  10.652 -0.2380 -0.0048  0.0504
20270W        W36344  17.460   4.628  11.688  0.1073 -0.1306 -0.2992
20271W        W36345  12.081   9.499   4.438  0.1339  0.0676 -0.1049
20272W        W36346  10.357  13.596   1.990 -0.0955  0.1952 -0.1493
20273W        W36347   8.230   0.022  14.793 -0.1100 -0.1510  0.0504
20274W        W36348   4.314   8.531  13.761  0.0009  0.0921  0.0048
20275W        W36349  13.066   5.638  14.851  0.4595  0.0459  0.0257
20276W        W36350  17.368   5.256   5.606  0.0349 -0.1823  0.0043
20277W        W36351  13.355   2.461   4.153 -0.0110 -0.1165  0.2201
20278W        W36352  12.715  14.815  12.909  0.0670 -0.0588 -0.0895
20279W        W36353  16.617  10.554   1.883 -0.3286  0.2807  0.2747
20280W        W36354  17.892   9.218  14.567  0.0452 -0.0894 -0.1566
20281W        W36355   5.092  10.630  14.860  0.0626  0.0545  0.0208
20282W        W36356   0.535   0.645   4.917 -0.0001  0.0633  0.3472
20283W        W36357  15.202  14.252   4.116  0.3353 -0.0163  0.1747
20284W        W36358   6.344  15.073  13.990  0.1409  0.3631  0.0119
20285W        W36359   0.071  17.542   1.463  0.1691 -0.2306  0.0279
20286W        W36360  10.828  13.416   0.614 -0.1089 -0.0774  0.1243
20287W        W36361  10.253   9.700   4.747 -0.0908 -0.1169  0.1527
20288W        W36362   3.860  18.391  12.594  0.2774 -0.0890  0.3522
20289W        W36363  15.467  11.154   0.996  0.1687 -0.3327  0.1574
20290W        W36364   8.383  12.490  10.863  0.1232 -0.0209  0.1266
20291W        W36365   3.808   7.497   0.870 -0.0104  0.1006 -0.3126
20292W        W36366  10.440  17.383  13.054  0.0126  0.0827 -0.1397
20293W        W36367  15.013  14.000   2.720 -0.0980  0.0255 -0.0414
20294W        W36368  15.662   6.466   1.272  0.2001  0.1235  0.1784
20295W        W36369   0.883   1.342   0.976 -0.0456  0.2868  0.1218
20296W        W36370   2.403   9.671   1.475 -0.2875  0.1761 -0.0206
20297W        W36371  12.967   9.409  12.947  0.0029 -0.0610 -0.0423
20298W        W36372  12.088   7.079  14.636 -0.1120 -0.1038 -0.1413
20299W        W36373  18.366   4.223  10.745  0.2479 -0.2028  0.2984
20300W        W36374  15.086  11.819  10.555 -0.0701  0.1207  0.0434
20301W        W36375  16.180  18.269   1.715 -0.3101  0.0253  0.1854
20302W        W36376  11.919  16.655   2.684 -0.0428  0.2153 -0.0866
20303W        W36377   1.241   4.351  10.848 -0.0552 -0.0271 -0.1646
20304W        W36378  10.167   7.551   2.113 -0.0950 -0.1959 -0.3036
20305W        W36379   9.305   9.374   5.072 -0.2485 -0.0676  0.1331
20306W        W36380   2.345  13.511  12.775 -0.0210  0.1639  0.3678
20307W        W36381   5.575  17.906  11.563  0.1910  0.0490  0.5172
20308W        W36382   3.462  17.425   0.428 -0.1606 -0.1536  0.0705
20309W        W36383  12.280  18.335  14.421  0.1836 -0.0779  0.1882
20310W        W36384  14.149   6.993   4.314  0.1822  0.0102  0.1771
20311W        W36385   8.308  15.999  13.057 -0.0005 -0.3334  0.3258
20312W        W36386   1.391  17.924  11.543 -0.0525  0.4485  0.1659
20313W        W36387  16.559   7.037   3.636 -0.0713  0.0472 -0.1819
20314W        W36388   9.104   8.486  14.606 -0.1158  0.0419 -0.1429
20315W        W36389   0.855  12.656   0.558 -0.1179 -0.1186 -0.4680
20316W        W36390  18.630  14.466  14.678  0.1532 -0.1714  0.2460
20317W        W36391   5.300   4.272   2.037 -0.0854 -0.0707  0.0500
20318W        W36392   7.756  15.089   4.414  0.6860 -0.0573  0.2358
20319W        W36393  15.222   5.296  14.671 -0.2332  0.5112  0.4109
20320W        W36394  14.699  17.163  10.992 -0.1713 -0.1719 -0.0643
20321W        W36395   6.149   1.185  11.612 -0.2252 -0.1121 -0.1736
20322W        W36396  10.219   4.114  14.542  0.0954  0.3087 -0.4201
20323W        W36397   8.469   7.992  11.024  0.1755  0.1955 -0.1702
20324W        W36398  14.954  10.923  12.921 -0.1347 -0.2044 -0.1028
20325W        W36399  11.374  18.598  14.813 -0.0007  0.2068  0.0506
20326W        W36400   2.904   4.241  13.160 -0.0375  0.6050 -0.0883
20327W        W36401  19.173   1.138   2.596 -0.0911  0.1481 -0.0738
20328W        W36402   3.978  14.320  14.482 -0.1050  0.1609 -0.2557
20329W        W36403   7.108  15.835  10.090  0.1893  0.0823 -0.2703
20330W        W36404  14.919  11.716   2.023 -0.0315 -0.0488 -0.3131
20331W        W36405   8.131   8.499  10.394  0.0047  0.1574 -0.2127
20332W        W36406   4.028  14.302   3.144  0.2300  0.0346  0.2191
20333W        W36407   6.738   2.415  14.118 -0.0796 -0.0933 -0.0736
20334W        W36408  16.469  10.208   2.477  0.2484 -0.1021  0.6286
20335W        W36409  18.780   4.266  11.091 -0.1070  0.1118  0.3361
20336W        W36410  10.287   6.356   1.096 -0.0984  0.0868 -0.1853
20337W        W36411  17.156   6.752   4.579 -0.1891 -0.1904  0.1017
20338W        W36412  10.824  18.392   1.986 -0.2511  0.1253  0.2557
20339W        W36413   6.047   1.951  11.197 -0.0827 -0.0366  0.0527
20340W        W36414  15.857   4.457  12.387 -0.0185  0.0508  0.3992
20341W        W36415   1.341   7.308  11.874 -0.0109  0.3134  0.2273
20342W        W36416   9.812   7.185  13.429  0.2027  0.0335 -0.0789
20343W        W36417  11.162  11.306  13.093  0.1640 -0.0361  0.1927
20344W        W36418   0.706   6.381   1.667 -0.0165 -0.0872  0.2413
20345W        W36419   5.999  14.448   5.260 -0.3322  0.1193  0.2302
20346W        W36420   5.592  18.228   3.358  0.2876  0.3308  0.2046
20347W        W36421   7.433   3.003  14.347 -0.0065 -0.0187  0.4106
20348W        W36422   5.165  12.310   0.281  0.0421 -0.1227 -0.0910
20349W        W36423  12.122  17.559  10.446 -0.4860  0.1671 -0.0379
20350W        W36424   4.421   3.014   3.011  0.4962 -0.3207 -0.0403
20351W        W36425   3.170  16.809   1.167 -0.0119 -0.1018  0.1034
20352W        W36426  15.585  15.442   4.462 -0.1517  0.0650  0.0245
20353W        W36427  17.914   2.243  12.008 -0.0599  0.0242 -0.0361
20354W        W36428   3.019  12.491  10.626  0.0699 -0.1931 -0.2673
20355W        W36429   9.200  12.304   0.972 -0.0493 -0.0244  0.0029
20356W        W36430  19.151   9.971  14.589 -0.0865 -0.1041 -0.2451
20357W        W36431   4.007  17.497  12.147  0.0408  0.2515  0.0444
20358W        W36432  16.650   8.108   4.691  0.1629  0.0689  0.0689
20359W        W36433   9.537   3.639   9.926  0.1381  0.3021  0.1474
20360W        W36434  10.806   1.474   9.639 -0.2607  0.0373  0.2065
20361W        W36435  16.907  17.144   2.434 -0.2310  0.0167  0.1895
20362W        W36436   4.747   1.456   9.653  0.0668 -0.0975  0.2329
20363W        W36437   9.419  12.014   4.111  0.2229  0.0054  0.0660
20364W        W36438  13.767   8.313  11.188 -0.3085 -0.1207  0.0098
20365W        W36439  13.082   5.086   4.614 -0.0554  0.0263  0.3694
20366W        W36440   7.575  16.036  14.236  0.0571 -0.2014  0.1000
20367W        W36441  11.360   9.417   3.557  0.1342  0.3567  0.1576
20368W        W36442   4.995   9.474   0.562 -0.0470 -0.0896  0.2683
20369W        W36443  12.476   4.413  11.302  0.1310  0.1855 -0.0134
20370W        W36444   1.021   6.503  12.948  0.3721 -0.1481 -0.1775
20371W        W36445   4.558  10.720   1.182 -0.1422 -0.0814  0.0634
20372W        W36446   1.410  15.574   1.781 -0.1786 -0.0549  0.1462
20373W        W36447   8.562  16.787   2.622 -0.1480 -0.1281  0.1343
20374W        W36448   4.807   1.351   4.381 -0.0662 -0.0552  0.0612
20375W        W36449  11.210  13.334   1.831  0.0919  0.0237  0.0404
20376W        W36450  18.075   5.993  14.201 -0.0431  0.0801  0.3962
20377W        W36451   0.405   1.347   0.326 -0.0353 -0.0493  0.1100
20378W        W36452  13.917  17.685  11.839  0.2551 -0.0766  0.0158
20379W        W36453   4.362   7.591   3.987  0.3523 -0.1784  0.3026
20380W        W36454   8.823  19.077   3.375  0.0856 -0.0246  0.0296
20381W        W36455  13.129  10.442   0.749 -0.0680  0.2683  0.0983
20382W        W36456  10.684   5.079   2.340 -0.1282 -0.2836  0.0124
20383W        W36457   4.678  10.415   1.978  0.0492  0.1024 -0.0568
20384W        W36458   2.453   9.666   3.343 -0.0296  0.1405  0.2397
20385W        W36459   9.843   3.905   3.550  0.0445  0.2203 -0.0358
20386W        W36460   4.830  10.417  13.535 -0.2087  0.2326  0.2314
20387W        W36461  10.030  12.511   2.732  0.0164 -0.4206 -0.0348
20388W        W36462  11.108   0.437   3.343  0.0213  0.1131 -0.2456
20389W        W36463   8.880  17.318  11.468  0.0340  0.1969 -0.1580
20390W        W36464   7.597   9.919   2.427  0.0649 -0.0985  0.3650
20391W        W36465  18.447   4.592  10.395 -0.1300 -0.3690  0.4213
20392W        W36466  10.597   3.403   2.470 -0.1861 -0.0080 -0.0972
20393W        W36467   5.362  16.771   3.194  0.1492  0.4902  0.1655
20394W        W36468   4.040   6.385  14.971 -0.0482  0.2025  0.0660
20395W        W36469   4.776  10.826   1.709  0.2367  0.0228 -0.1927
20396W        W36470  18.210   8.232   2.188  0.3679  0.0810 -0.5983
20397W        W36471   2.734   2.904   0.471 -0.2218  0.1200 -0.1774
20398W        W36472   2.860   7.896   3.313  0.0133  0.0339  0.2939
20399W        W36473   3.998  13.165   1.911 -0.0442  0.3424  0.1094
20400W        W36474  15.268   4.719  10.540  0.1665  0.0817  0.0435
20401W        W36475   2.619   5.238   0.309 -0.0839  0.0849 -0.0478
20402W        W36476  14.264  19.339   5.686 -0.1456  0.0996 -0.0312
20403W        W36477  13.799  10.348   3.035 -0.0574 -0.1783  0.0309
20404W        W36478   8.767   8.705  13.532 -0.0370 -0.1421 -0.1629
20405W        W36479   9.716   8.599   0.172  0.3016  0.0934  0.2752
20406W        W36480   1.095   9.781  14.748 -0.0157 -0.1328  0.1010
20407W        W36481   5.099   9.265  14.530  0.0812 -0.1490  0.0855
20408W        W36482  12.504   3.414   3.804  0.0095 -0.0684  0.0030
20409W        W36483   3.455  15.323  10.224 -0.3914 -0.0556  0.2707
20410W        W36484  13.302   3.989   4.849  0.0279  0.0577 -0.3106
20411W        W36485   2.926   7.836   2.850 -0.0979  0.2865  0.0448
20412W        W36486  16.229   3.501   0.042  0.0200 -0.0984 -0.5430
20413W        W36487   4.400  18.910   2.258 -0.0113 -0.2885  0.3079
20414W        W36488   8.386   7.881  14.681 -0.2899  0.1475  0.0707
20415W        W36489   4.627   2.737   4.479 -0.2272  0.0322  0.0065
20416W        W36490  17.393   4.868   2.085 -0.2536 -0.1499  0.1121
20417W        W36491   0.160  10.459   2.970 -0.0284 -0.4063 -0.1411
20418W        W36492  11.433  13.571   3.834  0.1731  0.2633 -0.0763
20419W        W36493  17.118  12.934   2.452  0.0417 -0.2850  0.2008
20420W        W36494   5.387   2.706   4.113  0.1448 -0.3752 -0.0148
20421W        W36495  10.380   5.978   1.530 -0.4076 -0.0916  0.1740
20422W        W36496   2.762  11.598   0.729 -0.0569 -0.1263 -0.2570
20423W        W36497   7.215  16.492   0.569 -0.0657 -0.1340 -0.0663
20424W        W36498  15.363   6.495  11.737 -0.0122 -0.1801 -0.2233
20425W        W36499  11.577  16.155   3.611 -0.2471 -0.1684  0.0385
20426W        W36500  17.439   3.014   3.247 -0.0796 -0.0376 -0.0946
20427W        W36501   0.056  10.226   1.743  0.0055  0.0214  0.1406
20428W        W36502  19.006   9.982   4.651  0.1730  0.0659  0.0093
20429W        W36503   2.445  18.042   1.496 -0.1185 -0.2414 -0.1283
20430W        W36504   4.120   3.778   2.650  0.1236 -0.0937  0.0791
20431W        W36505   8.272   4.733   1.624 -0.2285 -0.0803 -0.2853
20432W        W36506   4.763   4.608  12.668  0.0993 -0.0693 -0.0351
20433W        W36507  18.991   3.231  13.653  0.2573 -0.0767 -0.1440
20434W        W36508  10.802   3.473  14.539  0.0352 -0.3181  0.2709
20435W        W36509   6.036   3.121  11.146  0.1460 -0.0844  0.1238
20436W        W36510  19.255   5.764   3.422  0.3171 -0.0727  0.0618
20437W        W36511  18.100   6.392  10.948  0.1734  0.1042  0.2499
20438W        W36512   2.140  13.717   0.476  0.0071  0.1880  0.2935
20439W        W36513   8.324  12.432   0.420 -0.0298  0.2213 -0.1312
20440W        W36514  15.268  15.445   2.632 -0.0594 -0.0282 -0.1062
20441W        W36515  14.061  10.288  12.939  0.0519 -0.1364  0.0454
20442W        W36516  12.747   4.212   3.946  0.2497  0.0678 -0.0917
20443W        W36517   4.822  12.584  14.282  0.2389 -0.0240 -0.0567
20444W        W36518   4.963  15.942  12.513 -0.3602  0.1815 -0.1019
20445W        W36519   1.093  11.459   3.316 -0.1983 -0.1170 -0.4357
20446W        W36520  13.294  11.809  11.314 -0.0238 -0.2705 -0.0607
20447W        W36521   7.333   1.543  12.599 -0.0409  0.2029  0.1357
20448W        W36522  11.752   2.601   2.842  0.4902  0.2398 -0.0314
20449W        W36523   8.499   0.777   0.781  0.1090  0.0611  0.3078
20450W        W36524   0.663   3.761   1.938 -0.0309 -0.2800 -0.3267
20451W        W36525  10.795  19.298  14.109  0.1012 -0.0638 -0.1106
20452W        W36526  10.005   8.746   2.524 -0.1219 -0.0893  0.2580
20453W        W36527   2.588  11.192  14.816 -0.1894  0.0991  0.0768
20454W        W36528   0.984  16.245   2.234  0.3549  0.0480 -0.2381
20455W        W36529   2.075  12.109   1.339 -0.3604 -0.2306 -0.0005
20456W        W36530  10.934   3.221   3.227  0.0506 -0.0562 -0.0338
20457W        W36531  18.437   8.908  13.383 -0.1265  0.0910 -0.1094
20458W        W36532  14.261   0.236   4.012  0.0330  0.0686 -0.2551
20459W        W36533  14.450   9.913  11.655  0.2284  0.0997  0.0968
20460W        W36534  16.208   9.705  11.662  0.0966 -0.0354  0.4667
20461W        W36535  17.224   2.933   6.192 -0.1080  0.0478 -0.1585
20462W        W36536   6.216   7.786   5.151 -0.2001 -0.0217  0.0708
20463W        W36537   3.267   6.822   0.562  0.0931 -0.4588 -0.1459
20464W        W36538   8.150   1.172  10.287  0.1808  0.0013 -0.3125
20465W        W36539  10.286   6.068  14.964  0.0305 -0.2239 -0.0235
20466W        W36540  16.994  10.963   1.760  0.0431 -0.0232  0.0226
20467W        W36541   8.174  19.230   0.453 -0.1593  0.0923  0.1817
20468W        W36542   1.633  13.102  12.072  0.1021 -0.2437 -0.0373
20469W        W36543   2.260  11.489   0.959  0.2158  0.1322 -0.0940
20470W        W36544  12.576   4.805   9.214  0.1189 -0.4976 -0.0682
20471W        W36545   2.866   5.003  11.880 -0.3835  0.0846 -0.0717
20472W        W36546   9.064  14.726   4.294 -0.0303  0.3524  0.4514
20473W        W36547  10.634  10.289   0.671  0.0346 -0.3697 -0.1036
20474W        W36548  16.376   0.680   0.569  0.0656 -0.0733  0.1949
20475W        W36549  19.288   2.694  12.264  0.0697  0.1206  0.1817
20476W        W36550   3.572   6.516  11.205 -0.3302 -0.0717 -0.1253
20477W        W36551   7.228   5.610   1.367  0.4088 -0.4251  0.0497
20478W        W36552   4.368   9.641   4.839  0.0518 -0.3127  0.2808
20479W        W36553  14.088  16.243   4.599 -0.1512 -0.3507  0.0915
20480W        W36554  11.016   3.307  14.968 -0.0261 -0.1490 -0.1170
20481W        W36555   7.922   2.900  11.515  0.0489  0.3447 -0.2381
20482W        W36556  16.275  16.946  12.161  0.0978 -0.0500  0.3653
20483W        W36557   0.948   2.578   2.630 -0.0433  0.2270  0.0672
20484W        W36558  11.708  10.377   3.559 -0.1311 -0.0493  0.4502
20485W        W36559  13.403  12.396  15.000  0.4387  0.1662 -0.0349
20486W        W36560  13.709  11.873  14.469  0.0806 -0.0105  0.2406
20487W        W36561   7.235  16.495  12.495  0.1681 -0.2483  0.2109
20488W        W36562   4.322  15.170  12.608  0.5048 -0.1755  0.0580
20489W        W36563   4.908  10.823  13.860  0.0825  0.0384 -0.0206
20490W        W36564  17.332   3.808   4.882 -0.0918  0.1095 -0.2150
20491W        W36565  15.071   7.989   4.998  0.1133 -0.1139  0.0482
20492W        W36566   8.060  18.143  12.794  0.2338 -0.0185 -0.2276
20493W        W36567   0.251  18.954   4.981 -0.2541 -0.1213 -0.1179
20494W        W36568  17.652  15.227  12.625 -0.5546  0.1319  0.0405
20495W        W36569  19.095  14.797   0.774 -0.1012  0.0312 -0.2049
20496W        W36570   8.577   7.552   3.168  0.0539 -0.0602  0.2337
20497W        W36571  18.536  13.922   0.579  0.1481 -0.3339 -0.1083
20498W        W36572  13.869  12.146   2.815  0.0984 -0.2371 -0.1704
20499W        W36573  14.984   2.071  11.336 -0.0904 -0.0538  0.4981
20500W        W36574   9.872  11.070   2.400  0.1525 -0.2641 -0.1054
20501W        W36575   1.196   0.346   4.872  0.1624  0.1161 -0.1970
20502W        W36576   4.430  14.043  14.381  0.1739  0.0313 -0.2850
20503W        W36577   9.862  10.481  14.458  0.1156 -0.0335 -0.1959
20504W        W36578  15.487   6.170   2.630 -0.3300  0.0941 -0.3291
20505W        W36579   2.915  11.708  13.629 -0.0955  0.1491  0.0883
20506W        W36580  19.098  18.106   5.155 -0.1906 -0.0342 -0.1021
20507W        W36581   0.579  18.016   5.469 -0.0396  0.3449  0.1662
20508W        W36582   1.478   1.343   3.905  0.1689  0.1268  0.0873
20509W        W36583   1.377   3.878   5.189  0.0745 -0.0057 -0.0724
20510W        W36584   4.184  15.324  13.362  0.2023  0.1701 -0.1494
20511W        W36585  19.028  17.964  14.683  0.1946  0.0411 -0.0750
20512W        W36586  18.485   1.677   4.395  0.3542 -0.1191  0.0407
20513W        W36587  17.304   3.651   2.973  0.1930  0.0142  0.0803
20514W        W36588  14.657  15.141   0.434 -0.0093 -0.1183 -0.0274
20515W        W36589  10.386   8.280   3.520 -0.1243  0.0602  0.0116
20516W        W36590  17.052   9.558   4.631  0.1746 -0.2318 -0.1076
20517W        W36591  13.010   7.022   4.889 -0.0537 -0.3844 -0.2079
20518W        W36592   1.574   2.892  14.503  0.1501 -0.5414 -0.0316
20519W        W36593  15.179  13.716  11.969  0.1938  0.3957 -0.2425
20520W        W36594  10.077  12.453  12.580  0.0190  0.4790 -0.0717
20521W        W36595   1.171   3.524   2.844  0.0757 -0.0623 -0.2068
20522W        W36596   5.928   7.525  11.873  0.1557  0.1898  0.1569
20523W        W36597   9.630  10.122   0.303 -0.3908 -0.0995  0.0657
20524W        W36598  10.169  12.194  11.658  0.2982  0.0649  0.2413
20525W        W36599   9.440   9.449  12.701  0.1013 -0.1529 -0.2200
20526W        W36600   1.162  14.813  10.977 -0.2734  0.1739 -0.0052
20527W        W36601   7.663   8.569   1.876 -0.0610 -0.0503 -0.3169
20528W        W36602   5.995  14.569   2.722 -0.2693  0.2050 -0.2053
20529W        W36603   3.703  16.724   1.056 -0.2533  0.0633  0.2528
20530W        W36604   7.944   0.376  13.325 -0.1850  0.0698  0.2708
20531W        W36605  19.063  17.302   2.482 -0.0006  0.1465  0.1677
20532W        W36606   6.109   3.241  13.269  0.0366 -0.3524 -0.1295
20533W        W36607   8.836   4.975   0.695 -0.4485  0.2949  0.0245
20534W        W36608   0.295   3.150   2.804 -0.1970  0.2251 -0.0128
20535W        W36609   5.565   5.640   1.883 -0.0039  0.3418  0.0688
20536W        W36610   2.830  17.483   2.937  0.0830  0.3534  0.2347
20537W        W36611  10.034  13.431   1.064  0.1483 -0.1781 -0.0310
20538W        W36612   3.152   7.432   2.742  0.0716  0.1932 -0.0850
20539W        W36613  15.913   3.943  12.639 -0.0173  0.1833  0.0735
20540W        W36614  11.353   2.518  14.510 -0.1930  0.3207 -0.2486
20541W        W36615  19.314   8.673   4.670 -0.0244 -0.2392  0.0324
20542W        W36616  17.194  14.033  11.357  0.0328 -0.1211  0.1114
20543W        W36617   0.743   8.980  13.038  0.0529  0.4226  0.3049
20544W        W36618   6.804  13.501  11.800  0.3824  0.1532 -0.3828
20545W        W36619  13.725   4.771  12.285 -0.2917  0.1151 -0.1560
20546W        W36620  10.975   7.108   2.335 -0.0618  0.3089  0.2126
20547W        W36621   3.599  17.046  13.013 -0.0021 -0.2633  0.1234
20548W        W36622   2.039  10.037  12.998 -0.0228  0.0068  0.1423
20549W        W36623  13.326   5.773  12.131 -0.0773  0.1562 -0.1900
20550W        W36624   7.228  10.030   3.788 -0.4825 -0.0894 -0.0616
20551W        W36625  10.018   6.896  11.041  0.2549  0.0590 -0.3327
20552W        W36626  14.352   7.977  12.553 -0.4614 -0.0584  0.2032
20553W        W36627  12.501   8.039  12.732 -0.0029 -0.0425  0.0198
20554W        W36628   1.732   7.177  12.498  0.0957  0.5448 -0.1851
20555W        W36629   7.574   2.718  14.777  0.5776 -0.2574  0.0521
20556W        W36630   0.596   3.678  11.185  0.1301 -0.2832  0.1365
20557W        W36631   1.348  17.237   0.889 -0.3586  0.0326  0.0120
20558W        W36632  13.849   7.774  11.268 -0.2263  0.0045  0.0690
20559W        W36633   7.585   5.112   3.372  0.0233 -0.2772  0.0628
20560W        W36634   1.129   5.644  10.997 -0.1862  0.1121  0.0349
20561W        W36635  10.627   1.167  12.996  0.1193  0.1224  0.0802
20562W        W36636  13.534  14.606  13.046  0.2134 -0.0076  0.1869
20563W        W36637  16.822   4.785  13.317 -0.2662 -0.0563 -0.0952
20564W        W36638  12.877   5.671   5.792 -0.3762  0.0467  0.3215
20565W        W36639  16.832   7.792  11.441  0.2290  0.3015 -0.2994
20566W        W36640   7.710   5.169  13.917  0.3068 -0.0861  0.1345
20567W        W36641  14.659   3.979  13.808  0.0091  0.0585 -0.1033
20568W        W36642   1.055   1.293  11.384 -0.2207 -0.0721 -0.2146
20569W        W36643  12.176   4.659  11.751 -0.4892  0.2183  0.2008
20570W        W36644  11.431   4.484  11.378 -0.0168 -0.2155  0.1325
20571W        W36645   1.221   1.416   3.000  0.0150 -0.1405  0.0156
20572W        W36646   7.288   4.837  10.898  0.0181 -0.1838 -0.1327
20573W        W36647  11.136  16.569   2.786 -0.1907 -0.0587 -0.1000
20574W        W36648  17.147   1.065  12.178  0.2926 -0.1426 -0.1124
20575W        W36649  13.343   4.954  14.177  0.1064  0.2034  0.4816
20576W        W36650  15.238  10.922  13.382 -0.0940  0.0972  0.0732
20577W        W36651   6.996  17.577   9.122  0.3067  0.1076  0.0949
20578W        W36652   6.290   5.745  14.630  0.0120 -0.0117 -0.2170
20579W        W36653  17.036   3.023   3.552 -0.2500  0.0167 -0.0447
20580W        W36654   3.944   1.613  13.402  0.0700  0.1337 -0.0042
20581W        W36655   4.421   2.918   0.186 -0.5214  0.1509  0.1520
20582W        W36656   8.043  17.409   3.132 -0.1801  0.1196 -0.2179
20583W        W36657   9.871   6.261  12.951 -0.1512  0.0318 -0.1477
20584W        W36658  14.755   2.829   4.128  0.0049 -0.0595 -0.2243
20585W        W36659   4.973  17.320  10.451 -0.3587 -0.3035 -0.0715
20586W        W36660   3.759  16.358  12.387 -0.0082 -0.2274 -0.1583
20587W        W36661  18.163   4.956  14.542 -0.1135 -0.1110 -0.1506
20588W        W36662  12.027  17.101  14.516  0.0623 -0.0699  0.0116
20589W        W36663   7.316   3.527  12.762 -0.2779  0.1053  0.0360
20590W        W36664   2.463  13.770  13.307  0.3137 -0.1627  0.1080
20591W        W36665   1.251  13.856   4.654 -0.0457  0.3916  0.2060
20592W        W36666   0.284  12.204   1.614  0.0757  0.1881 -0.0403
20593W        W36667   0.019   0.320   5.099  0.1173  0.0598  0.0024
20594W        W36668  13.915  18.814   9.232 -0.2430  0.3485  0.1084
20595W        W36669   8.102   4.183  10.608  0.1141 -0.3145 -0.0560
20596W        W36670   1.481  13.128   2.408 -0.2274  0.2323 -0.0424
20597W        W36671   7.712   5.725  13.282 -0.0413  0.0079 -0.0143
20598W        W36672   6.207  15.735   3.663  0.1417 -0.1819 -0.1817
20599W        W36673  19.044   6.567  14.396  0.0082  0.0645 -0.2807
20600W        W36674   3.631   8.632   3.922 -0.2919  0.3254  0.2862
20601W        W36675   3.934  17.154   0.304 -0.0880  0.2353 -0.0409
20602W        W36676   5.022  16.610  13.680 -0.1041  0.2579 -0.4369
20603W        W36677   7.441   8.263   0.730 -0.2362 -0.0379 -0.0921
20604W        W36678   7.783   2.836   1.970 -0.2035  0.0782  0.1461
20605W        W36679   6.276  11.499  14.918 -0.1342  0.1554 -0.0579
20606W        W36680  16.244   3.239   0.904  0.0422 -0.0416 -0.2254
20607W        W36681  15.048   9.690  12.213  0.0298 -0.3244  0.2270
20608W        W36682  11.444  18.207  14.025 -0.0142  0.3228 -0.0906
20609W        W36683   0.657  18.690  10.845 -0.1762 -0.2368  0.2128
20610W        W36684  18.668  11.976  11.196  0.2355  0.1567 -0.0226
20611W        W36685   0.227   0.947   3.923  0.0780  0.1301 -0.0359
20612W        W36686   8.415  13.672  13.043  0.2168  0.2691  0.3484
20613W        W36687   9.400   3.463   1.480  0.1562 -0.0034  0.1073
20614W        W36688  12.950  17.601   3.905 -0.5193 -0.0732  0.2835
20615W        W36689   9.159  11.777  10.090 -0.1092 -0.1803  0.3424
20616W        W36690   1.953   7.835  11.266 -0.0827  0.2894 -0.0551
20617W        W36691  11.852  18.107  14.341  0.1782 -0.2211  0.1939
20618W        W36692  15.212   8.082  10.012  0.3654 -0.0529  0.0318
20619W        W36693  11.985   2.172  12.137 -0.0407  0.4670  0.1542
20620W        W36694   0.162  13.577   5.862  0.0961  0.0904 -0.0668
20621W        W36695  15.418  18.402  13.858 -0.0988 -0.2989 -0.4817
20622W        W36696  10.148   4.129   4.577 -0.1897  0.0659  0.0586
20623W        W36697   1.164   9.380   1.832  0.1080 -0.0550  0.1987
20624W        W36698   0.581   6.796  14.888 -0.0309  0.3552  0.2669
20625W        W36699  13.503  13.672  11.371 -0.0396  0.0173  0.2663
20626W        W36700   9.105   8.996  12.344 -0.0597 -0.0321 -0.2971
20627W        W36701   5.012  14.627  11.992  0.2848  0.1429  0.0213
20628W        W36702   1.853  18.880  14.323  0.0890 -0.1315  0.1909
20629W        W36703   0.990  15.897  12.734 -0.2143  0.2043  0.1793
20630W        W36704   6.141   2.307  12.695  0.3498 -0.2129  0.1919
20631W        W36705  18.364   3.606  11.675  0.2135  0.1131 -0.1328
20632W        W36706   1.709  13.105  13.734  0.0385 -0.0643  0.2343
20633W        W36707  13.807   2.859   9.972 -0.0744 -0.2087  0.3891
20634W        W36708  12.708  12.566   0.403  0.3986 -0.0633  0.1125
20635W        W36709  12.504  12.326   4.020 -0.0472 -0.0821 -0.1096
20636W        W36710   5.524  10.728   1.073  0.0167 -0.1061  0.4593
20637W        W36711  18.166   2.831   1.794  0.0238 -0.2293 -0.1229
20638W        W36712   4.867  10.204   0.969  0.2815 -0.1046 -0.1534
20639W        W36713  15.185   6.614  12.885 -0.2563  0.0321 -0.0228
20640W        W36714   2.329   2.319  12.433 -0.0014 -0.1634  0.1919
20641W        W36715  11.443   8.657  10.193 -0.0858 -0.1033  0.0410
20642W        W36716  15.565   5.150   4.641  0.3301  0.1824  0.1788
20643W        W36717  10.997   2.541  11.837 -0.1960  0.0670 -0.0204
20644W        W36718  15.996   6.102   4.595 -0.3717 -0.2477  0.1060
20645W        W36719   3.197  13.584   2.512 -0.0998 -0.2194  0.0106
20646W        W36720  17.323   0.389  11.260  0.0575 -0.1424 -0.0769
20647W        W36721   3.560  16.046   3.742  0.3915  0.0413  0.2237
20648W        W36722   5.976  11.887  14.571 -0.2532 -0.0213  0.1372
20649W        W36723   7.449  18.415   0.882 -0.1853 -0.1931  0.0728
20650W        W36724  14.728   6.318  11.801 -0.1169 -0.0411 -0.0403
20651W        W36725   5.976   0.569  12.660  0.4203  0.0472  0.6142
20652W        W36726   8.538   0.576  12.267  0.0028  0.2926 -0.1106
20653W        W36727  11.358   8.009   5.726  0.0209 -0.1207  0.2872
20654W        W36728  12.836  15.334   1.091 -0.2272  0.1542  0.0224
20655W        W36729  16.598   1.780  13.332 -0.0258 -0.0662  0.1822
20656W        W36730   9.729  11.245   0.115  0.1535  0.3072 -0.1402
20657W        W36731   1.402  18.803   4.205 -0.0190  0.5166 -0.0658
20658W        W36732  11.368   9.908  12.431  0.1559  0.0513 -0.2452
20659W        W36733  12.833   4.536   5.626  0.0787 -0.0554 -0.3589
20660W        W36734  17.613   8.189  11.123  0.0603  0.0210 -0.0399
20661W        W36735  13.259  18.482  14.147  0.4541  0.3545  0.0199
20662W        W36736  15.759  15.863  12.200  0.0217  0.2646 -0.0399
20663W        W36737   0.709   9.949  13.063 -0.2430 -0.0178 -0.1677
20664W        W36738  16.389  15.094  10.773  0.0090 -0.1555  0.0921
20665W        W36739  13.951  17.643  14.919  0.0835 -0.1168  0.2861
20666W        W36740  12.739   0.991  12.640 -0.2694  0.0533 -0.0768
20667W        W36741  17.760  11.808  14.498 -0.3534  0.3557 -0.0877
20668W        W36742  16.087   1.818   3.079 -0.1053 -0.4891 -0.0720
20669W        W36743   3.514   0.552  14.794 -0.1485 -0.0729 -0.2213
20670W        W36744  11.955   0.797   2.482 -0.0423 -0.3241  0.0515
20671W        W36745   1.090  18.025   2.146 -0.2668  0.0349  0.0325
20672W        W36746   3.964  10.615  12.570 -0.1162 -0.0503  0.2805
20673W        W36747  10.595  12.580  13.337  0.2359  0.1343 -0.0370
20674W        W36748   2.565   9.947   1.060 -0.2621 -0.1921 -0.1648
20675W        W36749  13.540  11.869  11.838  0.1383 -0.0871  0.1216
20676W        W36750   3.917   6.860   1.951 -0.0963  0.0171 -0.0497
20677W        W36751   5.422   9.339  10.817  0.0827 -0.1572  0.0818
20678W        W36752   9.827   7.286   4.438  0.0266 -0.0106  0.3668
20679W        W36753  16.574   8.914  11.567  0.1020 -0.2094 -0.3379
20680W        W36754  17.466  16.458   4.601 -0.1671  0.0306 -0.0605
20681W        W36755   9.635   0.749  11.988  0.0415 -0.3318  0.3628
20682W        W36756   6.908   6.084   1.690 -0.2695  0.0519 -0.1016
20683W        W36757  14.392   1.416   5.762  0.0525 -0.2546  0.0297
20684W        W36758   0.381   2.577  10.455 -0.2282  0.2576 -0.4488
20685W        W36759  10.728   4.396  12.744 -0.1279  0.2253  0.1028
20686W        W36760   3.301   4.096  10.130 -0.1106  0.0265  0.1806
20687W        W36761   3.200   9.517  11.053 -0.2503 -0.0038 -0.0830
20688W        W36762  13.084  14.708   1.909 -0.2178  0.2095  0.2031
20689W        W36763   3.473  16.072   9.132  0.0135  0.0162  0.1869
20690W        W36764   8.413  11.702   1.808 -0.1306  0.1389  0.0207
20691W        W36765  10.285   6.029   9.577 -0.1914  0.3345 -0.0804
20692W        W36766  16.472   7.457   1.659  0.1667 -0.0882  0.1221
20693W        W36767   3.251   5.192  10.979  0.2066  0.2271 -0.3104
20694W        W36768  16.916   7.879  12.431  0.3910  0.2153  0.2000
20695W        W36769  18.332  12.361  11.228  0.2376 -0.0474  0.1148
20696W        W36770   6.573  17.021   1.661  0.1792  0.0860 -0.0454
20697W        W36771   0.367   7.297  10.834 -0.0146 -0.0766 -0.0347
20698W        W36772  16.801  19.251   3.837  0.1239 -0.0077 -0.0059
20699W        W36773   9.306  16.173   1.683  0.3290  0.1148  0.0267
20700W        W36774   4.912  12.542   1.125  0.1869  0.1250  0.0124
20701W        W36775   0.052   5.882   1.407  0.1665  0.1118  0.2659
20702W        W36776  11.217   3.666   3.200  0.2151 -0.1000  0.4728
20703W        W36777  11.892  13.907   1.150 -0.4342 -0.1122 -0.0048
20704W        W36778  12.360   0.841  12.331 -0.0253 -0.3027  0.0974
20705W        W36779   6.514   1.276   9.917 -0.2225 -0.3212 -0.1441
20706W        W36780   8.365  13.149   1.310 -0.2712 -0.2029 -0.3126
20707W        W36781  13.117   1.571  14.912 -0.5202 -0.1496  0.4715
20708W        W36782   9.885   2.513  11.781 -0.1039 -0.0971  0.2852
20709W        W36783  11.305   5.827  13.940  0.2533 -0.1600 -0.1571
20710W        W36784  16.204  14.605   4.069  0.1678  0.2964  0.0945
20711W        W36785  14.192   1.727  12.803  0.3932  0.1174  0.0421
20712W        W36786  14.001   8.371  12.690  0.3800  0.0039 -0.0041
20713W        W36787  12.359   2.050   3.893  0.0460  0.0404 -0.0923
20714W        W36788  13.088   4.929  10.944 -0.0024 -0.0415  0.2309
20715W        W36789   9.953  10.062   1.487  0.0109 -0.0915 -0.0696
20716W        W36790  14.344  18.093   1.897 -0.3523 -0.0887  0.1737
20717W        W36791   8.126   3.051   3.202 -0.1131 -0.1855 -0.2086
20718W        W36792   2.059  10.325   0.338  0.3577  0.2737  0.1497
20719W        W36793  17.664   3.148   3.683 -0.1929  0.0093 -0.0491
20720W        W36794  14.483  17.713   0.298  0.3775  0.1149 -0.0564
20721W        W36795   7.819   3.778   1.560  0.1777  0.2977  0.2215
20722W        W36796  14.042   4.596  11.878 -0.1273 -0.1145 -0.0263
20723W        W36797   9.928  10.546  13.886  0.0393  0.5492 -0.2079
20724W        W36798  13.309  11.819   4.321 -0.0932  0.0022  0.3555
20725W        W36799  10.339  14.056  10.411  0.3642 -0.0800  0.0497
20726W        W36800   3.938   4.638   1.805 -0.0475  0.0180  0.2456
20727W        W36801   4.518  10.723  12.549 -0.1019 -0.1310  0.4294
20728W        W36802   8.723  19.339   5.136  0.2762  0.0558 -0.5039
20729W        W36803  12.526   3.798   4.208 -0.2929  0.4384  0.1770
20730W        W36804  12.222  14.093  12.902 -0.2263  0.0123  0.2153
20731W        W36805   8.378   3.078   4.233 -0.1203  0.0792  0.0232
20732W        W36806   6.581   7.755   1.755 -0.1936 -0.0311  0.2674
20733W        W36807  10.816   2.346   2.389 -0.1952  0.1581  0.0094
20734W        W36808   9.425  19.241  14.645  0.3634 -0.0368 -0.0048
20735W        W36809   4.310  13.665   4.592 -0.1463 -0.0927  0.0233
20736W        W36810   3.049   8.756  14.781 -0.1276  0.2804 -0.3799
20737W        W36811  12.558   5.625   2.861  0.1658  0.2306  0.1484
20738W        W36812  13.012   3.645   1.149 -0.3121  0.4439 -0.1354
20739W        W36813  14.241  15.999   4.163  0.2362  0.2316 -0.2011
20740W        W36814   5.176   4.735  13.610 -0.1815  0.0157 -0.1815
20741W        W36815  16.714   3.038  13.350  0.1251 -0.2903  0.0526
20742W        W36816   0.095   9.639   5.413 -0.1639  0.1756 -0.1541
20743W        W36817   1.829  14.726  14.695  0.1070  0.0782 -0.2501
20744W        W36818   7.184  11.992   4.930 -0.0470  0.2726  0.0999
20745W        W36819  14.654  11.187   1.911  0.2600 -0.0228 -0.3038
20746W        W36820  17.491   0.759  10.489 -0.3965  0.0507  0.2026
20747W        W36821   5.384   8.798   4.581 -0.1733  0.2901 -0.1859
20748W        W36822   0.746   2.325   4.774 -0.1068  0.0270  0.0127
20749W        W36823   8.683  13.501   1.309  0.0369 -0.0120  0.0015
20750W        W36824   1.415  10.560   1.571 -0.2028  0.0181 -0.1822
20751W        W36825  14.530  18.137  13.592 -0.0479  0.1235 -0.2734
20752W        W36826   2.413   2.800  11.021  0.0870 -0.0033  0.0359
20753W        W36827   2.772  13.248  14.849 -0.0541 -0.0408 -0.1928
20754W        W36828   0.283   8.870   5.010  0.0246  0.3516 -0.0265
20755W        W36829  16.292  15.452   3.430  0.3229  0.3305  0.3179
20756W        W36830  15.063  10.959   4.710  0.0967  0.0450  0.2913
20757W        W36831  10.094   3.451   5.232 -0.0864 -0.2671  0.2021
20758W        W36832  14.414  17.094  11.506 -0.0284 -0.0142 -0.0646
20759W        W36833   0.983  14.454   0.115  0.0301  0.2353 -0.1499
20760W        W36834  14.334   9.202  12.303  0.0564 -0.1554  0.0677
20761W        W36835  17.099  15.612   1.680 -0.2253 -0.1767  0.1822
20762W        W36836  13.205   2.876   4.945  0.0074 -0.1381  0.1231
20763W        W36837   5.873   6.282   5.417  0.3561 -0.2807  0.1597
20764W        W36838   4.845   9.740   0.091  0.0826  0.1002 -0.2447
20765W        W36839   6.105  13.860   2.289  0.1810  0.1243  0.0168
20766W        W36840  10.932  15.608  12.446 -0.0350 -0.0123  0.1621
20767W        W36841  18.715   2.319  11.790 -0.0427  0.0591  0.2050
20768W        W36842   8.506   7.277   1.418 -0.1626  0.0975 -0.0915
20769W        W36843  18.724   5.751  11.286  0.2610  0.0025 -0.1697
20770W        W36844   3.863  18.230   0.606  0.1311 -0.2165 -0.1105
20771W        W36845  10.438  14.795  12.719 -0.1182 -0.0563  0.2491
20772W        W36846   0.854  10.991   3.817  0.1060  0.1384  0.5361
20773W        W36847  16.280   8.098  13.955 -0.2028 -0.2366 -0.2959
20774W        W36848  18.482  16.554  11.716 -0.0348  0.0533  0.4116
20775W        W36849   1.999  15.679   3.559  0.1409 -0.2065  0.1855
20776W        W36850  17.410   3.417  13.085  0.0861 -0.0604  0.2816
20777W        W36851  18.396   9.145   3.386 -0.1589 -0.2755  0.1543
20778W        W36852   8.636  11.142  12.150 -0.1323  0.2312 -0.3559
20779W        W36853   4.241  10.092  14.292 -0.2357 -0.2313  0.0080
20780W        W36854  17.938  15.572  14.769 -0.2259 -0.3789  0.0593
20781W        W36855   1.379  16.220   4.340 -0.0052  0.1612  0.1553
20782W        W36856   0.628  10.574   2.766 -0.1369 -0.2650  0.3264
20783W        W36857  14.989  10.141   4.550 -0.1394 -0.2842  0.0496
20784W        W36858  10.431  10.431   2.807 -0.1055 -0.1879 -0.0921
20785W        W36859   6.654   3.167   1.493  0.2991  0.2527 -0.3557
20786W        W36860  18.900  15.837   3.400  0.0452  0.1486  0.2096
20787W        W36861  11.763  13.520   0.393  0.0337  0.1437  0.1315
20788W        W36862   1.381   3.243   4.071  0.0781  0.0925  0.5403
20789W        W36863   7.838   0.832  12.584 -0.3692  0.1402 -0.2220
20790W        W36864   7.493   0.603  13.407  0.2506  0.2183 -0.1247
20791W        W36865   7.502  16.972  12.784  0.1625  0.0055 -0.0126
20792W        W36866   9.678   0.618  10.450  0.1532  0.2197  0.1936
20793W        W36867   1.127   5.364   5.433  0.0494 -0.1641  0.0505
20794W        W36868  10.857  12.946   9.233  0.4636  0.3329 -0.2191
20795W        W36869  17.369  14.033  12.890  0.1496  0.0669 -0.1594
20796W        W36870   4.395  17.151   1.144 -0.0981  0.0261  0.0829
20797W        W36871  15.642  18.135   1.117 -0.2090 -0.3256 -0.1580
20798W        W36872   8.918   2.225  14.581  0.3769 -0.0805 -0.0778
20799W        W36873   2.515   2.047  10.397  0.0441  0.0499  0.1435
20800W        W36874   3.101  17.206   0.765 -0.4531 -0.0021 -0.1512
20801W        W36875   5.865   6.835   4.941 -0.2516 -0.4248  0.0008
20802W        W36876   6.426  15.649  10.943  0.0159 -0.0428  0.1778
20803W        W36877  10.133   5.533   0.313 -0.1023  0.0300 -0.3625
20804W        W36878   1.047   4.693  13.375  0.4168  0.2043 -0.0017
20805W        W36879  17.786  18.373  14.897  0.0807 -0.1016  0.2954
20806W        W36880  18.297   4.020  11.250 -0.2946  0.2365 -0.0650
20807W        W36881  11.290   1.801   4.259  0.3264 -0.1038 -0.1528
20808W        W36882  14.702  17.727   3.591 -0.0706  0.1097  0.1730
20809W        W36883   8.005  11.402   5.156 -0.1917  0.0497  0.2264
20810W        W36884  16.508   1.899   5.661  0.0763  0.2129 -0.2620
20811W        W36885   2.467  14.865   3.559 -0.0563 -0.0906 -0.0620
20812W        W36886  13.168   6.332  13.245  0.4286  0.0066  0.1972
20813W        W36887  17.940  18.369  12.788  0.0932  0.2309  0.2196
20814W        W36888   4.979  18.609  11.746  0.0757 -0.0360  0.0299
20815W        W36889  18.092   3.995   0.673 -0.0479 -0.0089  0.0082
20816W        W36890   9.696  11.082   4.600  0.1385  0.1576  0.0378
20817W        W36891  18.307   5.922   4.605  0.2956 -0.1170  0.2431
20818W        W36892  13.868   7.269  10.986  0.0857  0.3082 -0.0172
20819W        W36893   3.296   6.759  13.247  0.0549 -0.1919 -0.3539
20820W        W36894  10.003   9.784   0.590 -0.1479  0.0805  0.0718
20821W        W36895  15.420  19.177   4.661 -0.2648 -0.0749  0.1236
20822W        W36896   6.485   1.904  13.440  0.0272  0.0796 -0.0306
20823W        W36897  16.975   2.776   0.760 -0.3123  0.3282  0.0083
20824W        W36898  10.022   2.067  11.046 -0.0961  0.0458  0.1020
20825W        W36899   0.668  12.555   1.070 -0.1460 -0.2098 -0.0009
20826W        W36900   5.248  15.185   1.783  0.2118 -0.1099  0.0539
20827W        W36901   8.769  13.081  14.789  0.1839  0.1350  0.0143
20828W        W36902  11.013  17.160  11.242  0.1701 -0.0736 -0.0199
20829W        W36903   4.837  15.771  13.060 -0.0846  0.1750  0.3833
20830W        W36904  11.557   7.353   5.497  0.3136  0.1049 -0.4149
20831W        W36905  16.946   6.285   2.203  0.0502 -0.1021 -0.1294
20832W        W36906   4.791  15.969   2.523  0.1566 -0.1511 -0.1687
20833W        W36907  18.850  10.191   0.434  0.2767 -0.1110  0.1106
20834W        W36908  15.019   2.977   1.040  0.1648 -0.1081  0.3225
20835W        W36909  18.104   4.813   1.369  0.2369 -0.1879  0.1388
20836W        W36910  18.947   3.891  12.858 -0.1473  0.0505 -0.0329
20837W        W36911  14.207  15.381  10.311 -0.0674 -0.1819  0.1598
20838W        W36912  18.858  10.906   1.143  0.2189  0.0325 -0.1331
20839W        W36913   7.665   2.309   4.940 -0.0889  0.2166 -0.3120
20840W        W36914   5.932   3.507  10.831 -0.0107  0.1875  0.1371
20841W        W36915  15.088  13.089   0.792 -0.3013  0.0381  0.2619
20842W        W36916  12.468   4.498  12.180 -0.0081 -0.2182 -0.0786
20843W        W36917   4.371   4.907  15.002  0.1051 -0.2441  0.2852
20844W        W36918  13.215   3.652   2.807  0.2496  0.2425  0.1072
20845W        W36919   0.138   1.775  10.667  0.3865  0.3200 -0.0339
20846W        W36920   8.537  17.039   3.940 -0.1703 -0.1693 -0.0288
20847W        W36921   5.642   3.434   1.510 -0.3301 -0.3061  0.0323
20848W        W36922   1.886   7.849   3.011 -0.0445  0.2188  0.1217
20849W        W36923   4.390   4.697  13.053 -0.0964 -0.3644  0.0137
20850W        W36924   1.120   8.164  13.493 -0.0818  0.0429  0.1449
20851W        W36925   5.444  13.702  11.452  0.1747  0.0751  0.1707
20852W        W36926  16.785   0.392  12.198  0.2874 -0.0655  0.0143
20853W        W36927  14.105  13.614  12.237 -0.0301 -0.2879 -0.1998
20854W        W36928  13.482  15.908  11.024 -0.0669  0.3171  0.0275
20855W        W36929  18.729   6.184  11.482 -0.0657 -0.1853 -0.2266
20856W        W36930   1.025   2.398  14.926  0.1559  0.0397  0.2733
20857W        W36931  17.181   8.863   0.627  0.0216  0.0691  0.0196
20858W        W36932   5.213   4.685   1.740  0.3305 -0.0638 -0.0586
20859W        W36933   2.255   2.868  11.483 -0.0305  0.2666 -0.2327
20860W        W36934   7.687   0.458  13.972  0.2005 -0.1733  0.0976
20861W        W36935  13.041   9.229  14.855 -0.1780 -0.3933 -0.1881
20862W        W36936   5.800  10.076  11.820  0.1636 -0.5848  0.0263
20863W        W36937  11.954  12.378  12.442  0.2340 -0.1640  0.2057
20864W        W36938   5.313  10.962   3.004  0.0997 -0.1944  0.0349
20865W        W36939   1.144   8.632   5.154  0.0755  0.2325  0.0466
20866W        W36940   0.077  18.665   2.267 -0.2169  0.0893  0.0917
20867W        W36941   2.225  15.337  12.299 -0.0622 -0.0287 -0.1140
20868W        W36942  13.593  15.368  13.320  0.1607 -0.1510  0.0566
20869W        W36943  13.414   5.884  11.008 -0.3445  0.0746 -0.2944
20870W        W36944  12.158   2.553   4.274 -0.0156 -0.0671  0.0941
20871W        W36945  15.925  15.255  11.283  0.0111 -0.2453  0.1207
20872W        W36946   0.225  12.717  11.888  0.1798 -0.0586  0.0756
20873W        W36947  19.316  16.203  11.726 -0.0698 -0.4220 -0.2841
20874W        W36948  15.257   2.341  14.637  0.0009  0.1260 -0.0723
20875W        W36949   4.622  17.768   1.007 -0.0961 -0.0589  0.1201
20876W        W36950   7.191   2.035  12.493  0.1464  0.2383 -0.1810
20877W        W36951   1.067   1.608   1.344 -0.0074  0.1414 -0.1822
20878W        W36952  18.878   3.661  11.522  0.2401  0.3994 -0.1235
20879W        W36953   7.390   5.325   0.346  0.1300  0.1454 -0.1223
20880W        W36954  10.437   4.173  12.359  0.0964  0.0616  0.0051
20881W        W36955  16.016   9.206   2.059 -0.0889  0.0889  0.1326
20882W        W36956   2.163  19.032   1.265  0.0711 -0.5202 -0.0951
20883W        W36957  17.728   1.674   1.529 -0.1238  0.0940 -0.0075
20884W        W36958   3.443   4.700   1.757 -0.0005  0.5165 -0.0000
20885W        W36959   0.910   3.145   2.420 -0.0843  0.2433 -0.0692
20886W        W36960  16.964  17.608  11.956  0.0737 -0.0280 -0.1670
20887W        W36961   3.614   9.087   2.414 -0.0116 -0.2928 -0.0255
20888W        W36962  12.182   2.908   3.853  0.0083  0.1112  0.0723
20889W        W36963  15.343  10.263  12.758  0.1402 -0.2402 -0.1547
20890W        W36964  16.126  12.361  14.403  0.0254 -0.1149  0.2161
20891W        W36965   2.198   5.541  12.929  0.3843 -0.1525 -0.2006
20892W        W36966   6.079  14.423  13.980 -0.0446  0.2033 -0.1287
20893W        W36967  16.332   8.682   0.473  0.2260 -0.0145 -0.3161
20894W        W36968  17.730  10.380  11.564  0.3635  0.0164 -0.4406
20895W        W36969   7.608  13.230  11.632 -0.3378  0.0330  0.1326
20896W        W36970  17.861  16.473   1.230 -0.0883  0.0199  0.2817
20897W        W36971  13.609   2.703   4.699 -0.1227  0.1322 -0.1910
20898W        W36972  12.553  15.625  11.215  0.1981  0.1603  0.2618
20899W        W36973  15.890  11.979  11.807 -0.1567  0.0739  0.3897
20900W        W36974  14.332   0.488   0.128 -0.1257 -0.2397 -0.0859
20901W        W36975   7.661   6.506   3.911  0.0660  0.0426  0.1153
20902W        W36976   9.500   1.800   0.723 -0.0681 -0.1491  0.0362
20903W        W36977  12.379   5.970   4.735  0.1338  0.1501  0.1044
20904W        W36978  15.583   3.549  12.256 -0.1320 -0.2006 -0.2607
20905W        W36979  17.257   9.876  13.295 -0.0305 -0.2516  0.1937
20906W        W36980   7.522   5.809   0.383  0.1732 -0.0212  0.0163
20907W        W36981   0.297   2.136   4.782 -0.0650 -0.1560  0.1117
20908W        W36982  17.966   0.579   0.008 -0.0332  0.0503  0.3123
20909W        W36983   0.524   5.091   9.933 -0.2276  0.1657  0.3974
20910W        W36984  18.539   0.210  11.726  0.5057  0.1042  0.0436
20911W        W36985   1.981   4.574  10.772  0.1607  0.3074 -0.0770
20912W        W36986   2.511  10.412   4.673 -0.0104  0.0199  0.5416
20913W        W36987  11.815  17.716   4.555 -0.2120 -0.1684  0.2153
20914W        W36988   6.497  15.493   2.662  0.2290 -0.3877  0.1418
20915W        W36989  18.108   4.872   5.310 -0.1769  0.1043 -0.1284
20916W        W36990  11.354  15.501   3.815 -0.1563 -0.1814  0.0478
20917W        W36991   3.653  11.387   2.106  0.2139 -0.0835 -0.4103
20918W        W36992  18.000   0.195  11.813 -0.0324 -0.1504 -0.1238
20919W        W36993  12.278  17.979   1.234 -0.1720  0.0186  0.1426
20920W        W36994   3.583   9.962   5.074 -0.4124 -0.0614  0.0692
20921W        W36995  17.516  10.416  13.087 -0.1267 -0.0880 -0.0451
20922W        W36996  12.898  12.464   2.917  0.0676 -0.1286  0.0075
20923W        W36997   8.023   2.111   5.261 -0.0701  0.0752 -0.1357
20924W        W36998   0.329  17.243  11.993 -0.1744 -0.1450  0.1476
20925W        W36999   0.442   6.730   1.287 -0.1925  0.4678 -0.0897
20926W        W37000  15.792  13.988  13.306 -0.1233 -0.2595  0.2780
20927W        W37001  15.311   7.153   3.884 -0.0473 -0.0535  0.0138
20928W        W37002   3.661  14.713   5.228  0.0543  0.2828  0.0487
20929W        W37003  12.853   6.603   2.445 -0.2703  0.0959 -0.1845
20930W        W37004   8.525   1.170   0.493  0.2131  0.0513 -0.0835
20931W        W37005   7.644  10.321   1.723  0.2262 -0.2031 -0.1034
20932W        W37006   3.782   9.652   2.920 -0.1561  0.1759 -0.3038
20933W        W37007   4.541   4.475   1.073  0.2367 -0.2214 -0.0320
20934W        W37008   6.432  10.968  10.433  0.3171  0.0942  0.2003
20935W        W37009   2.011   3.721   1.149  0.4155  0.0598 -0.1128
20936W        W37010  18.294   0.935  14.134  0.1697 -0.0590 -0.4173
20937W        W37011  16.360  18.756   2.070 -0.0353 -0.0443  0.0957
20938W        W37012   6.279  10.595  14.167 -0.0527 -0.1448  0.2350
20939W        W37013  11.819   0.023  11.699 -0.1365  0.2762  0.1069
20940W        W37014  15.766   9.727  14.563  0.0588  0.0433  0.4247
20941W        W37015   4.219  14.542   4.568  0.1907  0.0658  0.0046
20942W        W37016  14.150   7.244   2.286  0.2593  0.1529  0.2560
20943W        W37017   7.874   4.191   1.819  0.0011 -0.1931 -0.0916
20944W        W37018   4.390  12.798   3.718 -0.1734 -0.0282 -0.1001
20945W        W37019   4.898   3.786   1.553 -0.0280  0.2314 -0.1256
20946W        W37020  11.265   5.753   4.121 -0.1086 -0.1048 -0.1860
20947W        W37021   2.492   9.212   1.675 -0.2374 -0.2427 -0.0742
20948W        W37022   1.803  12.771  14.140  0.3937  0.0693 -0.0206
20949W        W37023  10.887  16.358   0.328  0.1900  0.0529  0.1276
20950W        W37024   1.773   2.209  11.559 -0.0643  0.1515  0.0390
20951W        W37025  14.439   5.144  12.619 -0.1252  0.1170  0.2058
20952W        W37026   5.928  17.695  11.802  0.1881 -0.3483 -0.1818
20953W        W37027   0.417   5.601  12.282 -0.1499 -0.2628  0.0032
20954W        W37028   7.482  18.979  11.886 -0.0055 -0.0281 -0.1828
20955W        W37029   0.484  11.308  11.868 -0.3511 -0.0295  0.2376
20956W        W37030   6.667   6.446  13.081  0.0463 -0.0495 -0.2577
20957W        W37031   4.022   1.284  10.196  0.2404  0.3302 -0.3466
20958W        W37032  10.056  12.831   4.959  0.2028  0.0648 -0.2320
20959W        W37033   6.551  18.704   1.146 -0.2931  0.2462  0.1657
20960W        W37034  16.934   2.765  13.682 -0.0323 -0.1632  0.2539
20961W        W37035   8.782   1.218  14.332 -0.1103 -0.5806 -0.2775
20962W        W37036   1.555   5.785   4.727 -0.1175  0.1207 -0.0526
20963W        W37037   6.883   0.297  13.582 -0.0594 -0.3033  0.1795
20964W        W37038  17.970  10.079   4.523  0.0393 -0.1163  0.0700
20965W        W37039   4.349  16.213   4.118 -0.2641  0.1602 -0.0542
20966W        W37040   2.330  16.894  14.466 -0.0968 -0.2570 -0.1774
20967W        W37041   8.280  12.097   0.986 -0.0621  0.1775 -0.0300
20968W        W37042   4.750   9.023   1.013 -0.4035  0.0950 -0.1130
20969W        W37043  17.024  12.076   0.039  0.3105  0.0996 -0.3082
20970W        W37044   1.175  12.959   1.041  0.0046  0.0037 -0.0633
20971W        W37045  12.390   9.941  13.703  0.2533 -0.1591  0.1656
20972W        W37046   4.559  15.855   2.120 -0.2372 -0.1235  0.0973
20973W        W37047   6.178   5.827   3.438  0.1587 -0.0486 -0.2027
20974W        W37048   0.174  16.859   4.483  0.2196 -0.0641  0.3181
20975W        W37049   1.836  13.397  12.514  0.0545  0.0454  0.2110
20976W        W37050  17.822   2.799   3.022 -0.1826 -0.0574  0.1829
20977W        W37051  16.739  11.624   2.825 -0.0588  0.1410  0.0859
20978W        W37052  14.708   4.786   0.963  0.0715 -0.1378 -0.1741
20979W        W37053  13.151  11.264  10.628 -0.2040 -0.0560  0.1168
20980W        W37054  12.849  13.611  14.463 -0.2853 -0.0341 -0.0413
20981W        W37055   7.878   1.740  11.417 -0.0061  0.2089  0.0244
20982W        W37056   6.021   0.334  11.393 -0.1347  0.2270 -0.3145
20983W        W37057  17.292   7.840   2.383  0.1713 -0.0348  0.5276
20984W        W37058   0.360   5.891   1.787 -0.1096  0.2588  0.0753
20985W        W37059  17.653   1.988   2.182 -0.0817 -0.1368 -0.2021
20986W        W37060  11.997  10.844   4.803  0.2737 -0.1722  0.2079
20987W        W37061  18.710   7.149  13.324  0.0064  0.0719  0.0594
20988W        W37062  16.026   1.820   4.673 -0.3000 -0.0788 -0.0481
20989W        W37063   5.535   3.582  10.543 -0.3731  0.1140 -0.0866
20990W        W37064  14.692   7.987   2.601 -0.0758  0.0038 -0.0531
20991W        W37065   9.543   7.395  12.331 -0.1118  0.1290  0.3582
20992W        W37066   7.171  13.029   1.873  0.1879 -0.2145 -0.0504
20993W        W37067   0.176   8.280  12.504  0.3291 -0.0387  0.0984
20994W        W37068  13.624   3.693   1.864  0.2203 -0.0128  0.0556
20995W        W37069  13.589   5.139   2.112 -0.1176  0.3747 -0.3022
20996W        W37070  16.640   8.663   4.653 -0.0289 -0.1224 -0.0408
20997W        W37071   7.565   8.832   2.377  0.3228 -0.0470 -0.2453
20998W        W37072   1.614   3.436   2.681  0.7456 -0.0569  0.1417
20999W        W37073   1.770   8.930   1.268 -0.1482 -0.2363  0.1370
21000W        W37074  18.190   9.631   4.305 -0.2654 -0.1279  0.2105
21001W        W37075   2.587   3.853  10.762  0.2084  0.0698  0.3386
21002W        W37076   3.047   9.550  13.493  0.0091 -0.1499  0.0692
21003W        W37077   6.652   6.320   5.374 -0.0119 -0.0073  0.0301
21004W        W37078   8.802  14.053   0.709 -0.1569  0.1842 -0.2994
21005W        W37079  17.796   0.106   1.281 -0.0607 -0.0438 -0.0524
21006W        W37080   3.355  15.455  14.709 -0.0570  0.0020 -0.0805
21007W        W37081  15.882  16.265  12.415 -0.0286  0.0321  0.1233
21008W        W37082   0.672  16.069  14.508  0.2539 -0.1382  0.0648
21009W        W37083  14.131  12.589   3.443 -0.0796 -0.2346 -0.1822
21010W        W37084  17.823  17.449  12.010 -0.2928 -0.1526  0.1072
21011W        W37085   5.876  10.062  12.616  0.1128 -0.0713 -0.3740
21012W        W37086   3.095   1.069  14.055 -0.0502 -0.0575 -0.3941
21013W        W37087  12.128  11.262   3.088 -0.4729 -0.0003  0.1440
21014W        W37088  18.462   0.337   3.337 -0.5533 -0.2592 -0.2555
21015W        W37089   2.777   0.817   1.712  0.2285  0.0468 -0.2877
21016W        W37090  13.481  18.372   4.443 -0.3606 -0.1369  0.1311
21017W        W37091  17.015  12.306  12.557  0.0773 -0.1217  0.2656
21018W        W37092  17.607  12.895   2.653  0.5163  0.1248 -0.2578
21019W        W37093   5.377  15.822   3.049  0.0962 -0.3215 -0.3561
21020W        W37094   9.230  10.864  14.847 -0.2449 -0.0997  0.1785
21021W        W37095  16.886  12.611  11.030 -0.5491 -0.0727 -0.1840
21022W        W37096  14.439   6.433   1.817  0.0143  0.1551  0.0766
21023W        W37097   5.780   5.290   5.281 -0.1416 -0.2019  0.4106
21024W        W37098  12.506   2.624  14.069  0.2676 -0.1116 -0.0033
21025W        W37099  16.220   2.712   6.047 -0.1375  0.1569 -0.1524
21026W        W37100   7.567  17.092   0.452  0.2981 -0.1181 -0.3718
21027W        W37101  12.421  15.426   0.210 -0.0212  0.1656 -0.1429
21028W        W37102   1.533   2.204  14.135  0.1319  0.4522  0.0333
21029W        W37103   6.015   7.902  14.226  0.2530  0.0978 -0.3847
21030W        W37104  12.083  13.404  13.807 -0.1022 -0.0788  0.1916
21031W        W37105   2.458   1.204   0.580  0.0588  0.0396  0.1277
21032W        W37106  12.791  16.573  12.508 -0.0189 -0.0047 -0.1286
21033W        W37107   4.164   7.461   4.851  0.0574 -0.3242  0.2131
21034W        W37108   9.513  10.747   0.240  0.2669  0.6621  0.1320
21035W        W37109   9.846  16.346   3.623  0.0707 -0.0853 -0.0369
21036W        W37110  17.088  13.940  10.841  0.0307 -0.1979  0.2103
21037W        W37111  17.570   9.969   3.122 -0.3228 -0.0968  0.1382
21038W        W37112  11.360  16.219   5.032 -0.1315 -0.1731  0.3681
21039W        W37113  16.407   0.650   4.954 -0.0855  0.0218  0.0351
21040W        W37114  14.777   7.198   5.114  0.1833 -0.0170  0.2193
21041W        W37115  13.262   1.159   4.400 -0.4878 -0.1911  0.0029
21042W        W37116   2.936  11.164  14.428  0.1497 -0.2890 -0.1294
21043W        W37117   3.718   3.419   3.254  0.0867  0.0393 -0.0571
21044W        W37118   4.590  12.806   3.253 -0.0205  0.0261  0.2828
21045W        W37119   1.229  12.960  11.879  0.1834 -0.0112 -0.0026
21046W        W37120  15.146  10.734  12.081 -0.2384  0.1421  0.5132
21047W        W37121  18.974  16.115  12.651 -0.4384 -0.0451  0.0745
21048W        W37122  10.833  17.184   4.452  0.0402  0.2261 -0.1075
21049W        W37123   0.420   5.524  13.135 -0.0042 -0.2161  0.0821
21050W        W37124  15.141   6.758  12.415 -0.4518  0.1315 -0.1453
21051W        W37125   4.354   0.846   2.529  0.0206  0.1995  0.2661
21052W        W37126  12.886   3.758   2.267 -0.4131 -0.0175  0.0024
21053W        W37127   1.575  17.166  12.582  0.3886 -0.1210  0.0411
21054W        W37128  16.927   7.361   2.994  0.0582  0.1956 -0.0532
21055W        W37129  16.064   8.257   2.317  0.0087  0.1242  0.2189
21056W        W37130  18.686  16.543  14.310 -0.1130 -0.2449  0.1282
21057W        W37131  13.554  15.711   2.614  0.0399  0.2025  0.1262
21058W        W37132   4.615   9.388   9.747 -0.0918  0.1628 -0.2033
21059W        W37133  11.359   9.757   0.734  0.2354 -0.0492 -0.0119
21060W        W37134   3.031  12.876  10.335 -0.2065  0.1489 -0.1034
21061W        W37135  17.585  15.717   4.631 -0.2828  0.3780 -0.2977
21062W        W37136  12.814   4.043  12.119 -0.1657 -0.0007  0.2293
21063W        W37137   4.135  15.606   2.461 -0.0019  0.0869 -0.2132
21064W        W37138   8.131  16.303  12.688 -0.0323  0.3046 -0.0909
21065W        W37139   8.367   4.239  11.802  0.0636  0.1686  0.0395
21066W        W37140   1.121   3.863  13.183  0.1170  0.1152  0.1551
21067W        W37141  17.405  14.306   2.978  0.0223  0.1789  0.2676
21068W        W37142  13.540  13.164   3.099  0.0425 -0.3118  0.0942
21069W        W37143  14.476   8.107   0.384 -0.0304 -0.0782 -0.1352
21070W        W37144  19.220  12.814   1.896 -0.3696  0.1017 -0.3056
21071W        W37145  13.925  14.991  13.849  0.1487 -0.1842 -0.2179
21072W        W37146  17.536  13.164  12.632 -0.1243 -0.4434  0.1416
21073W        W37147  10.933   5.882   4.542  0.2403  0.1519 -0.1980
21074W        W37148  18.572   7.514  11.887  0.0585  0.1008  0.0063
21075W        W37149   0.551   7.197   0.553 -0.3110 -0.2778 -0.0125
21076W        W37150   8.076  15.363   3.612  0.2625  0.1579 -0.0477
21077W        W37151  14.449  12.321   2.248 -0.1752  0.1599 -0.5169
21078W        W37152  16.699  16.411  14.371  0.1599  0.1719 -0.1984
21079W        W37153   4.270   0.999   1.220  0.1351  0.0816  0.1034
21080W        W37154   2.485  16.979   2.469 -0.4150  0.0332  0.2192
21081W        W37155   1.333  12.160  12.375 -0.4872 -0.3179  0.4368
21082W        W37156  14.039  11.755  13.626  0.3414 -0.0174 -0.2128
21083W        W37157   6.593  10.589   4.930  0.1488 -0.1118  0.0332
21084W        W37158  17.407  14.787   0.441 -0.1427 -0.2127  0.0940
21085W        W37159   0.617  15.043  12.979 -0.1255  0.0813 -0.0970
21086W        W37160  11.106  15.601   4.855  0.0724 -0.0883 -0.1555
21087W        W37161  11.900   8.681   3.908 -0.2329 -0.2773  0.1012
21088W        W37162  13.956   8.863   4.829 -0.1962 -0.1428 -0.1064
21089W        W37163   6.370   8.982   2.190  0.2587  0.1777  0.3728
21090W        W37164  14.523  12.580  14.160 -0.4814 -0.0613 -0.1768
21091W        W37165   9.907   6.746   4.603  0.0860 -0.4716  0.1738
21092W        W37166   2.041  19.174  10.173  0.0656  0.0442 -0.0166
21093W        W37167  11.100  15.119   4.077 -0.0914  0.0183 -0.1534
21094W        W37168  16.739   1.609  12.477 -0.0175 -0.1467 -0.2278
21095W        W37169  19.312  13.558   2.950 -0.2169 -0.0976 -0.1098
21096W        W37170   6.771  12.940  13.505 -0.1837  0.0896 -0.2222
21097W        W37171  10.116   7.328  12.954 -0.4074  0.2562  0.1439
21098W        W37172   7.554  18.154  12.424  0.2822 -0.1199 -0.0740
21099W        W37173  18.100   2.823  14.902  0.1824 -0.2449 -0.3008
21100W        W37174   0.906  13.887  11.700 -0.0309 -0.0632  0.0907
21101W        W37175  17.008   0.110   6.228  0.2009 -0.2218  0.0349
21102W        W37176   5.832   9.694  14.170  0.0571 -0.0517  0.1878
21103W        W37177  19.157   8.584   3.775 -0.1546  0.1096 -0.0124
21104W        W37178  15.646  14.810  14.000 -0.1159 -0.0895  0.0611
21105W        W37179   4.915  15.416   3.995  0.0970  0.3020 -0.0660
21106W        W37180   3.584  15.118  10.664  0.0113  0.3921 -0.1754
21107W        W37181  14.752   8.155  10.898 -0.0519 -0.0535 -0.2398
21108W        W37182   0.862   8.583   3.741 -0.0513  0.2410 -0.3423
21109W        W37183  10.046  10.395  14.941 -0.0316 -0.0389 -0.0994
21110W        W37184  16.937  12.500  12.026 -0.1493  0.1092 -0.0595
21111W        W37185  18.570   6.836   2.215 -0.0690  0.4148  0.2405
21112W        W37186  14.818   2.592   2.467 -0.1530 -0.0435 -0.1214
21113W        W37187   1.668  17.269   1.234 -0.2865  0.1409  0.0317
21114W        W37188  19.213   5.418   1.195  0.4462 -0.0804  0.2537
21115W        W37189  10.316   8.085  13.428  0.1185 -0.0054 -0.2507
21116W        W37190  15.328  12.341  10.769 -0.2136  0.1003  0.3073
21117W        W37191  14.590   2.190  11.096  0.1769  0.1047 -0.2050
21118W        W37192   0.860   0.589   3.912  0.1432 -0.0440  0.2295
21119W        W37193  12.260   6.092   2.892  0.1097 -0.1455  0.3385
21120W        W37194  15.669   4.389  11.200 -0.0545  0.1693 -0.1666
21121W        W37195   8.194  12.897   4.494  0.2244  0.2840 -0.0219
21122W        W37196  14.497   4.884  12.203 -0.2075  0.0140 -0.2295
21123W        W37197  11.357   5.940  10.320 -0.0549  0.2802 -0.1534
21124W        W37198   4.979  16.102  10.999  0.1912 -0.0782 -0.3458
21125W        W37199  18.097   9.402   1.472 -0.0385  0.3532  0.3047
21126W        W37200  10.041  18.413   2.862 -0.1503 -0.2926  0.1033
21127W        W37201  19.307  15.209   0.735  0.0040 -0.0902  0.5112
21128W        W37202  15.521  15.631  11.414 -0.2246  0.3712  0.2584
21129W        W37203  12.269   0.787   2.861 -0.0902 -0.0444 -0.2970
21130W        W37204  13.280  16.266   1.940  0.1481  0.0583 -0.1375
21131W        W37205  15.262   4.866  11.070 -0.3002 -0.4270 -0.0634
21132W        W37206   9.504   3.517  14.581  0.1813 -0.2333  0.1402
21133W        W37207  10.702  15.404  13.471  0.1794 -0.0124 -0.0689
21134W        W37208  16.207   2.848  10.564  0.1485  0.0404 -0.0714
21135W        W37209  12.731  16.367  12.061  0.3012 -0.1200 -0.3012
21136W        W37210   7.623   9.643  12.834  0.1300  0.0552  0.0132
21137W        W37211  13.159   2.934  13.614  0.0281  0.0738 -0.3029
21138W        W37212  14.678   1.316   5.320  0.3291 -0.1291 -0.3208
21139W        W37213   8.192   0.191   3.315  0.2763 -0.1619 -0.1491
21140W        W37214  17.209   5.529   3.813  0.3421 -0.0706 -0.0531
21141W        W37215  10.862   0.293   2.211  0.0785 -0.1763 -0.1844
21142W        W37216   4.544  12.366   2.380  0.2465  0.0462  0.1576
21143W        W37217  12.441   6.983   0.122 -0.4325 -0.2185  0.0908
21144W        W37218  13.989   9.646   0.010 -0.3449 -0.1365  0.1825
21145W        W37219  15.730   2.552   2.680  0.5139 -0.2534  0.1939
21146W        W37220   2.970  13.759   5.120 -0.0784 -0.2917 -0.1704
21147W        W37221  18.170  12.356   0.320 -0.3021  0.2721  0.1078
21148W        W37222   5.710   8.323  14.057 -0.2015  0.1482 -0.2520
21149W        W37223   4.076   4.193   3.761  0.2306 -0.1611 -0.0285
21150W        W37224   0.133   5.880  14.856 -0.0587 -0.1401  0.3679
21151W        W37225   4.375  11.248  14.634  0.0930  0.3729 -0.1519
21152W        W37226  17.725   7.212  10.829 -0.2468 -0.1818 -0.2760
21153W        W37227   3.002  17.404   4.895  0.1773  0.3179  0.3213
21154W        W37228  14.567  13.849   2.933 -0.0639 -0.2183 -0.0911
21155W        W37229   8.426  19.057   1.496  0.1719  0.0229 -0.3181
21156W        W37230  11.727  11.161  14.938 -0.2135 -0.2032 -0.2434
21157W        W37231   4.177   3.021  11.130 -0.3150  0.1115 -0.3289
21158W        W37232  13.984  16.494   0.905 -0.0951  0.3175  0.2853
21159W        W37233  12.477  16.993  12.543  0.4006  0.2223  0.1237
21160W        W37234   8.634  15.003  12.956 -0.0180  0.1870 -0.3751
21161W        W37235  17.101  11.772   1.324 -0.1191  0.5202 -0.1343
21162W        W37236   0.497   2.535   5.178  0.4370 -0.1004 -0.2817
21163W        W37237   3.103   9.056   1.694 -0.0389 -0.0093 -0.2356
21164W        W37238  12.125   2.008   1.100 -0.3465 -0.3982 -0.0148
21165W        W37239   3.142   0.567   1.373 -0.4296  0.0810 -0.0673
21166W        W37240  13.814   9.635   3.442  0.1831  0.0615  0.2498
21167W        W37241  11.614  12.821  11.506 -0.4833 -0.1443 -0.2074
21168W        W37242   4.347  11.222  13.360  0.0471 -0.1233  0.3487
21169W        W37243   3.482  18.021  11.037 -0.0485 -0.0934  0.1411
21170W        W37244   3.305   6.979   1.090  0.0898 -0.0033 -0.1046
21171W        W37245  16.352   7.710   0.671 -0.3358  0.1761  0.0675
21172W        W37246   5.927  17.213  11.731  0.0962 -0.5635  0.0441
21173W        W37247  11.847   0.853  10.663  0.2175 -0.0480  0.0188
21174W        W37248   5.707  11.741   4.363 -0.2031  0.5164  0.1693
21175W        W37249   4.675  19.266   0.596  0.0915  0.1084  0.1529
21176W        W37250  12.979   1.937   5.128  0.1296 -0.0181 -0.1320
21177W        W37251   4.586   9.458   4.064  0.1101  0.0169 -0.1097
21178W        W37252  13.166   6.912  14.516  0.1922  0.2610  0.1452
21179W        W37253   3.113   7.532  10.695 -0.2208 -0.1205  0.0476
21180W        W37254   3.849  13.852  12.906  0.2990  0.0374  0.1690
21181W        W37255   5.631   4.335  13.449 -0.1749 -0.0192 -0.2729
21182W        W37256  13.218  14.276   2.133 -0.2098  0.1183 -0.0241
21183W        W37257   7.461  15.208  12.183  0.1099  0.0971 -0.0633
21184W        W37258   9.684   5.940  12.582 -0.0224  0.1823 -0.2458
21185W        W37259   1.583   7.389  13.309 -0.5568  0.1238 -0.0897
21186W        W37260  18.272  12.569   3.455 -0.0792  0.2095 -0.1173
21187W        W37261   0.504  12.365  12.094  0.0141  0.1522 -0.0961
21188W        W37262  13.506   5.088   2.916 -0.0435  0.0992 -0.0797
21189W        W37263  18.537   9.222   1.232 -0.1649 -0.1875 -0.1984
21190W        W37264   9.325  13.174  10.802  0.1276  0.0507 -0.2553
21191W        W37265   8.030  18.600  10.306 -0.2777  0.2087 -0.0297
21192W        W37266  14.026   5.090  11.864  0.2557 -0.2815  0.0249
21193W        W37267  11.295  17.133  10.314  0.1395  0.1885 -0.0821
21194W        W37268   1.101   5.336   3.455  0.0418 -0.3328 -0.0076
21195W        W37269  14.271   1.037  14.623  0.0149  0.2222  0.2932
21196W        W37270   5.787  12.963   1.977  0.1301 -0.0151 -0.1634
21197W        W37271  11.211   1.854   0.358 -0.0131 -0.3658  0.0589
21198W        W37272  10.210  10.486   9.193  0.0012  0.2773  0.0735
21199W        W37273  10.737   1.616   0.709  0.4539  0.1393  0.1651
21200W        W37274   2.609   7.299   5.193 -0.0425  0.2599 -0.0643
21201W        W37275  17.904  13.429  11.270  0.0123  0.0189  0.0433
21202W        W37276  11.850   2.890  12.250 -0.1412 -0.2230  0.1458
21203W        W37277  14.526   2.671   2.888  0.1101 -0.0063  0.2707
21204W        W37278  10.251  16.386   1.572  0.0387 -0.0071  0.1410
21205W        W37279  19.141  12.217   3.011  0.1208  0.0021  0.1115
21206W        W37280   8.699  12.637  11.225 -0.0421 -0.5431 -0.3616
21207W        W37281  11.674  18.900  12.966 -0.1071  0.0389 -0.3682
21208W        W37282  14.795   2.816  14.078  0.1950  0.1810 -0.0307
21209W        W37283   9.978  16.399  11.776 -0.3399 -0.0121  0.0354
21210W        W37284   0.080   6.567  12.284 -0.1269  0.2035  0.1529
21211W        W37285   8.073  14.114   1.365 -0.0142  0.1215 -0.1759
21212W        W37286   9.535   7.398  11.731  0.0776  0.2970 -0.0198
21213W        W37287  15.198   6.379   2.161 -0.0154 -0.0572 -0.1229
21214W        W37288  10.966   0.782  13.039  0.0919  0.0082  0.0859
21215W        W37289  13.285   2.476  10.941 -0.2320 -0.1569 -0.0129
21216W        W37290  16.958   8.270   2.578  0.0534 -0.0017 -0.7199
21217W        W37291  10.514  10.826   0.197  0.1337 -0.0583  0.0456
21218W        W37292  16.944  11.943   2.209 -0.2181 -0.0120 -0.0464
21219W        W37293   9.909  12.927   1.470 -0.1775 -0.0028  0.0712
21220W        W37294   0.049  15.437  12.403  0.3136 -0.1099  0.0421
21221W        W37295  17.470   0.391   1.600 -0.0231 -0.0041 -0.5661
21222W        W37296   9.572   9.400   0.992 -0.3276  0.2380 -0.0028
21223W        W37297  16.469   5.678   0.672  0.4318 -0.1355  0.2160
21224W        W37298  18.198  12.342   1.911 -0.1967 -0.1085  0.1751
21225W        W37299  11.656  17.892  13.603 -0.0360  0.0993 -0.2296
21226W        W37300   8.798   2.310   3.111 -0.2747  0.0222 -0.1519
21227W        W37301   3.895   3.884  11.575  0.1475 -0.0222 -0.3376
21228W        W37302   3.713  14.224   1.068  0.0087  0.1171 -0.5178
21229W        W37303   3.538  14.734  11.075 -0.0755 -0.0324 -0.1634
21230W        W37304   8.578   9.948  14.352  0.3438  0.1162  0.0389
21231W        W37305  16.765  13.497   9.933  0.0858  0.0522 -0.0114
21232W        W37306   1.886  19.292  11.996 -0.3663 -0.1381 -0.0096
21233W        W37307  12.316  12.298   0.695 -0.2840  0.0774 -0.0679
21234W        W37308  15.904   0.790   2.427  0.0402 -0.3476 -0.0687
21235W        W37309   8.829   1.082  12.491  0.2363 -0.1851 -0.0138
21236W        W37310  14.023  16.718  12.803  0.1502 -0.0884  0.1056
21237W        W37311   6.204   6.421  11.895  0.2197 -0.1133  0.1676
21238W        W37312  12.622  14.629  13.391  0.0989  0.0726 -0.0769
21239W        W37313   2.651   2.674   2.690  0.1274 -0.0455  0.2132
21240W        W37314  17.291  16.823   4.320  0.4550  0.0298 -0.5410
21241W        W37315   8.264  14.878   4.361 -0.0514  0.0868  0.0771
21242W        W37316   9.753   2.771   4.665  0.2349  0.0192 -0.3539
21243W        W37317   8.820   7.642   2.739  0.0080  0.3493 -0.3097
21244W        W37318  16.257   4.489  11.636  0.0105  0.1329  0.2577
21245W        W37319  11.441   6.780  10.728  0.0401  0.3389  0.2049
21246W        W37320   3.386  10.101  15.000  0.0435 -0.3244 -0.0043
21247W        W37321  16.664  11.021   4.494  0.4129 -0.3427  0.0320
21248W        W37322   3.323  14.514  12.818 -0.3085  0.0558  0.1798
21249W        W37323   9.398  12.361   1.717 -0.0672 -0.4883 -0.2671
21250W        W37324   0.133   7.667  11.693 -0.0939  0.1271 -0.0355
21251W        W37325   8.782  10.902   9.958  0.2243  0.2085 -0.0166
21252W        W37326  13.899   7.994   4.688 -0.0134  0.0089 -0.1239
21253W        W37327  11.494   7.171   3.639 -0.0731  0.0400 -0.1907
21254W        W37328   7.885   9.258   4.828 -0.1087  0.0560  0.1979
21255W        W37329  17.235  13.772  14.913  0.2759  0.2137 -0.0355
21256W        W37330   5.775   3.996   1.438  0.0187 -0.2044  0.1552
21257W        W37331   1.451   4.229   4.025  0.2994  0.1360  0.3665
21258W        W37332  17.166  13.661  13.849  0.1314 -0.0927 -0.2367
21259W        W37333  15.809  14.433   1.776  0.4908  0.0483 -0.0198
21260W        W37334   8.171  17.815   1.853 -0.0392  0.0651  0.2219
21261W        W37335   3.358  18.100   4.279  0.1401  0.2803  0.0585
21262W        W37336   6.182   8.870   2.909  0.2906 -0.1809  0.0913
21263W        W37337  13.372   8.737  14.897  0.0842  0.0767 -0.2326
21264W        W37338  15.071  15.621   0.622 -0.0682  0.0661  0.1081
21265W        W37339  13.483   8.514  12.671  0.2278  0.0974  0.0904
21266W        W37340  18.203  11.789   1.676  0.0733 -0.3226 -0.1701
21267W        W37341   7.254   0.610   1.419 -0.1137  0.2547 -0.2868
21268W        W37342   0.718  12.693  14.153 -0.0217  0.0192  0.0697
21269W        W37343   8.631  16.958   0.094  0.4778 -0.2532  0.5361
21270W        W37344  16.793  16.073   4.110  0.0562  0.4807  0.2485
21271W        W37345  10.069  11.796  13.816  0.1648  0.1903 -0.1252
21272W        W37346   9.318   8.376  10.199 -0.0278 -0.1145 -0.0556
21273W        W37347  18.002  15.195  12.185  0.0519 -0.1273  0.2159
21274W        W37348  14.532  19.167   1.582 -0.1624  0.1486 -0.1105
21275W        W37349   7.155   3.383   4.167 -0.1163 -0.1120  0.0453
21276W        W37350   5.599   8.590   2.094 -0.0238  0.1005 -0.0478
21277W        W37351  15.359  13.521  13.292 -0.1957 -0.0667  0.2275
21278W        W37352   6.170  11.849  12.630  0.1526  0.1406  0.1058
21279W        W37353   7.714  18.206   3.224  0.0825 -0.2861  0.0505
21280W        W37354  17.457   4.631   0.688 -0.1562  0.2451 -0.0653
21281W        W37355  15.046   2.463   1.980 -0.1289  0.4187  0.0388
21282W        W37356   3.655  13.965  14.369  0.0884 -0.5116 -0.3679
21283W        W37357  16.451  10.019  14.643 -0.0670 -0.0768  0.1371
21284W        W37358  16.880   5.690   1.114  0.0148 -0.1636  0.2428
21285W        W37359   8.766   3.968   1.807  0.0339  0.2086 -0.0725
21286W        W37360   2.408  14.990   2.497  0.1456 -0.1183  0.0678
21287W        W37361  13.572   5.552   1.001 -0.3674  0.1318 -0.0813
21288W        W37362   8.222  16.628   0.917  0.1190 -0.1972 -0.1711
21289W        W37363   1.859   2.545   1.665  0.0514  0.0259 -0.1372
21290W        W37364  17.877  15.013  11.453 -0.2859 -0.0209 -0.2878
21291W        W37365  15.395   0.725  13.758  0.2052  0.0099  0.0749
21292W        W37366  11.507   2.421  11.966  0.0763 -0.3127  0.0713
21293W        W37367  12.600   1.249   1.352  0.0274  0.3649 -0.1120
21294W        W37368  10.701   8.409   1.560  0.1141  0.1419  0.0897
21295W        W37369  12.887   1.398  12.431  0.2307 -0.2070 -0.0323
21296W        W37370   0.699  15.849  10.517 -0.0268  0.1438 -0.2450
21297W        W37371  18.151  19.058   1.221  0.0478 -0.0417 -0.0111
21298W        W37372   8.162  15.410  13.879 -0.0887 -0.0572 -0.2769
21299W        W37373   2.739   9.852   3.960 -0.0307  0.0686 -0.0350
21300W        W37374  13.263  14.953  10.137 -0.0549 -0.2487  0.1394
21301W        W37375   5.605  17.452   2.517  0.2614  0.2252  0.0348
21302W        W37376   7.212   4.209  11.581 -0.0817 -0.1070 -0.1360
21303W        W37377  10.079  18.022   3.196 -0.0811  0.1341  0.3111
21304W        W37378   0.569  17.954   2.134  0.0098 -0.0003  0.0311
21305W        W37379  11.638  18.507  12.145 -0.0245  0.2276 -0.1104
21306W        W37380   4.920   0.540   9.200  0.1094 -0.1800 -0.0379
21307W        W37381  14.566   7.768   0.723  0.2489  0.0501  0.3425
21308W        W37382  12.930   8.929  13.597 -0.1694  0.0435  0.2158
21309W        W37383  14.611   9.420  11.677  0.0775 -0.0254 -0.1140
21310W        W37384  13.213  10.183   0.317  0.0820  0.0083 -0.0053
21311W        W37385   0.961  10.442   2.063 -0.2506 -0.2522  0.0058
21312W        W37386  10.668  18.010  13.568 -0.0984  0.0816 -0.1525
21313W        W37387   8.950  18.392  12.171  0.1022 -0.0311 -0.2628
21314W        W37388  13.871  16.498  11.853 -0.1307  0.2263  0.2311
21315W        W37389   0.472   6.237   0.822  0.2958  0.2577 -0.0178
21316W        W37390   7.530   2.284  10.503 -0.5640  0.4061  0.1859
21317W        W37391  11.886  16.640  12.048  0.0764 -0.0127  0.3333
21318W        W37392  16.139   7.043   1.467  0.1724  0.0220  0.2575
21319W        W37393  13.026   8.591  12.989 -0.2460  0.1433 -0.1810
21320W        W37394  12.684   0.016  10.495  0.1820 -0.0280  0.2184
21321W        W37395  17.413  11.979   3.905  0.1667 -0.0977  0.1635
21322W        W37396   5.181  18.509   0.217 -0.1337 -0.1076  0.4165
21323W        W37397  15.078   3.924   2.194  0.0756  0.1858  0.1050
21324W        W37398  19.176   2.283   3.493 -0.0242  0.0937  0.1391
21325W        W37399   4.755   0.291   0.923 -0.1509  0.2443 -0.1249
21326W        W37400   7.486   8.169  11.042  0.0371  0.0721  0.0999
21327W        W37401  10.265  11.676  10.328  0.0863 -0.0074  0.1223
21328W        W37402   0.940  14.656   4.214  0.0310  0.4478 -0.2011
21329W        W37403   1.281  13.398  13.725  0.2763  0.0232  0.2661
21330W        W37404   4.204   2.903   4.774  0.2520  0.1255 -0.0302
21331W        W37405  11.542   7.333   0.378  0.1215 -0.1804  0.3336
21332W        W37406  13.843  15.276  14.227 -0.2471  0.0829 -0.2356
21333W        W37407  13.032   6.475   1.912 -0.0234 -0.0675  0.0124
21334W        W37408   3.291  17.363   3.132 -0.0475  0.0991  0.1062
21335W        W37409  10.644   9.555   3.815  0.2791 -0.0506  0.1469
21336W        W37410   0.073   7.261  12.621 -0.3236  0.1666  0.2829
21337W        W37411   0.543   6.677   4.511  0.1579  0.0688  0.1487
21338W        W37412  13.369   3.343   0.785  0.0541  0.2581 -0.0500
21339W        W37413   9.618   7.915   1.488 -0.2179 -0.0390  0.0093
21340W        W37414  13.926   0.151  12.264  0.0055 -0.1324 -0.1104
21341W        W37415   6.808  14.012   1.289  0.2289 -0.3027 -0.0965
21342W        W37416  10.939   0.670  13.986 -0.1249  0.3968  0.1602
21343W        W37417   7.226  14.091   3.863 -0.4619 -0.0762  0.1121
21344W        W37418  16.035   5.868   0.500  0.3127  0.3507 -0.1382
21345W        W37419  17.996   7.723   0.418 -0.0089 -0.0399 -0.0646
21346W        W37420   6.872  12.345   2.598  0.0185  0.2825 -0.0839
21347W        W37421  13.017  15.844   0.557 -0.0512 -0.0852  0.0103
21348W        W37422   6.707  11.044   0.623 -0.1598 -0.1058  0.0735
21349W        W37423   1.765  17.974   2.555 -0.2274 -0.3164  0.0407
21350W        W37424  15.580   1.416  11.100  0.1957 -0.3433  0.1072
21351W        W37425   5.883  10.614  10.457  0.1875 -0.0592 -0.0130
21352W        W37426   3.260   9.021   0.524 -0.1851  0.0062 -0.2292
21353W        W37427  15.733   2.367  10.733 -0.1295  0.2821 -0.0147
21354W        W37428  16.751   2.328  13.875 -0.3514  0.0803 -0.1948
21355W        W37429  18.439   7.627  12.853 -0.2079 -0.0632  0.0937
21356W        W37430   9.056  18.619  14.998 -0.1295 -0.0280  0.4322
21357W        W37431  16.320   9.589   2.625 -0.1896  0.0335 -0.2798
21358W        W37432  18.384  10.450  12.167 -0.2421 -0.1651  0.3641
21359W        W37433   3.141   2.966   2.510  0.0242  0.1254  0.0980
21360W        W37434  16.913   0.777   4.915  0.5286 -0.0887  0.1833
21361W        W37435  11.524   7.723  11.270  0.2847  0.0688 -0.0895
21362W        W37436   9.007  14.666  11.323  0.2464 -0.0430 -0.1094
21363W        W37437  15.643  18.408   0.648 -0.0365  0.0207  0.3511
21364W        W37438  17.920  13.350  11.860 -0.2242  0.0230  0.0533
21365W        W37439  12.613   5.241  11.747  0.0685 -0.3618  0.1112
21366W        W37440   7.228  18.891   5.416  0.1783 -0.0780 -0.0413
21367W        W37441  17.011  16.821  11.045 -0.3261 -0.1889  0.0585
21368W        W37442  17.411  11.833   0.317  0.3299 -0.0319  0.1134
21369W        W37443  12.962  16.250  12.988  0.1522 -0.2025 -0.0577
21370W        W37444  17.227   5.219   2.499  0.3053 -0.2153  0.1927
21371W        W37445  11.746   5.291   2.423  0.1423 -0.2051  0.0864
21372W        W37446  14.482  10.592  10.894  0.0402 -0.1320  0.1388
21373W        W37447  14.859  14.319   3.135  0.1686  0.0906  0.1206
21374W        W37448  15.480  10.852   2.792  0.1577 -0.2320 -0.3475
21375W        W37449   3.528  12.611   1.410  0.0895  0.2004 -0.0045
21376W        W37450   9.376   9.676   4.670  0.0674 -0.1093 -0.2606
21377W        W37451   0.429  14.926  10.354  0.0741  0.5360 -0.0916
21378W        W37452  10.071   2.056   0.047  0.0085 -0.1846  0.1346
21379W        W37453   2.025   7.333  11.214 -0.2235 -0.0130 -0.2177
21380W        W37454  17.196   1.757   2.298 -0.2719  0.1186 -0.2588
21381W        W37455  11.603  16.182   2.689 -0.0621  0.0485  0.0141
21382W        W37456   5.367   8.652  11.699 -0.1643  0.2246  0.1923
21383W        W37457   2.878  10.691  14.095  0.1328 -0.1437 -0.1419
21384W        W37458  14.596   5.810   0.163  0.0774 -0.2552 -0.0266
21385W        W37459  16.589  18.835  13.669 -0.2423 -0.1548  0.1135
21386W        W37460   5.944   2.571   9.409  0.0163 -0.0432 -0.0764
21387W        W37461  11.387  15.550   3.331  0.1703 -0.0259  0.1199
21388W        W37462   1.229  12.924   2.935 -0.0339 -0.1803 -0.1678
21389W        W37463  18.278  15.124  13.306  0.2796 -0.1387 -0.0658
21390W        W37464   6.986  15.340  10.345 -0.0712  0.2774 -0.1983
21391W        W37465   9.093  13.056  12.085 -0.0986  0.0541 -0.0026
21392W        W37466   6.875  13.664  10.139 -0.1722 -0.0987  0.1754
21393W        W37467   1.959  14.130  14.800 -0.2678  0.0053 -0.1661
21394W        W37468   2.953  19.116  11.240 -0.1130 -0.0756  0.0676
21395W        W37469   0.542  13.383  13.124  0.3723  0.0961 -0.0329
21396W        W37470  14.168   1.279  11.063 -0.0642 -0.1558  0.3593
21397W        W37471   9.624  16.917   2.967  0.1564 -0.3549 -0.2743
21398W        W37472  14.834  16.632   4.210  0.0604  0.0946 -0.0901
21399W        W37473  16.999  17.038   5.556 -0.2872 -0.2774 -0.1956
21400W        W37474  18.345   8.730   3.142  0.0248  0.1810 -0.2520
21401W        W37475  13.376  15.817  10.581 -0.3619 -0.3373 -0.0770
21402W        W37476  14.799   0.085  11.662 -0.1185  0.3508 -0.0793
21403W        W37477   7.679  16.499  12.862  0.3833  0.2019 -0.0095
21404W        W37478  18.389  17.853   1.889  0.0057 -0.0263  0.0542
21405W        W37479   1.946   3.226  10.824  0.4321 -0.4466 -0.0598
21406W        W37480   4.947  16.530   3.367 -0.0580  0.2773 -0.1556
21407W        W37481   1.151   3.978  12.083 -0.3132 -0.0586  0.2679
21408W        W37482  17.980   0.731   1.902 -0.0886  0.0552  0.1341
21409W        W37483   9.464   9.958   1.267 -0.0842  0.0375  0.0842
21410W        W37484  10.637   1.039   3.618 -0.0885 -0.2038  0.1951
21411W        W37485   3.655  15.092  11.463  0.0361  0.2608 -0.0607
21412W        W37486  19.036   6.974   2.249  0.0086  0.2134  0.1370
21413W        W37487  12.976  13.182  14.121  0.0113  0.1957 -0.0005
21414W        W37488  10.466   9.500  12.603  0.1401  0.1680  0.0376
21415W        W37489  11.949   8.363  14.823 -0.0679  0.1664  0.1717
21416W        W37490  13.387  18.818  11.197 -0.0970 -0.0266 -0.0543
21417W        W37491  12.196  10.853   1.080  0.1031 -0.0501 -0.0968
21418W        W37492   8.345  10.539   0.674 -0.2178 -0.2610  0.0169
21419W        W37493  16.444  18.849   9.789  0.3806 -0.1830  0.2843
21420W        W37494  18.183   1.778   3.410  0.0309 -0.5229  0.2623
21421W        W37495   6.748  15.830   2.972 -0.1769 -0.2611 -0.2345
21422W        W37496  17.798   9.342   4.891  0.0974 -0.0454 -0.2995
21423W        W37497   2.954  11.857  14.130 -0.0852  0.0554  0.0112
21424W        W37498  14.737   3.039  13.381  0.2083 -0.0463  0.1189
21425W        W37499   1.087  12.343   3.013 -0.2065  0.0842  0.1428
21426W        W37500   7.897   8.854   0.788 -0.2171 -0.2449 -0.2387
21427W        W37501  11.049  13.764  12.595 -0.0279  0.1657 -0.0193
21428W        W37502  10.312  12.093  11.043  0.2205  0.4378  0.2289
21429W        W37503   8.333   2.118  14.899  0.1063  0.0121 -0.0240
21430W        W37504  15.998  17.406   2.970 -0.0649 -0.2667  0.2034
21431W        W37505  16.076   1.077  14.333 -0.3222 -0.2705  0.0420
21432W        W37506   6.070  17.823   0.877  0.3801 -0.2858  0.1710
21433W        W37507  16.692   8.381  14.628  0.3263 -0.2201 -0.0720
21434W        W37508   0.910  13.746   2.886  0.3819 -0.1599  0.0472
21435W        W37509  17.268   3.358   2.281  0.0685 -0.4513  0.0453
21436W        W37510   4.275   7.217   1.782 -0.0744 -0.0252 -0.0275
21437W        W37511   6.431  15.573  14.814 -0.5577  0.0450  0.1633
21438W        W37512  10.469  13.175   3.236 -0.0672 -0.0580  0.3021
21439W        W37513   6.949  15.368  12.124  0.0900 -0.3295  0.2968
21440W        W37514  15.694  11.953   3.846 -0.0402  0.0891 -0.0161
21441W        W37515   3.483  13.262   0.563  0.1418  0.1723  0.2571
21442W        W37516   7.435   1.840  10.715 -0.1767  0.1907 -0.0121
21443W        W37517   0.210   4.224  12.795 -0.1699 -0.2270  0.0909
21444W        W37518   5.993   4.562   3.509  0.0913 -0.0891 -0.0054
21445W        W37519   6.602  13.096   1.987  0.1724 -0.0144 -0.0703
21446W        W37520  18.133  11.631  12.848  0.1636 -0.0717  0.0219
21447W        W37521   7.346   1.448  11.307  0.1192 -0.0040  0.0201
21448W        W37522  18.358   8.622   2.638  0.0857 -0.1532  0.1648
21449W        W37523   3.626  15.642   4.074 -0.2154 -0.3345  0.2975
21450W        W37524  10.417  18.447   4.454  0.0487  0.0562 -0.1719
21451W        W37525   9.381   1.419  13.695  0.1367 -0.0342  0.9021
21452W        W37526   9.635  17.859  14.633  0.0524  0.0207  0.0344
21453W        W37527  18.944  17.268   1.488  0.1086 -0.1382  0.1586
21454W        W37528   0.077   6.201   0.524 -0.3228 -0.0442  0.0974
21455W        W37529  15.104   8.242   6.040 -0.0171  0.2142 -0.5113
21456W        W37530  13.542  10.950   2.492 -0.1263  0.3929  0.1568
21457W        W37531  12.302  13.332   3.975 -0.2185 -0.1684 -0.2738
21458W        W37532   6.881  14.021  12.685 -0.1755 -0.1853 -0.0109
21459W        W37533  13.234  12.353   0.476  0.1342  0.1728 -0.1571
21460W        W37534   0.642  17.356  11.514 -0.1581  0.0079 -0.0366
21461W        W37535  11.664  18.880   4.577 -0.1390 -0.3248 -0.1570
21462W        W37536  13.840  12.364  10.088 -0.3170  0.1387  0.1041
21463W        W37537   6.210   5.525  14.119  0.1329  0.4850  0.1401
21464W        W37538   8.713  16.967  14.604 -0.1146  0.5318  0.0338
21465W        W37539  15.687  13.219  13.024  0.2500  0.1493 -0.0298
21466W        W37540  17.140   1.807  12.259  0.0364 -0.1600  0.1424
21467W        W37541  16.962  17.086   4.039  0.3402  0.2469  0.0935
21468W        W37542  10.104  17.847  14.955  0.1060 -0.0245 -0.3881
21469W        W37543  14.155   4.435   0.900 -0.0815  0.3882  0.1048
21470W        W37544   4.631   1.110  13.353  0.2258  0.1237  0.0829
21471W        W37545   4.566   2.045   0.299 -0.3560  0.0206 -0.2632
21472W        W37546  10.716  12.775   0.366  0.0266 -0.2126 -0.0725
21473W        W37547   1.881  10.652  11.780  0.1534  0.0910 -0.0895
21474W        W37548  15.540  14.739   2.106 -0.0048 -0.2626 -0.0053
21475W        W37549  18.956   7.716  11.064  0.1878 -0.0593  0.0641
21476W        W37550  17.064   9.265   5.425 -0.5447  0.2327  0.2363
21477W        W37551   9.660  16.531  12.740 -0.1412  0.1444 -0.1179
21478W        W37552  18.698  17.691   3.746 -0.0729 -0.2415 -0.1321
21479W        W37553   4.241   0.069  13.434 -0.1632 -0.0910  0.0484
21480W        W37554   2.949   9.745  14.377  0.0325 -0.0314 -0.3601
21481W        W37555   6.368   7.261  11.461 -0.2376  0.0141  0.0280
21482W        W37556  14.914   6.058   3.192  0.0310 -0.3009 -0.1037
21483W        W37557  17.731  14.311  11.957 -0.2524  0.1192  0.1110
21484W        W37558   7.675  10.651   2.455  0.1299  0.1866 -0.1528
21485W        W37559   6.436   3.609   1.491  0.0949  0.1120  0.0137
21486W        W37560  18.144  10.428   3.277 -0.0449  0.0031  0.1939
21487W        W37561  15.342   5.500  11.817 -0.2719 -0.1821  0.1654
21488W        W37562   2.514   4.427   1.592 -0.2254 -0.1222  0.0867
21489W        W37563  14.194   9.613   0.511 -0.1498 -0.0773 -0.4067
21490W        W37564  10.909   8.342   5.011  0.0624 -0.0284 -0.1778
21491W        W37565   4.534  13.723  11.470  0.1016  0.0619  0.1396
21492W        W37566  11.013   6.764  12.479 -0.1577 -0.0477 -0.1370
21493W        W37567  16.972   5.728   5.150 -0.2843  0.0399 -0.0069
21494W        W37568   4.759   6.311   0.700 -0.4076 -0.2390  0.0269
21495W        W37569   8.855  14.552  12.984 -0.0825 -0.3661 -0.1951
21496W        W37570  11.960   6.472   3.152  0.1617  0.1165  0.3171
21497W        W37571   8.264   4.948   4.187  0.1197 -0.2215  0.3504
21498W        W37572   0.078   1.516   2.323 -0.1003  0.4673 -0.2805
21499W        W37573   4.524   1.067   0.402  0.3523  0.1687  0.0350
21500W        W37574   1.381   9.069  13.094 -0.0118 -0.1995  0.1701
21501W        W37575  15.683  15.978   1.380 -0.1363  0.0904 -0.0951
21502W        W37576  11.646   8.815   2.557  0.0399 -0.2013 -0.5423
21503W        W37577  13.903   2.678  12.825 -0.3331 -0.1339  0.0584
21504W        W37578   3.627   8.147  11.018 -0.0736 -0.1752 -0.0713
21505W        W37579  17.116   8.122   5.263  0.0526  0.1953  0.0427
21506W        W37580   9.273  16.891   5.105  0.0380 -0.1310  0.0718
21507W        W37581  12.689  17.604   4.553 -0.0728  0.0135 -0.2091
21508W        W37582   1.626  17.499  11.652 -0.0419  0.1592  0.1018
21509W        W37583  15.970  17.099   3.449 -0.3013  0.2707  0.2649
21510W        W37584   7.376   2.292   0.643 -0.0435  0.2333 -0.1612
21511W        W37585   6.670   2.261   1.237  0.3589  0.2685  0.2869
21512W        W37586  13.577   9.190  11.900  0.0404 -0.0229  0.1481
21513W        W37587   6.003  14.104   0.479  0.0994  0.0675  0.0132
21514W        W37588  13.870   7.225   1.124  0.1508 -0.2610  0.3636
21515W        W37589  16.616  19.234  12.169  0.1034 -0.0291 -0.0159
21516W        W37590  13.192  16.272  13.518  0.1797 -0.3624  0.1734
21517W        W37591   7.602   9.616   3.797  0.0153  0.1540 -0.2891
21518W        W37592   0.227   4.952   2.384 -0.1336 -0.2307  0.1562
21519W        W37593  17.335   7.728  11.359 -0.1847  0.1405  0.1941
21520W        W37594  11.635   9.056  12.121  0.0507  0.3469  0.0922
21521W        W37595  16.809   2.772  12.590  0.3667 -0.0092 -0.1145
21522W        W37596  12.338  13.448   9.951 -0.0791  0.1376 -0.1060
21523W        W37597   8.692  15.887  12.151  0.1193  0.0275  0.2275
21524W        W37598  10.004  10.758   9.801  0.2633  0.2004 -0.1227
21525W        W37599   4.107  16.485  12.750  0.2974 -0.4071  0.0944
21526W        W37600   7.275  18.117   9.808  0.2029 -0.0523  0.2894
21527W        W37601   8.212  10.118   0.227 -0.0881  0.1579 -0.0377
21528W        W37602  14.211  13.511  14.057 -0.2532  0.1639  0.0928
21529W        W37603   7.680  13.361   5.114 -0.1735  0.0746 -0.0012
21530W        W37604  10.242  11.699   5.175  0.1989 -0.0647 -0.0613
21531W        W37605   3.415  12.855   2.927  0.2006 -0.4003  0.0137
21532W        W37606  18.939   8.836  14.138 -0.1418  0.0028 -0.2193
21533W        W37607  15.974  14.972   2.269 -0.0682  0.3188 -0.3167
21534W        W37608  18.549   7.452   1.213 -0.5282  0.1984 -0.1270
21535W        W37609  16.004  13.905  12.251 -0.0327 -0.0918 -0.4161
21536W        W37610  13.856   1.628   5.696  0.3271 -0.1746  0.3638
21537W        W37611   9.416   2.320  13.914  0.2693  0.0210 -0.0290
21538W        W37612   3.060   2.831   3.800  0.1538 -0.3959  0.1103
21539W        W37613  18.192   3.910   4.705 -0.3382 -0.1456 -0.3995
21540W        W37614  12.657   8.197  10.846 -0.0229  0.2400  0.1573
21541W        W37615  18.068  14.304   4.986 -0.0583 -0.0946 -0.2804
21542W        W37616   5.508   0.738  12.984 -0.5252 -0.1540 -0.1474
21543W        W37617  18.035  12.193   5.888  0.1276 -0.2591 -0.1431
21544W        W37618   7.925  11.772   2.554 -0.3647  0.0456  0.1661
21545W        W37619   3.093  12.844   0.460 -0.4558  0.0454  0.2896
21546W        W37620   1.661  17.205   4.135  0.0390  0.2620 -0.2177
21547W        W37621  12.845   4.442  13.084  0.0696 -0.0322 -0.0629
21548W        W37622  11.583   9.362   4.495 -0.3459 -0.0301 -0.3182
21549W        W37623  17.180   0.325   4.474 -0.0967 -0.1615 -0.2535
21550W        W37624   8.855  18.235  14.118  0.2927 -0.2334  0.0908
21551W        W37625  16.645   7.770   3.064  0.0420  0.0475  0.0916
21552W        W37626  18.525   2.946  11.098 -0.1059 -0.3070 -0.0512
21553W        W37627  17.291  11.496  13.802  0.0302  0.1357 -0.3024
21554W        W37628  14.789   0.387   5.120  0.0227 -0.4944  0.0046
21555W        W37629  11.551  15.346   0.812 -0.1270  0.3255 -0.1111
21556W        W37630   6.911   2.526   3.438  0.2363 -0.0192  0.0839
21557W        W37631   3.882   4.531  13.058 -0.1688  0.1686 -0.0589
21558W        W37632  13.532  16.841   0.777 -0.2269 -0.0424 -0.2710
21559W        W37633  15.755   7.307   3.308  0.3332 -0.2622 -0.4010
21560W        W37634  19.316  10.927   0.099 -0.0453  0.1659 -0.1311
21561W        W37635  14.222  12.978   1.173 -0.1990  0.0655  0.0064
21562W        W37636   5.229   4.982   5.426 -0.1570 -0.0819 -0.2193
21563W        W37637   7.488   2.994  12.054  0.0109 -0.2393 -0.0087
21564W        W37638   6.336  19.202   3.890  0.1362  0.1276 -0.2616
21565W        W37639   5.680  15.336  13.444 -0.1640  0.3117  0.1216
21566W        W37640   2.896   1.045  11.347 -0.0313 -0.0331  0.1777
21567W        W37641  15.447  12.370   4.264 -0.0051 -0.1531  0.3042
21568W        W37642  16.561   5.146   3.472  0.2586 -0.0686 -0.0800
21569W        W37643  17.166  16.476   3.443  0.3717 -0.0573 -0.1516
21570W        W37644   5.985  10.013  11.319 -0.6517 -0.0927  0.1415
21571W        W37645   3.980   5.844  13.085  0.1581  0.0077  0.1298
21572W        W37646  19.025   8.462   4.285  0.2434  0.3040  0.0108
21573W        W37647  16.101   2.392  12.307 -0.0826 -0.0602 -0.3419
21574W        W37648   3.968  11.955   2.136 -0.0031 -0.1965 -0.1927
21575W        W37649   9.405  10.205  13.045 -0.1415  0.1091  0.1623
21576W        W37650  17.071  11.049   3.975 -0.0250  0.1088 -0.2515
21577W        W37651  18.665   7.450   2.999  0.0820 -0.0619  0.2655
21578W        W37652   6.876  17.383   0.109 -0.0197  0.1679  0.2318
21579W        W37653   9.762   7.864  11.562 -0.2044  0.3152  0.2814
21580W        W37654  14.212  18.734  11.975 -0.3351 -0.1006  0.3652
21581W        W37655   4.777  13.032   0.823  0.0406 -0.0775  0.0063
21582W        W37656  16.232   4.366   5.073 -0.4162  0.1037 -0.4424
21583W        W37657   4.030  12.986  11.541 -0.0281 -0.0832  0.0692
21584W        W37658  16.765  15.913  11.491  0.1477  0.1627  0.1834
21585W        W37659  15.676  16.820   1.441 -0.2560  0.3345  0.1263
21586W        W37660  11.821   8.215   4.904 -0.1535  0.0184  0.1909
21587W        W37661  11.553   2.566  10.968  0.0587 -0.0115  0.1082
21588W        W37662  15.380   2.827   9.601 -0.0365 -0.1421  0.1359
21589W        W37663   0.315   4.782  14.019 -0.0490 -0.0394  0.0779
21590W        W37664  19.128   2.696   9.655  0.2045  0.3074 -0.2920
21591W        W37665   2.283   5.653  13.600 -0.4519 -0.1614 -0.4064
21592W        W37666  10.232  11.806   1.395  0.5149  0.2290 -0.1379
21593W        W37667  11.238   6.272   4.241 -0.3910 -0.0349 -0.0620
21594W        W37668   6.495   4.751  14.920  0.2131  0.3154  0.1270
21595W        W37669   7.636   5.473   2.105  0.2540  0.0300  0.0654
21596W        W37670  17.771   1.134   2.983  0.0716 -0.0414 -0.0268
21597W        W37671   6.417  11.682  14.402  0.1666 -0.2128 -0.0575
21598W        W37672  17.271   6.254  14.778 -0.0167 -0.0618  0.0136
21599W        W37673   4.977   4.102   9.936  0.0137 -0.0965  0.4296
21600W        W37674   3.512   4.686  12.584 -0.1527 -0.0656 -0.1137
21601W        W37675  17.375  10.746  13.459  0.2541 -0.4145 -0.3165
21602W        W37676  12.122  12.019   3.671 -0.0017  0.0026 -0.0919
21603W        W37677   4.475  18.498   3.518 -0.1844  0.0268  0.0432
21604W        W37678   0.705   4.186  13.350 -0.1567  0.2143  0.0817
21605W        W37679  12.517  13.701  11.742 -0.2505  0.1214  0.0914
21606W        W37680   7.153  10.415  14.403 -0.5312 -0.1002 -0.0065
21607W        W37681  13.209  17.916   2.140 -0.3195  0.1338 -0.1788
21608W        W37682   6.734   2.334  11.830  0.3921  0.0152 -0.1477
21609W        W37683  16.766  15.521  12.952  0.1966  0.2041  0.0866
21610W        W37684  10.990  15.937  10.170 -0.1082  0.1445  0.1264
21611W        W37685   4.222  14.840   3.138  0.0425  0.0115  0.2814
21612W        W37686  15.294   8.558   1.412  0.1168  0.0029 -0.1085
21613W        W37687   8.340   9.295  14.890 -0.1237  0.2391 -0.3099
21614W        W37688  15.337  15.469   1.123 -0.0519  0.2601  0.0606
21615W        W37689   2.618   7.140   0.440 -0.0048  0.1901  0.3750
21616W        W37690   3.334  11.545   4.092  0.0257 -0.1017 -0.2787
21617W        W37691  16.262   4.219  12.433  0.0812  0.3359 -0.0840
21618W        W37692  18.820  10.436  12.433 -0.1843  0.1497 -0.2531
21619W        W37693   8.375  11.796   9.072  0.1303  0.1664 -0.0245
21620W        W37694  14.480  16.671  12.091 -0.2265 -0.1560 -0.2257
21621W        W37695  18.678  18.057   0.054  0.2064  0.0843 -0.1385
21622W        W37696  16.087  10.577   1.399 -0.5161 -0.1122  0.1032
21623W        W37697  18.051  17.283  14.711  0.0700 -0.0223 -0.4048
21624W        W37698  13.468  16.103   3.660 -0.2010  0.0939  0.5750
21625W        W37699   4.611   0.511   4.039 -0.0042 -0.0973 -0.3335
21626W        W37700  16.968  11.287  13.452  0.0892 -0.1075 -0.1214
21627W        W37701  13.134   3.634  14.841 -0.0422  0.2380 -0.4280
21628W        W37702  18.654   7.091  11.509 -0.2781  0.1742  0.0204
21629W        W37703   0.140  13.778  12.575  0.1267 -0.0067 -0.0288
21630W        W37704  12.558  16.383   3.788 -0.0930 -0.2294  0.3775
21631W        W37705  12.655   1.486   1.803  0.0882  0.1682  0.1134
21632W        W37706   7.485   6.422   2.949 -0.0117 -0.0899 -0.1536
21633W        W37707  13.214  12.217  10.965  0.1265  0.1868  0.2311
21634W        W37708   2.361  11.093  12.604 -0.1605 -0.0309 -0.0218
21635W        W37709  15.311  15.655   4.784 -0.0878  0.1626 -0.3699
21636W        W37710  14.879   3.653  13.266  0.0051 -0.1034  0.0025
21637W        W37711  18.170  17.915  12.128  0.0091  0.1867  0.1247
21638W        W37712  17.353  17.334   4.150 -0.3425  0.2829  0.0462
21639W        W37713  10.743   6.838  12.084 -0.0631 -0.0247 -0.0120
21640W        W37714   9.712   9.830  12.066  0.0390 -0.0227  0.0972
21641W        W37715  11.239  14.705  13.586 -0.1140 -0.3271 -0.0141
21642W        W37716   1.495  15.560   2.300  0.0127  0.1735 -0.0256
21643W        W37717   5.027  14.742  11.028 -0.0748 -0.0310  0.1814
21644W        W37718   2.808  18.956  11.707  0.1646  0.1607 -0.0289
21645W        W37719  18.252   3.016  11.968  0.1324 -0.2874  0.0901
21646W        W37720  15.180   8.966   1.172 -0.1722  0.0051 -0.1028
21647W        W37721  18.661   6.044   2.299  0.0703 -0.1172 -0.2334
21648W        W37722  14.283   2.585   3.856 -0.0683 -0.2275 -0.2618
21649W        W37723  17.186  19.221   5.286 -0.0164  0.1095  0.2478
21650W        W37724  10.840   2.956   4.393  0.0658  0.2418 -0.1566
21651W        W37725  15.567  17.248   3.156 -0.2055 -0.1008  0.0103
21652W        W37726   5.110   4.278  11.595  0.3824 -0.0324 -0.5227
21653W        W37727  11.363   8.707  13.326 -0.2018  0.3047  0.2937
21654W        W37728  13.399  13.785   2.525  0.2113  0.1018 -0.0489
21655W        W37729  17.844  16.385  13.606  0.0811  0.0903  0.2203
21656W        W37730   8.217  17.667  14.401 -0.0168  0.1086  0.2012
21657W        W37731  17.047  12.107  12.996 -0.5500  0.1637 -0.0809
21658W        W37732   3.570  14.824  12.344  0.0324 -0.2285 -0.0633
21659W        W37733  13.292  18.402   3.084  0.2343 -0.2069 -0.1934
21660W        W37734  11.141  18.079  13.641  0.1150  0.1967 -0.1993
21661W        W37735  13.126  14.264  12.228  0.1489  0.1818 -0.4484
21662W        W37736   6.878   2.251  13.248 -0.1699 -0.3509  0.0194
21663W        W37737   7.851  17.381   1.310  0.1130  0.4841 -0.1069
21664W        W37738   0.036  14.317   1.468 -0.0355 -0.1941  0.4318
21665W        W37739  13.670   4.315   4.654  0.1201 -0.0880  0.3339
21666W        W37740   2.477   2.190  12.900  0.1959 -0.1476  0.2413
21667W        W37741   3.685  11.656   0.066  0.0940  0.0519  0.0455
21668W        W37742   1.065  18.243   0.837 -0.1768 -0.0052  0.0210
21669W        W37743  11.627   1.960   3.954  0.2188 -0.0948  0.0516
21670W        W37744   0.097   9.324   0.293  0.2041  0.0519 -0.3528
21671W        W37745   0.139   5.662   3.863  0.2923 -0.2071  0.1354
21672W        W37746   5.303  14.926   1.083 -0.2784  0.2235  0.3353
21673W        W37747  12.073   8.809  13.473 -0.0084  0.0075  0.0884
21674W        W37748   8.095   2.973  14.750 -0.1910 -0.1217 -0.1132
21675W        W37749  17.238   0.469   6.001  0.0273  0.0897 -0.0761
21676W        W37750   0.874   9.675   4.310  0.1307  0.3141  0.0717
21677W        W37751  15.535  18.335  14.542 -0.1580 -0.2500 -0.1571
21678W        W37752   7.886   0.422  11.122 -0.1748 -0.1562 -0.2276
21679W        W37753  11.599  12.612   3.411  0.0953  0.1634  0.0620
21680W        W37754   6.563   0.413  13.150  0.2476 -0.3523 -0.0175
21681W        W37755  12.089  11.032  10.465 -0.1506  0.2163  0.2369
21682W        W37756   4.403   8.272   0.811  0.1187  0.0952 -0.2654
21683W        W37757   9.699  17.479  10.951  0.0669 -0.1301 -0.1240
21684W        W37758   7.268  18.070  13.469 -0.2039 -0.1366  0.0608
21685W        W37759  10.890  14.630   3.026  0.1778  0.1115 -0.0801
21686W        W37760  13.822   5.806  13.997  0.0325  0.0328 -0.5679
21687W        W37761   2.422   1.112  11.527 -0.1495 -0.0816  0.2052
21688W        W37762  16.190  11.516  11.653 -0.0166 -0.0656  0.1016
21689W        W37763  13.756  15.383   0.317 -0.0180 -0.2134 -0.0462
21690W        W37764   1.752   1.391  12.671  0.0332 -0.4062  0.0069
21691W        W37765   5.019  19.067  14.559 -0.1245  0.0732 -0.2067
21692W        W37766   8.851  15.727   0.285  0.1504  0.1340 -0.1097
21693W        W37767   3.255  13.778  14.761  0.3369  0.0479 -0.1032
21694W        W37768   5.524  17.259  10.761  0.0044  0.1214  0.2350
21695W        W37769   3.783  12.136   5.337  0.3041 -0.0194 -0.0833
21696W        W37770   0.482   2.927   0.414  0.1405 -0.0439 -0.0943
21697W        W37771   5.734   0.161  13.785  0.0909 -0.0886 -0.1032
21698W        W37772   0.773  16.428   3.415 -0.0368 -0.0574 -0.4661
21699W        W37773   0.939   9.407   1.347 -0.3313 -0.1647  0.0364
21700W        W37774  16.116   2.586   3.007 -0.0510  0.1327 -0.1484
21701W        W37775   4.889  12.681   3.620  0.1191  0.1372  0.2261
21702W        W37776   0.488   1.096  12.530  0.0701 -0.3592 -0.0600
21703W        W37777  12.049  10.160   0.878 -0.1041 -0.0334  0.2318
21704W        W37778  12.869  18.251   1.983  0.0918 -0.1195 -0.1113
21705W        W37779   2.940   1.821  14.491 -0.5318  0.2868 -0.0601
21706W        W37780   5.448  18.610   3.680  0.1083 -0.0263  0.2096
21707W        W37781   6.558   6.036   3.749  0.0383  0.1275 -0.0461
21708W        W37782  18.476  15.868   3.021 -0.2932  0.1727 -0.1715
21709W        W37783   2.646   8.152  13.045 -0.0193  0.0970  0.1860
21710W        W37784   2.144  14.267  12.361 -0.1893 -0.1210  0.0923
21711W        W37785   5.796  17.598  13.971  0.2526  0.2197 -0.2951
21712W        W37786   5.172   4.022  13.192 -0.2590  0.4608 -0.0948
21713W        W37787  14.831  10.495  10.351 -0.0442  0.0234  0.0851
21714W        W37788   4.368   7.460  14.756 -0.4378  0.0779  0.2651
21715W        W37789  15.652  11.831   0.982  0.0043 -0.0312 -0.1097
21716W        W37790   5.628   1.991  11.976  0.0012  0.1895  0.1736
21717W        W37791  12.393   1.845   9.181 -0.1950 -0.0541 -0.1570
21718W        W37792  14.695   8.202   4.652  0.1012 -0.0510  0.1328
21719W        W37793   1.811  18.918   3.974 -0.3804 -0.0924  0.2559
21720W        W37794  10.537   2.582   9.628 -0.0814  0.2499  0.0086
21721W        W37795  17.490   2.012   3.315 -0.0726  0.0523 -0.1098
21722W        W37796   4.680   9.687   1.912  0.0034 -0.2157 -0.0442
21723W        W37797   2.445   5.677   3.835 -0.0826 -0.0206  0.0662
21724W        W37798   1.642   2.973   5.166  0.1588  0.1646 -0.2269
21725W        W37799   0.032  19.121  12.104 -0.1201  0.2149 -0.2244
21726W        W37800   8.204  11.547  11.237  0.0836 -0.1808  0.2739
21727W        W37801  10.340  12.021   0.047 -0.2252 -0.2472  0.0761
21728W        W37802   5.113   2.049  13.934  0.0977 -0.0912  0.0959
21729W        W37803   4.177   7.929  12.928 -0.1063 -0.3695 -0.2137
21730W        W37804   4.386  19.053   1.665 -0.0863 -0.1871  0.1022
21731W        W37805  18.438  17.697   2.392  0.2977  0.5955 -0.2369
21732W        W37806  16.696   6.777  10.465 -0.1810 -0.1732  0.0723
21733W        W37807  17.594   8.972   2.158 -0.0941 -0.0550 -0.2371
21734W        W37808   3.530  19.243  12.440  0.0300  0.0223  0.1522
21735W        W37809   5.414   6.378  12.249  0.1169  0.1162  0.3125
21736W        W37810   0.739  13.658  13.964 -0.0573  0.1076  0.2544
21737W        W37811   6.576  18.720  10.275 -0.3723 -0.0278 -0.1246
21738W        W37812   9.014  15.580  10.310  0.3493  0.3519  0.0835
21739W        W37813   2.862   3.245  14.586 -0.0718  0.1733 -0.3940
21740W        W37814   3.917  12.606   1.094  0.1700  0.0805 -0.1485
21741W        W37815  12.046   0.587   3.486  0.1081 -0.1547 -0.2631
21742W        W37816   8.825   7.661   3.910  0.0494 -0.1895  0.1125
21743W        W37817   9.032  10.864  12.024  0.2528  0.1802  0.3662
21744W        W37818  12.590   3.908  11.411  0.1454  0.0182  0.0509
21745W        W37819  13.642  11.716   4.698  0.0652  0.1143 -0.0979
21746W        W37820   0.025  14.443   9.148  0.2953 -0.2113  0.2543
21747W        W37821   6.313   2.662   4.020  0.0760 -0.2458  0.1774
21748W        W37822  16.934   9.748   0.981  0.2302 -0.0409  0.4977
21749W        W37823  14.743  10.481   3.088 -0.1795 -0.5087 -0.0852
21750W        W37824  11.627   5.228  10.897  0.2912  0.0240 -0.0855
21751W        W37825  17.623  12.198   1.829  0.0388 -0.3185  0.1378
21752W        W37826  16.663  13.423  12.141  0.1152  0.1853  0.2213
21753W        W37827   7.289  18.007   3.034 -0.0832 -0.1844 -0.1061
21754W        W37828  13.407   4.694   1.862  0.1443 -0.3017  0.0676
21755W        W37829   5.592  18.523   1.432 -0.1435 -0.2101 -0.1857
21756W        W37830  11.523   7.998   0.011 -0.4718 -0.1481 -0.0728
21757W        W37831  18.969   1.656  10.791 -0.0677  0.1660  0.1647
21758W        W37832  14.030  16.536  10.844 -0.1516 -0.2423  0.0674
21759W        W37833  17.207  11.176  11.595  0.0042 -0.3283 -0.0386
21760W        W37834   1.554   6.895  14.218  0.0621 -0.1292  0.3429
21761W        W37835   8.908  18.518   2.145 -0.0433  0.4078  0.0098
21762W        W37836  12.628   4.597   5.164 -0.3354  0.1116 -0.4140
21763W        W37837  10.678  14.874   4.044  0.1764  0.0438 -0.3214
21764W        W37838  17.781  12.779  14.368  0.3518 -0.0556 -0.1159
21765W        W37839  10.403   4.547   0.102  0.1216 -0.2664  0.2303
21766W        W37840   6.206   8.001  13.399  0.0322  0.0755  0.3369
21767W        W37841  15.698  16.091  11.497 -0.1390  0.1379  0.1453
21768W        W37842   1.292  15.023  13.770 -0.2035  0.0843  0.2542
21769W        W37843   3.849  11.691  13.869 -0.1788 -0.1761 -0.2192
21770W        W37844   6.386   6.208   2.161  0.0142 -0.1477  0.2772
21771W        W37845   7.571   4.892   0.695  0.1124 -0.0201  0.2918
21772W        W37846   8.472   0.687  14.089  0.0284 -0.0481  0.4520
21773W        W37847  15.951   4.097   4.478  0.1429 -0.0012  0.0850
21774W        W37848  10.125   2.016   9.985 -0.0312 -0.2753  0.4880
21775W        W37849   6.697   2.908  10.303 -0.1969  0.1080  0.2997
21776W        W37850  10.323   4.447  11.942 -0.0887  0.2795  0.0992
21777W        W37851  15.358   0.152  11.703 -0.3294 -0.0100  0.0034
21778W        W37852  12.138  14.241  10.370  0.0782 -0.0823 -0.3440
21779W        W37853   5.725   2.782  10.927  0.3663 -0.0168 -0.1256
21780W        W37854   6.060   3.548   0.628 -0.1481  0.0749 -0.1896
21781W        W37855   3.456   4.079   0.404 -0.1521 -0.0769  0.0249
21782W        W37856   3.428  13.354  13.824 -0.1118  0.1294  0.0459
21783W        W37857  11.111   9.299   4.622  0.1444  0.1471 -0.0367
21784W        W37858  10.475  14.473   2.055 -0.1846  0.0594 -0.0437
21785W        W37859   9.524  15.442   3.823 -0.2171  0.4296  0.2081
21786W        W37860   9.155  16.605  13.802  0.1671  0.0595  0.0674
21787W        W37861  12.103   0.668  11.088 -0.1572  0.1702  0.3377
21788W        W37862   0.892  18.823   2.569  0.1613 -0.3777  0.0210
21789W        W37863   2.232   2.337  11.319  0.0143 -0.2663 -0.2202
21790W        W37864  14.152  18.780   0.276 -0.0493  0.2493  0.0395
21791W        W37865  13.202   0.085   0.667 -0.1382 -0.4671 -0.0722
21792W        W37866  15.141  18.082   1.357 -0.0784  0.2085 -0.1474
21793W        W37867  11.283   1.678  14.795  0.0346 -0.2995 -0.1161
21794W        W37868   7.053   1.445   9.913  0.2740  0.1882  0.0789
21795W        W37869  16.304   9.241  14.388 -0.4384 -0.1981 -0.1442
21796W        W37870   6.978   2.997   3.259 -0.2141  0.0230 -0.0199
21797W        W37871  17.887   1.523   4.210  0.2396 -0.0315 -0.2244
21798W        W37872   2.804   5.428   4.247 -0.1973  0.0752  0.0926
21799W        W37873   7.605   6.196  12.706 -0.0330 -0.0618  0.1305
21800W        W37874   5.122  17.911  13.469  0.0266 -0.1327  0.0338
21801W        W37875   1.566  11.747   5.468  0.0053  0.1678 -0.2654
21802W        W37876   8.291  11.617  12.079 -0.1207 -0.0494  0.1723
21803W        W37877   2.996   1.604   3.459  0.1450 -0.3064  0.0178
21804W        W37878   8.730  15.213  13.917  0.0687 -0.0909  0.0824
21805W        W37879   4.376   3.720  11.618 -0.2277  0.1693 -0.0578
21806W        W37880  17.506   8.543  14.057 -0.1339  0.4040  0.2872
21807W        W37881  15.028  14.245   0.844  0.0192  0.0866  0.5602
21808W        W37882   8.477  13.774   4.269  0.2620  0.0016 -0.1039
21809W        W37883  16.954  10.381  11.310  0.1367  0.1951 -0.4170
21810W        W37884   5.707   9.334   3.989 -0.1103  0.1559 -0.1228
21811W        W37885   8.449   4.302   5.379 -0.0920  0.1968 -0.3168
21812W        W37886   6.971   7.188   3.025 -0.0422 -0.0555 -0.0212
21813W        W37887  16.672  17.930   4.553 -0.1053  0.4376  0.1681
21814W        W37888   5.736   0.799   4.504  0.2027 -0.4445 -0.1268
21815W        W37889   7.278   8.413   1.303 -0.0389  0.0186 -0.0082
21816W        W37890  10.761   4.889   0.068  0.2296  0.1087  0.0625
21817W        W37891   7.644  11.186  11.029 -0.0694  0.1437  0.0995
21818W        W37892  16.122  19.260   2.914 -0.0003  0.0350  0.0973
21819W        W37893  17.888   4.191   4.252 -0.1339 -0.2973 -0.2995
21820W        W37894   9.783  13.149   1.938 -0.0767  0.1243 -0.2049
21821W        W37895   7.786  12.077  14.621 -0.0569  0.1715  0.2806
21822W        W37896   6.627   9.455  12.026 -0.4165  0.0207 -0.1244
21823W        W37897   3.074  12.402   1.250  0.2723 -0.4066  0.0133
21824W        W37898  10.600   3.679  13.652 -0.2676  0.3964  0.1457
21825W        W37899   5.018   3.361  10.694 -0.0146  0.0048  0.2620
21826W        W37900   9.145   9.130   3.865  0.2847  0.0032 -0.1178
21827W        W37901   7.281  18.978  14.666 -0.2223  0.0383  0.1996
21828W        W37902  10.185  12.925   0.971 -0.0265  0.1129  0.0051
21829W        W37903  17.303   5.685  13.945 -0.0136  0.1493  0.0886
21830W        W37904   9.146   4.327   2.449 -0.2596  0.1161 -0.0429
21831W        W37905  11.944  14.014  12.059  0.0898  0.1391 -0.0027
21832W        W37906   2.812   1.312  13.346  0.0221 -0.0903  0.1978
21833W        W37907  16.845   3.566   5.514  0.0957  0.0377 -0.1679
21834W        W37908  12.100  14.545   1.072  0.0533 -0.1067  0.1419
21835W        W37909  13.236   1.277   2.872 -0.0383 -0.1434 -0.1655
21836W        W37910   4.963   3.668  14.857  0.0667  0.0322  0.0464
21837W        W37911  11.485   0.530  10.522  0.1181 -0.3429 -0.1685
21838W        W37912   9.611   1.645  10.531  0.1223 -0.0030  0.0276
21839W        W37913  13.937  14.659   0.656 -0.0020  0.1511 -0.1996
21840W        W37914   8.686   6.031  12.388  0.2182  0.1384  0.0801
21841W        W37915  17.200  11.149   5.044 -0.4680 -0.0026  0.0480
21842W        W37916   3.420  18.926  10.436  0.1255  0.1809  0.1545
21843W        W37917   3.027  13.116   2.682 -0.2405  0.2285  0.1377
21844W        W37918  12.280   2.555   2.892 -0.3305  0.1459  0.3430
21845W        W37919  13.904  15.094   4.595  0.0576 -0.0279  0.4184
21846W        W37920   2.906   8.766   3.413  0.0262 -0.2703 -0.0228
21847W        W37921  14.939   6.342   5.338  0.0085 -0.1406 -0.0297
21848W        W37922   4.826  17.845  11.066 -0.1083  0.0475 -0.1350
21849W        W37923  12.627   9.385   0.182  0.1361  0.1362  0.0827
21850W        W37924   0.782  10.377  11.904 -0.1466 -0.2819  0.2082
21851W        W37925   6.320   9.777   4.116 -0.1334  0.0686 -0.0841
21852W        W37926   1.756   0.203   3.440  0.1820  0.2455 -0.0783
21853W        W37927   3.311  16.397   3.482  0.2728  0.0282  0.3601
21854W        W37928  12.134   6.828   0.535 -0.0567 -0.2069 -0.0043
21855W        W37929   4.694   6.581  14.407 -0.3113  0.1525 -0.0072
21856W        W37930   7.150  19.036  13.213  0.0031  0.1057 -0.0421
21857W        W37931  17.114   8.370  12.229  0.2629 -0.0369 -0.2798
21858W        W37932   1.854   9.147   2.817 -0.1430  0.1924 -0.0083
21859W        W37933  14.167  12.925   0.689  0.2898  0.0226 -0.4050
21860W        W37934   9.678  17.622  11.949 -0.0897 -0.1423 -0.2787
21861W        W37935  17.518   3.349  11.376  0.0859 -0.0235  0.2171
21862W        W37936  15.293  10.233  13.242 -0.0848  0.2321 -0.3339
21863W        W37937  17.817   6.826   3.224  0.0712 -0.2584 -0.0070
21864W        W37938  18.957   5.174  14.031 -0.0446  0.0802  0.1541
21865W        W37939   0.436   0.002   3.618  0.3755  0.1556 -0.0216
21866W        W37940   3.328   0.045   1.613  0.1232 -0.2712  0.4144
21867W        W37941   0.452  13.007  11.164 -0.0778 -0.1956  0.1523
21868W        W37942  16.320   8.739   3.041 -0.3436  0.0004 -0.2328
21869W        W37943   0.212  14.906  13.251  0.0662 -0.1331  0.2133
21870W        W37944  11.206   0.263   2.590  0.1194  0.1088  0.2898
21871W        W37945   5.610  12.343  13.877 -0.0259 -0.2332  0.3705
21872W        W37946  18.136   0.019   2.611 -0.0896  0.1172 -0.0551
21873W        W37947  18.167   6.437   3.135  0.0157  0.1437 -0.0235
21874W        W37948  19.192  15.926  14.926  0.3073  0.1339  0.0339
21875W        W37949  14.890  18.371   1.774 -0.3501  0.0539 -0.0254
21876W        W37950  11.004   2.441   0.339  0.2878  0.0169 -0.2608
21877W        W37951  18.635   2.161   2.548  0.1286 -0.1121  0.3315
21878W        W37952  11.404  11.711   9.333  0.0269 -0.2084 -0.0668
21879W        W37953  11.446   8.634   0.505 -0.1285 -0.0249  0.1603
21880W        W37954  14.671   3.040   3.618  0.1742 -0.0734 -0.2434
21881W        W37955  16.692  14.550  13.031  0.3118 -0.2619  0.0457
21882W        W37956  16.729  18.231   6.073  0.0078  0.1258 -0.0007
21883W        W37957  14.268   2.734  10.978  0.0336 -0.4206 -0.3208
21884W        W37958  17.467  14.453   1.902  0.0055  0.0176  0.4656
21885W        W37959   9.653   5.134   2.753  0.1697  0.1727 -0.0163
21886W        W37960  15.819  13.796   0.516  0.4429 -0.2203  0.1810
21887W        W37961  18.263   5.260   1.570  0.0902 -0.2235  0.1331
21888W        W37962   6.640  12.554  12.497 -0.0480 -0.2349  0.2875
21889W        W37963   0.040   8.073   1.528 -0.1457  0.1946  0.4039
21890W        W37964  15.231   2.002   3.199 -0.4284 -0.0886 -0.0862
21891W        W37965  18.049  16.937   0.805  0.1811  0.0179  0.2167
21892W        W37966  13.804  18.586  10.932  0.1154 -0.1969  0.3909
21893W        W37967  10.508  13.595   3.534  0.0364  0.0654 -0.1034
21894W        W37968  10.442  15.707  11.638 -0.2723 -0.0341  0.2558
21895W        W37969  15.776   3.011   0.987 -0.2063  0.0551  0.0592
21896W        W37970   1.353   5.956  14.770 -0.2618 -0.0182 -0.3037
21897W        W37971  15.005  12.624  11.821  0.0425 -0.1926  0.1860
21898W        W37972  14.171   9.189   0.201 -0.0616  0.0872 -0.2194
21899W        W37973   8.590   8.225  14.373 -0.0493  0.0146 -0.0045
21900W        W37974  17.996  15.135  14.596  0.1570  0.2983  0.0887
21901W        W37975   5.300   3.569  12.216  0.2021  0.2907 -0.0959
21902W        W37976  14.202   7.164  11.881  0.1262  0.2479 -0.0901
21903W        W37977   4.318  16.699  10.872 -0.2157 -0.0089 -0.2979
21904W        W37978  12.050   0.407  12.403  0.2082  0.0544 -0.1858
21905W        W37979   7.749   4.623   0.323  0.2201  0.3282 -0.1635
21906W        W37980   2.860   9.491   2.759  0.3217  0.1596 -0.0178
21907W        W37981  17.595  17.246   0.056 -0.2780  0.1034  0.0704
21908W        W37982   9.077   0.416   4.500  0.0875  0.0523  0.0368
21909W        W37983  18.875  12.123   1.162 -0.0838 -0.0408  0.0977
21910W        W37984  13.951  17.646  13.346 -0.0830 -0.1465  0.0691
21911W        W37985  14.573  11.062   0.110  0.1467  0.3909  0.0157
21912W        W37986   7.001   3.844  14.079  0.0284 -0.0211  0.0455
21913W        W37987   9.004  18.064   3.882 -0.2440  0.2512 -0.0262
21914W        W37988  14.934  14.358  13.797  0.1851 -0.2600 -0.5629
21915W        W37989   8.291  17.128  12.299  0.3347 -0.3514 -0.0983
21916W        W37990  13.531   7.547   3.891 -0.1017 -0.0290 -0.1915
21917W        W37991  14.369   8.432  14.083 -0.0349 -0.3790  0.1194
21918W        W37992  17.000   2.127  13.310  0.1386 -0.0847  0.1501
21919W        W37993   1.377   0.501   3.460 -0.0325 -0.2730 -0.0539
21920W        W37994   4.732   0.737  12.472  0.0471  0.0444 -0.1229
21921W        W37995  12.625  17.467  10.062  0.2211 -0.1919  0.4034
21922W        W37996  17.464  16.193   2.649  0.2685 -0.0206 -0.0524
21923W        W37997   5.394   8.796  10.013  0.1931  0.2715 -0.3351
21924W        W37998   9.307  13.094   0.615 -0.1762  0.0818  0.1299
21925W        W37999   0.202   3.669   2.865 -0.2694 -0.2831 -0.0323
21926W        W38000  15.220  12.655   2.492  0.2052 -0.2058  0.1547
21927W        W38001   0.346  16.861  10.979 -0.2319 -0.0429  0.2452
21928W        W38002  11.889   0.011  11.121 -0.2524  0.0632 -0.0716
21929W        W38003   1.806   7.704  14.710  0.0476  0.0601 -0.2169
21930W        W38004  13.128   1.697  14.047 -0.1249  0.2899 -0.3016
21931W        W38005  17.405  10.908   0.834  0.0227  0.0595  0.0028
21932W        W38006  10.652  14.366   4.116 -0.1051 -0.3325  0.3642
21933W        W38007  11.831   9.736   2.292 -0.1162  0.1665  0.1507
21934W        W38008   8.358  15.196  11.723 -0.1426  0.3371 -0.1340
21935W        W38009   6.964   9.857  11.193  0.1021  0.0259 -0.1477
21936W        W38010   5.421  10.152   3.295 -0.1564 -0.2724  0.1477
21937W        W38011  18.556   2.432  13.407 -0.1481 -0.0200  0.0553
21938W        W38012   3.825   3.338   2.234  0.0556 -0.0857  0.0226
21939W        W38013  10.032  19.208   3.149  0.1242 -0.0803 -0.2430
21940W        W38014  15.784  15.357   2.574  0.1099  0.0640 -0.0222
21941W        W38015  15.195   4.218  12.402  0.1635  0.0187 -0.0241
21942W        W38016   5.749   9.479  13.313  0.1518  0.2240  0.4262
21943W        W38017  18.935  18.370   1.332 -0.0000  0.0660 -0.0509
21944W        W38018   6.581  16.912   4.573  0.2759 -0.2486  0.1507
21945W        W38019   1.138   5.618  11.650 -0.0873  0.1119  0.2586
21946W        W38020   5.480  10.256  10.591 -0.0251  0.3454  0.2571
21947W        W38021   5.093  19.068   2.990 -0.4206  0.1588 -0.2033
21948W        W38022   6.612  18.620   3.239  0.0680 -0.0698  0.3150
21949W        W38023   5.656   9.823  10.912  0.2447 -0.2681  0.0295
21950W        W38024  13.553  15.222  12.418  0.2682  0.0363  0.1512
21951W        W38025  15.294   8.147   4.567 -0.0531  0.0825 -0.2118
21952W        W38026  16.157   8.348  12.405 -0.1827 -0.3484  0.1769
21953W        W38027   8.023   7.734  12.558 -0.0904  0.0850 -0.2046
21954W        W38028  16.564  14.193   2.062  0.0495  0.2638 -0.0748
21955W        W38029   2.154   2.339   1.303 -0.1247 -0.1096  0.1073
21956W        W38030   9.139  17.832  14.794  0.1575 -0.0967 -0.1143
21957W        W38031   0.002  11.571   0.232 -0.3491  0.0121  0.3989
21958W        W38032   6.106  16.687  11.410 -0.0980 -0.0725 -0.2527
21959W        W38033   8.109  13.995  10.325  0.1382  0.0988 -0.3427
21960W        W38034  15.227  15.503   1.596 -0.1577 -0.1227  0.3925
21961W        W38035   4.268  17.214   2.686 -0.0623 -0.2844 -0.1516
21962W        W38036  12.245   4.778   4.759  0.1216 -0.2872 -0.2283
21963W        W38037   7.797   1.899   0.677 -0.0901  0.1445 -0.2454
21964W        W38038   8.399  16.513   3.970  0.0086 -0.1956  0.2338
21965W        W38039  10.276  14.282  12.703 -0.0632 -0.2824 -0.2023
21966W        W38040   3.600  12.169   0.382  0.0440 -0.3577 -0.1579
21967W        W38041   5.301  15.180   3.823 -0.0254 -0.2599 -0.0895
21968W        W38042   1.030   0.097   5.280 -0.0517  0.0593  0.2254
21969W        W38043   9.192   7.891   1.194 -0.1323  0.2594 -0.1564
21970W        W38044  12.729   5.941   3.162 -0.2571 -0.0796 -0.1721
21971W        W38045   1.173   5.022   0.421 -0.3316  0.0426  0.3323
21972W        W38046   2.551   5.892   4.361  0.0568  0.0632 -0.2695
21973W        W38047  17.004  13.429   4.637  0.0422 -0.1040 -0.0944
21974W        W38048  10.822  11.618   2.055 -0.1500  0.0576 -0.1678
21975W        W38049  17.787   6.016  11.138 -0.0733  0.0582  0.1436
21976W        W38050   5.772   7.027   2.335 -0.2213 -0.0889  0.0725
21977W        W38051   1.326  10.972   1.929 -0.1925  0.2479  0.2418
21978W        W38052   7.290   2.684   4.000 -0.3907 -0.1955 -0.0429
21979W        W38053   6.526  18.985   2.467  0.0714 -0.0566  0.1683
21980W        W38054  18.964   1.074  13.372  0.5096  0.1807  0.0953
21981W        W38055  12.085  11.405   4.212 -0.1412  0.0270 -0.4127
21982W        W38056   4.364  15.665   0.718 -0.1237  0.1972  0.1785
21983W        W38057   5.294   2.340  14.784  0.0790  0.3845  0.0414
21984W        W38058   7.876   5.773  12.805  0.0320 -0.1689 -0.0893
21985W        W38059   9.173   3.532  13.589 -0.0279  0.0352 -0.1682
21986W        W38060  14.271  18.270  12.350 -0.1977 -0.0404  0.0850
21987W        W38061   2.046   6.964   4.085 -0.1354  0.2472  0.0422
21988W        W38062   3.520  17.160   1.896  0.4231 -0.1892  0.1047
21989W        W38063   5.061  14.562  13.014 -0.3324  0.1511 -0.4429
21990W        W38064  15.372   6.885   0.266  0.4066 -0.2417 -0.2279
21991W        W38065   8.579   2.636   1.067  0.1201  0.1202  0.2691
21992W        W38066   1.472  10.185   2.953 -0.1557  0.2092 -0.0293
21993W        W38067   8.543  13.257  10.675  0.0264  0.1335 -0.1676
21994W        W38068  15.262   0.679   0.147 -0.1052  0.5249 -0.2952
21995W        W38069  17.664   5.630  10.339 -0.1463  0.2049  0.1473
21996W        W38070  16.817  14.459  12.118  0.0680  0.0203  0.4324
21997W        W38071   6.628   4.788   2.725  0.0678  0.0876  0.0736
21998W        W38072   8.891   4.207  14.141  0.2256  0.0675  0.0464
21999W        W38073   7.768   8.498  14.969  0.0969 -0.0921  0.2453
22000W        W38074   8.508  11.396  13.541 -0.1252  0.0544 -0.1889
22001W        W38075  18.372   0.340   0.182 -0.1624  0.1806 -0.0639
22002W        W38076   2.798  15.392  11.044 -0.3231 -0.1622 -0.0452
22003W        W38077   8.731  15.493  12.910  0.1975 -0.0909 -0.0387
22004W        W38078  18.876  17.831   4.233  0.4961  0.0206  0.4025
22005W        W38079  19.132   4.057   0.310 -0.1072  0.2893 -0.2228
22006W        W38080   8.302  14.460   2.346 -0.2388  0.0570 -0.2784
22007W        W38081   2.351   1.886   0.642  0.1926 -0.1170 -0.3237
22008W        W38082   7.662  17.959   1.041 -0.3082 -0.3924  0.4640
22009W        W38083   2.554   6.474  12.736  0.3753  0.0489 -0.0698
22010W        W38084  12.588  13.254  10.385 -0.0850  0.1976  0.2237
22011W        W38085  10.480   4.998  10.295  0.5009 -0.2440 -0.1858
22012W        W38086   5.355  17.422   4.898  0.1396 -0.2868 -0.0850
22013W        W38087  13.364   9.272   0.812 -0.0745  0.0653  0.1332
22014W        W38088  10.281  18.096   1.507  0.1099 -0.0028 -0.0284
22015W        W38089   6.714  14.214  14.613  0.2789  0.0478 -0.0708
22016W        W38090   1.007  16.207  10.470  0.0025 -0.0286  0.0877
22017W        W38091   2.949  12.012   1.797 -0.1244  0.5383  0.3007
22018W        W38092  17.994   9.562   5.367  0.0939  0.0791 -0.3197
22019W        W38093   6.553   5.370  14.489  0.4574 -0.5368 -0.0513
22020W        W38094  11.704   5.148  11.719 -0.0159  0.3400  0.2781
22021W        W38095   3.433   1.730  10.842 -0.1177  0.0562  0.0604
22022W        W38096  17.987   1.472   1.076  0.1666  0.3602  0.3991
22023W        W38097   8.389   5.333  10.560 -0.0211  0.2058 -0.1236
22024W        W38098  18.004  11.681   0.589  0.2965  0.1241  0.2598
22025W        W38099  18.950  10.415   3.942 -0.1075 -0.1357  0.1997
22026W        W38100   2.142   1.780  11.478 -0.1357  0.0707 -0.0725
22027W        W38101   0.235   2.174  12.650 -0.1804  0.0600  0.0566
22028W        W38102   0.477  10.992   0.777 -0.0698 -0.2519 -0.0755
22029W        W38103   8.553   0.393   3.661 -0.0876 -0.3854 -0.2593
22030W        W38104   3.341  13.000  11.642 -0.0983 -0.0824  0.2207
22031W        W38105   6.705  12.060   1.209  0.1274  0.0411 -0.0633
22032W        W38106  13.866   5.544  13.156 -0.1634 -0.0607  0.0182
22033W        W38107   0.005   2.723   3.109  0.3851  0.0711 -0.0630
22034W        W38108   6.636   5.033  11.817  0.0148 -0.2061  0.1417
22035W        W38109   7.820   3.456  13.549  0.0242 -0.0830 -0.1002
22036W        W38110  19.064  17.011  12.144  0.0244  0.0848 -0.3878
22037W        W38111  15.661   4.064  12.192 -0.0858  0.2960 -0.1736
22038W        W38112  12.875   1.168   5.814 -0.1904  0.5630  0.2413
22039W        W38113  16.230   4.353   0.915  0.4301  0.0350 -0.1365
22040W        W38114   2.926  18.138   3.481  0.0616  0.2810  0.2287
22041W        W38115  17.212  12.533   1.017 -0.2363  0.2117  0.0060
22042W        W38116   4.467   4.420  10.499 -0.0244  0.1624 -0.0245
22043W        W38117  15.867  18.634   1.694 -0.0535 -0.0946 -0.0565
22044W        W38118   5.792   6.315   0.295  0.0027 -0.2368  0.1521
22045W        W38119   8.165  14.276   1.868 -0.0484 -0.3743 -0.0447
22046W        W38120   7.081  14.478  13.374  0.0440 -0.0921  0.0451
22047W        W38121   4.996  13.951  10.521 -0.0997  0.2306  0.2219
22048W        W38122  17.249   7.012  13.901 -0.0024 -0.0168 -0.0131
22049W        W38123   4.986  12.845  12.389 -0.1602 -0.0719  0.1463
22050W        W38124   7.044   0.271   4.413  0.1790  0.1202  0.1537
22051W        W38125  14.592   1.730   1.693  0.1703 -0.0264  0.2362
22052W        W38126  18.528   9.631  12.220  0.0417  0.1806  0.2420
22053W        W38127   1.511   4.841  13.064  0.4268 -0.1311 -0.0182
22054W        W38128   6.395  13.808   0.464  0.0847 -0.0162  0.0821
22055W        W38129  17.917  14.540  13.982  0.0239 -0.3020  0.1342
22056W        W38130   2.353   5.306   4.439  0.0789  0.3488 -0.0179
22057W        W38131   6.509  15.930  12.013 -0.1076  0.0766  0.2013
22058W        W38132  13.475   8.812   0.932  0.2068  0.0016  0.1972
22059W        W38133   8.334  13.126  13.316 -0.0247  0.3623 -0.1967
22060W        W38134  17.910  12.496   2.313 -0.1642 -0.0378  0.1911
22061W        W38135   7.107   8.211   3.546 -0.3006  0.0096  0.2979
22062W        W38136   6.870  11.883  10.948  0.1778 -0.1111  0.0479
22063W        W38137   0.769   1.611   3.864  0.0854 -0.2364 -0.1927
22064W        W38138  17.414  13.011   3.904 -0.1943 -0.0284  0.0981
22065W        W38139   8.328   3.135   0.677  0.0288 -0.1140 -0.2409
22066W        W38140   9.200   2.435  10.957  0.0510 -0.2587 -0.0754
22067W        W38141   4.844   2.959   1.468  0.3914 -0.3356  0.1735
22068W        W38142   3.284   5.123  10.506  0.2422  0.1594  0.2332
22069W        W38143   3.636   6.427   3.215 -0.0732 -0.2668 -0.0943
22070W        W38144   4.849   8.401   5.606 -0.0242 -0.0537  0.0069
22071W        W38145   8.570   0.202   0.748 -0.5599 -0.1700 -0.1810
22072W        W38146  14.699  12.691   2.568 -0.0324  0.2591  0.0484
22073W        W38147  15.998   5.813  13.859 -0.0102 -0.2528  0.2307
22074W        W38148   7.430   7.946  10.558 -0.0549 -0.0575 -0.1005
22075W        W38149   9.260  11.532  12.751 -0.0811  0.2974  0.1298
22076W        W38150   6.298   7.514   0.875 -0.3008  0.2470  0.0867
22077W        W38151  15.805   9.368   4.231 -0.3093  0.1742 -0.0012
22078W        W38152  16.593  12.897  12.140  0.0484  0.1831  0.0654
22079W        W38153   4.001   2.227   2.449 -0.3104  0.1044  0.0223
22080W        W38154  16.058  15.874   4.076  0.2106 -0.1066 -0.2797
22081W        W38155  16.463   2.198  14.613 -0.4544  0.0572 -0.0097
22082W        W38156   5.963  16.145  13.491  0.1197 -0.3311 -0.1039
22083W        W38157  18.397  14.999  11.341 -0.0688  0.3110 -0.0303
22084W        W38158  17.748   6.096   0.051 -0.0313  0.0226 -0.1819
22085W        W38159   9.593   5.760   2.646  0.1838  0.2857  0.2566
22086W        W38160  15.968  14.937  14.871 -0.0039  0.3449  0.1218
22087W        W38161   6.621  10.309   0.708  0.5235 -0.0446 -0.0382
22088W        W38162   3.513   8.953   1.360  0.1292  0.1352  0.2956
22089W        W38163  19.156   4.799  13.711 -0.0754  0.3614  0.2225
22090W        W38164   9.504   8.865   2.268  0.0530  0.3303 -0.1546
22091W        W38165  14.918   5.130   2.323  0.3282  0.2290 -0.0534
22092W        W38166   3.193   7.559  14.119  0.3650  0.1061  0.1097
22093W        W38167   8.453  18.754   3.525  0.2219 -0.1085  0.2921
22094W        W38168  10.566   7.425   2.362  0.4496  0.0295  0.2513
22095W        W38169  14.788  15.303   0.956  0.0602 -0.0505  0.0525
22096W        W38170   2.224  13.549   2.840  0.3490 -0.0730  0.0640
22097W        W38171  13.709  10.299  13.591  0.0701 -0.1813 -0.0443
22098W        W38172   0.384  18.176  12.527 -0.1285  0.2362 -0.1905
22099W        W38173  14.561  10.044  14.328  0.2761  0.1144  0.0017
22100W        W38174  14.816  19.165  13.706  0.0443 -0.1741 -0.1411
22101W        W38175   5.958  12.525  13.498  0.0372 -0.0300  0.0194
22102W        W38176  15.291  17.126  10.980  0.1058  0.0192  0.0980
22103W        W38177   8.383   2.989  11.789 -0.1293  0.1396  0.0156
22104W        W38178   7.168  16.946   0.779  0.0924 -0.0343  0.2884
22105W        W38179  10.243  10.294  10.403 -0.1095 -0.4484 -0.1120
22106W        W38180   7.747  14.569   1.592 -0.1682  0.0059 -0.3024
22107W        W38181  11.857   3.635  12.429 -0.0873  0.2368 -0.0000
22108W        W38182   9.252   9.193  11.867  0.2637  0.0852 -0.0764
22109W        W38183   5.511   3.612  13.313 -0.1448  0.2806 -0.1473
22110W        W38184  12.660  16.355  13.371 -0.1994 -0.3170  0.2279
22111W        W38185   6.146   3.172  13.771 -0.1100 -0.4660 -0.3464
22112W        W38186  17.157  11.561   3.833  0.0694 -0.2129  0.1139
22113W        W38187   5.962   9.549   0.387 -0.0911 -0.0327 -0.2924
22114W        W38188  18.787  19.127  13.516  0.2429 -0.1030  0.1743
22115W        W38189   0.366   6.660   0.357 -0.0443  0.0097  0.0166
22116W        W38190  12.180   6.506   4.608 -0.2268  0.2304  0.0019
22117W        W38191   2.355   6.638   3.079  0.0386  0.0862  0.0558
22118W        W38192  16.873  13.813   3.792 -0.1450  0.0493  0.2200
22119W        W38193  14.168   7.786  15.002 -0.4744  0.2548 -0.1639
22120W        W38194   6.375   4.041   1.756 -0.2012  0.0752  0.0441
22121W        W38195  14.989  12.229  11.568  0.0606 -0.2012  0.5235
22122W        W38196   9.605  12.725   3.029  0.2492  0.1158 -0.1177
22123W        W38197  15.602   3.789  14.611  0.0504  0.1473  0.0296
22124W        W38198   0.832  16.992  12.363 -0.0094 -0.1477  0.1444
22125W        W38199  18.418   3.979  12.081 -0.2399 -0.1964 -0.0083
22126W        W38200   1.758   6.033   1.322 -0.0445 -0.0142  0.2810
22127W        W38201   4.613  13.281   4.100  0.3052  0.0374 -0.0531
22128W        W38202   4.207  18.955   3.079 -0.0506  0.1215  0.1434
22129W        W38203  18.229  16.491   2.191  0.0471  0.1697 -0.0140
22130W        W38204  13.143  10.704   0.306  0.1678 -0.2318 -0.2281
22131W        W38205  13.148   1.592  13.295  0.1213  0.1022 -0.2804
22132W        W38206  15.294   7.285   4.347  0.1809  0.1654  0.0990
22133W        W38207  18.720  13.872  11.149  0.1318  0.1512  0.1079
22134W        W38208   2.612   5.767   1.040 -0.1151  0.1591 -0.1447
22135W        W38209   9.284   6.371   2.375  0.0848 -0.2319  0.0830
22136W        W38210  13.292  13.574   4.399  0.2130  0.2891 -0.3315
22137W        W38211  11.869  16.914  11.555 -0.2237 -0.4664 -0.0226
22138W        W38212   3.113  10.836   3.274  0.0501  0.3292  0.1046
22139W        W38213   6.328  13.089  14.159 -0.0115 -0.0623  0.0680
22140W        W38214  15.771  13.318   1.192  0.2437 -0.0499 -0.4581
22141W        W38215   1.256   2.712  10.305  0.0451  0.0699 -0.1289
22142W        W38216   4.956   0.786  12.904  0.1333  0.2611 -0.0603
22143W        W38217  14.010   5.353   9.745 -0.1047 -0.0935 -0.0301
22144W        W38218  14.234   4.722  11.463  0.3099  0.1290  0.0806
22145W        W38219   0.336   3.402  14.568 -0.0141 -0.1378 -0.1509
22146W        W38220  11.170  11.467   0.363  0.2022  0.1290 -0.0858
22147W        W38221  13.521   6.293   2.131  0.0458  0.0702  0.1265
22148W        W38222  17.806   3.596   5.091 -0.0262  0.0595  0.0136
22149W        W38223  18.195   1.348   3.696 -0.2883 -0.0446 -0.2665
22150W        W38224  11.928   2.391   9.778 -0.2494  0.0730 -0.1405
22151W        W38225   0.604   7.227  11.288  0.0183  0.1125 -0.1410
22152W        W38226   8.644  12.053  11.825  0.1613 -0.1350  0.3977
22153W        W38227  14.875   6.246  12.660  0.1117 -0.0758  0.0366
22154W        W38228   0.530   0.827   4.333  0.3640  0.1294 -0.1311
22155W        W38229  14.701   9.279   3.522 -0.0899 -0.2467  0.2386
22156W        W38230  12.424   7.914  13.701  0.0584  0.0338 -0.0887
22157W        W38231   7.818  15.914  13.422 -0.1199  0.1503 -0.0330
22158W        W38232   4.202   9.417   4.393  0.2155  0.1555  0.1329
22159W        W38233  14.266  13.191   0.232  0.2220 -0.0720  0.1348
22160W        W38234  10.035   5.028   3.444  0.1775 -0.1254  0.2670
22161W        W38235  17.031   2.055   3.008  0.0421 -0.2984  0.0659
22162W        W38236  14.567  19.159   0.852  0.0391  0.0566  0.0146
22163W        W38237   0.406   8.463   2.466 -0.2194 -0.2898 -0.2249
22164W        W38238  15.479   6.638   0.831  0.0543 -0.1046  0.2901
22165W        W38239   2.039  11.595  11.554 -0.2632 -0.2186 -0.1708
22166W        W38240  11.840  13.150   4.798  0.1817  0.0642  0.1940
22167W        W38241   8.659   1.769  12.927 -0.0801  0.0868 -0.1533
22168W        W38242  17.224   9.225   2.427  0.1540 -0.2366 -0.4305
22169W        W38243   1.119  14.325  11.856 -0.3451  0.2395 -0.1393
22170W        W38244   3.495   9.313   0.895  0.1535  0.0568  0.3302
22171W        W38245   9.968  19.144   0.261  0.0323  0.0307 -0.1534
22172W        W38246   6.828   3.567   1.828  0.0676 -0.1946  0.3606
22173W        W38247   7.792   9.495  11.590  0.1495 -0.0096 -0.1317
22174W        W38248   8.804   3.065   0.927 -0.4643  0.2204  0.1356
22175W        W38249  13.190  16.776  14.046  0.5110  0.2585  0.1949
22176W        W38250  18.926   0.332   4.880  0.0826  0.2472 -0.2236
22177W        W38251  16.951  10.261   5.559  0.0805  0.0355  0.0713
22178W        W38252  15.510  14.740   0.413  0.3009 -0.1981  0.0733
22179W        W38253   2.838   6.017   0.663  0.0039  0.0343 -0.1132
22180W        W38254  11.368  14.073   9.999  0.3227 -0.0954 -0.1184
22181W        W38255   8.287   3.007   0.206  0.2104 -0.0139  0.1822
22182W        W38256  11.532   0.287  12.297  0.0658  0.1890 -0.0446
22183W        W38257   6.002  10.539  14.613 -0.0776  0.2971  0.1187
22184W        W38258   9.838   9.702  11.569 -0.0816  0.1688 -0.0640
22185W        W38259   8.660  16.072   4.083  0.4265  0.1967  0.0328
22186W        W38260  14.834   4.697  11.801  0.0866  0.0725  0.4921
22187W        W38261   4.368  18.104   1.292  0.0654 -0.2635 -0.2732
22188W        W38262   1.573  14.306  12.108  0.2352  0.1001 -0.1431
22189W        W38263   3.666   0.682  13.440 -0.0282  0.4275 -0.0339
22190W        W38264  18.215  18.132   1.510  0.1344 -0.0467 -0.0916
22191W        W38265  15.895   6.458   2.674 -0.0865 -0.0693 -0.1751
22192W        W38266  11.475  16.212  11.829 -0.1960 -0.0435  0.2355
22193W        W38267  13.549  11.606  13.735 -0.1895  0.0791  0.3687
22194W        W38268  15.111  11.966   0.196  0.0347 -0.0513  0.1221
22195W        W38269  15.727   6.443   0.398 -0.1390 -0.4570 -0.2498
22196W        W38270  10.674   2.444  14.870  0.1020 -0.0110  0.1175
22197W        W38271  18.449   9.043  13.896  0.0753  0.2817  0.1731
22198W        W38272   8.210  12.406  10.361  0.3470  0.1125 -0.0727
22199W        W38273   8.045  13.412   1.678 -0.0467  0.1305  0.2885
22200W        W38274  16.342   2.212  13.209 -0.1895 -0.2318  0.4346
22201W        W38275   1.200  10.065   6.194  0.4232 -0.2890  0.0658
22202W        W38276   1.807  14.194   2.093  0.2860  0.1430 -0.0035
22203W        W38277   0.040  11.546   5.571 -0.0976  0.0100  0.0367
22204W        W38278  11.895  17.530   1.347  0.1139 -0.2342 -0.1233
22205W        W38279   2.283  12.917  14.238 -0.0920 -0.2530 -0.1526
22206W        W38280   6.468  16.485   5.426 -0.0532 -0.0704  0.1362
22207W        W38281  10.452   6.737   4.806  0.3235 -0.1021 -0.0869
22208W        W38282   3.768  16.544   2.508 -0.0462 -0.1610 -0.0077
22209W        W38283  17.778   9.412   1.850  0.1039  0.1707  0.1445
22210W        W38284   3.674  14.394   4.783 -0.0366  0.5143 -0.1813
22211W        W38285   7.892  10.477   9.855  0.1248 -0.2228 -0.2705
22212W        W38286   3.449   4.489  14.653  0.0578  0.1677 -0.0162
22213W        W38287   3.770  12.887  12.495  0.0409  0.1821 -0.1875
22214W        W38288  17.481   3.829   4.345  0.0518 -0.0378  0.0084
22215W        W38289  18.129  14.572  14.566  0.1427 -0.0667 -0.2878
22216W        W38290  12.008   8.381   0.844  0.2074  0.0135 -0.0638
22217W        W38291  10.572  17.281   3.918  0.5277  0.1007  0.0550
22218W        W38292  16.950   7.957   5.713 -0.1402 -0.2417  0.1479
22219W        W38293  11.520  18.906   3.104 -0.0951  0.1882 -0.2521
22220W        W38294   5.513   0.367  11.524  0.2747 -0.2871  0.2515
22221W        W38295  10.666   0.761  12.439  0.2186  0.3260 -0.2776
22222W        W38296   4.408   1.421  10.641 -0.0889  0.0871 -0.1079
22223W        W38297  13.216   9.767   3.959  0.0488  0.1830  0.1972
22224W        W38298  12.816   9.788   3.653 -0.0704  0.1704 -0.0040
22225W        W38299  10.322   8.470   2.299 -0.4362 -0.0483 -0.0398
22226W        W38300  15.229   2.720  10.556  0.1335 -0.1733  0.0718
22227W        W38301  12.055  15.442   0.635 -0.0963 -0.0275 -0.2717
22228W        W38302  17.283   9.244  12.361  0.1711  0.0519 -0.3745
22229W        W38303   3.993   3.993  13.211 -0.1240  0.0322  0.1014
22230W        W38304  15.080  13.757  13.646 -0.1506 -0.0574  0.1980
22231W        W38305  12.207   3.410   4.449  0.3021 -0.0216  0.0268
22232W        W38306  12.501   2.121   2.559  0.2083 -0.3146 -0.0375
22233W        W38307   7.159  16.207   2.954  0.0950 -0.0152 -0.5205
22234W        W38308  18.863  18.320   3.500 -0.1407  0.2709  0.0573
22235W        W38309   4.736   9.081  12.964 -0.3156  0.0471 -0.0718
22236W        W38310   1.698  12.322   1.718  0.1030 -0.0017 -0.0664
22237W        W38311   6.393   6.891  12.866 -0.0792 -0.0072  0.0489
22238W        W38312   4.197   3.656   1.383  0.0046 -0.2384 -0.2337
22239W        W38313  14.419  17.600   1.348  0.6999 -0.3015  0.1066
22240W        W38314   2.211  11.247  13.084 -0.0331 -0.0888 -0.3532
22241W        W38315  14.783   4.278  12.138  0.2938 -0.1105  0.0902
22242W        W38316  10.675   1.134  14.322  0.0203  0.1090 -0.0623
22243W        W38317   0.870  15.057   5.408  0.0395  0.0659  0.0383
22244W        W38318   4.279  12.690  13.028  0.3367 -0.1287 -0.0160
22245W        W38319  17.957  12.976   5.334 -0.1557  0.1183 -0.1744
22246W        W38320  18.118  13.241   0.880  0.1863  0.1821 -0.1273
22247W        W38321   9.586  12.296  14.942  0.4856  0.0820  0.0684
22248W        W38322   4.241   4.249  12.853 -0.3233 -0.2121  0.3543
22249W        W38323   3.252  10.876   0.398  0.0881  0.3463  0.1568
22250W        W38324  15.010  19.035   1.339  0.1118  0.2916 -0.0720
22251W        W38325   2.849   0.763  13.060 -0.1464 -0.1388 -0.0716
22252W        W38326   8.658   8.363  12.743  0.1275  0.6129 -0.0332
22253W        W38327  17.844   6.253   2.734  0.0088 -0.0253 -0.1985
22254W        W38328   6.333   3.467  10.382 -0.0276 -0.0418  0.0056
22255W        W38329  16.260  13.817   4.760 -0.1910  0.0421 -0.2422
22256W        W38330  16.462   6.384  12.455 -0.1935  0.0931 -0.1239
22257W        W38331   5.988   1.763   2.510  0.2517  0.0283  0.0789
22258W        W38332  10.388   3.442   3.211  0.0340 -0.4573 -0.0813
22259W        W38333  14.230   8.535  11.841  0.0902  0.1459  0.1233
22260W        W38334   2.167   1.198   1.936  0.2269  0.1525 -0.2210
22261W        W38335  11.216   9.430  14.320  0.2658  0.1343 -0.2073
22262W        W38336  18.294  14.108  13.772 -0.0705  0.1566 -0.2454
22263W        W38337   1.399  18.003   0.266 -0.2813 -0.3097  0.1952
22264W        W38338   8.599   1.678   0.212  0.1895 -0.3782 -0.0997
22265W        W38339   4.931   0.729   2.760 -0.2538  0.1386  0.1305
22266W        W38340   0.559  15.470   9.322 -0.2687  0.0125 -0.0091
22267W        W38341   2.850  11.625   5.127 -0.5188 -0.0305  0.1190
22268W        W38342  10.455  16.478  14.911  0.0484 -0.1117 -0.3746
22269W        W38343  15.977   6.513  13.591 -0.1536  0.0193  0.1060
22270W        W38344   1.685  16.998   3.352  0.1746  0.0814  0.1725
22271W        W38345  17.831   7.183   2.858  0.0477 -0.2548 -0.0147
22272W        W38346   9.481   1.105   3.341 -0.0154  0.0713  0.0404
22273W        W38347  13.767   0.319  13.802  0.0405  0.0266  0.2587
22274W        W38348   3.657  18.370   1.987 -0.0616  0.0076  0.1494
22275W        W38349  11.341   0.914   3.945  0.4013 -0.0963 -0.2325
22276W        W38350   6.995  16.361  13.934  0.1834  0.1019 -0.0030
22277W        W38351   0.130   2.604  12.778  0.4266  0.1525 -0.1262
22278W        W38352  11.292  12.558   4.270  0.0080 -0.0691 -0.0291
22279W        W38353  14.556  18.373  11.966  0.2041 -0.0725  0.0941
22280W        W38354  10.490  14.602   1.451 -0.7034 -0.1970  0.4966
22281W        W38355  16.557  12.850  11.334 -0.2162 -0.3059  0.2218
22282W        W38356   2.175  16.775  10.672 -0.0712 -0.0120  0.2483
22283W        W38357   2.719  14.417   0.817  0.1381  0.1706  0.0973
22284W        W38358  10.591   6.191   0.753 -0.0773  0.1603 -0.1399
22285W        W38359   7.454  14.149  13.589  0.0481 -0.0477 -0.1146
22286W        W38360   4.701  16.999  13.890  0.0504 -0.5347 -0.1635
22287W        W38361   8.937   6.346   0.471 -0.0226 -0.0973 -0.1530
22288W        W38362   3.123   3.791   2.624 -0.0562  0.2186 -0.2678
22289W        W38363  15.387  18.826  11.875 -0.0299 -0.4565  0.0480
22290W        W38364   4.328  14.063  11.110  0.2492  0.1160  0.1222
22291W        W38365  10.220  12.088  10.066 -0.2334  0.2250 -0.3477
22292W        W38366   4.957  19.117  11.150  0.0373  0.2189 -0.1049
22293W        W38367   0.095   1.129  11.551 -0.1594 -0.1908 -0.0616
22294W        W38368  13.018  14.916   2.376  0.1861 -0.0500 -0.2693
22295W        W38369  12.753   2.151  10.218 -0.1845 -0.0687  0.0214
22296W        W38370   4.913  11.526   3.888  0.3087  0.3480  0.0087
22297W        W38371  12.134   2.346  14.581  0.1090 -0.1540 -0.1397
22298W        W38372  11.919  14.220  11.347  0.0666 -0.1005  0.0211
22299W        W38373   4.121  12.458  11.066 -0.0818 -0.0268  0.1277
22300W        W38374  12.954  17.069  11.642  0.0174  0.0502  0.1395
22301W        W38375   0.397  17.339   2.839  0.0328  0.5189  0.0762
22302W        W38376   2.022  17.914  12.837  0.1751  0.1609 -0.1454
22303W        W38377   6.729   0.267   3.110 -0.1420 -0.1287  0.1037
22304W        W38378   4.131   5.627   4.389 -0.0308 -0.0248 -0.0301
22305W        W38379   5.021  17.699  11.581 -0.0445  0.0017  0.2005
22306W        W38380   8.934   1.119   3.212 -0.0285  0.2740 -0.0013
22307W        W38381   2.887   0.506  10.490  0.1225 -0.2650  0.0827
22308W        W38382   3.458  16.217   0.935  0.0332 -0.0275  0.0503
22309W        W38383  10.405   0.400   8.883 -0.0155 -0.1536  0.2801
22310W        W38384  16.300  15.252   0.114 -0.0339  0.0895 -0.0833
22311W        W38385   1.137  12.595  14.982  0.2396 -0.1189  0.0663
22312W        W38386   6.226   3.762   2.320 -0.1958  0.1021  0.0502
22313W        W38387  16.066  18.727   0.116 -0.0549  0.2821  0.0372
22314W        W38388  12.881   9.882  14.979  0.2499  0.0362 -0.1063
22315W        W38389  10.850   9.947   1.598 -0.0613  0.1781 -0.0650
22316W        W38390  10.613  15.680   8.890  0.0123  0.0302 -0.1415
22317W        W38391  18.163   7.762  10.604 -0.0542  0.3867 -0.3320
22318W        W38392   6.073   6.366  14.742  0.2368 -0.0810 -0.0473
22319W        W38393   8.606   4.864  12.362 -0.2318  0.0164  0.1057
22320W        W38394  12.138   5.522  10.255 -0.1154 -0.0701  0.0184
22321W        W38395  10.145   3.595   2.291 -0.2419 -0.0303  0.2199
22322W        W38396  11.603   5.524   0.694 -0.1025 -0.0950 -0.1352
22323W        W38397   6.797   2.509   0.716 -0.2630 -0.2407 -0.1275
22324W        W38398  13.170   9.110   3.682 -0.1244 -0.0475 -0.1848
22325W        W38399   3.604  17.261  13.728 -0.1877  0.0217  0.0150
22326W        W38400   9.680  10.564   4.787 -0.3131 -0.0447 -0.1032
22327W        W38401   5.239  16.839   0.015  0.1258 -0.0595 -0.0474
22328W        W38402  12.837   9.401   3.321 -0.0121 -0.1206  0.2326
22329W        W38403   6.018   2.985   2.821  0.1076 -0.1802 -0.0501
22330W        W38404   6.502   6.315   3.296 -0.1394 -0.2711  0.1507
22331W        W38405   0.546  18.039   0.122  0.0380  0.0780  0.1045
22332W        W38406   2.082   8.676  11.838 -0.1576  0.2205  0.1811
22333W        W38407  12.027   5.541   9.734  0.2614 -0.1021 -0.2922
22334W        W38408   8.817  11.691   2.251  0.1381  0.0876 -0.2797
22335W        W38409   1.770   8.754  13.114  0.3268 -0.2772 -0.1234
22336W        W38410  15.753  18.635  14.152 -0.0977 -0.0327 -0.1993
22337W        W38411  14.558  11.679  13.691 -0.1964  0.3248  0.0584
22338W        W38412  15.565  10.366   0.188 -0.1285 -0.0314 -0.3049
22339W        W38413   5.096  13.547  12.181 -0.0039  0.3961  0.0189
22340W        W38414  15.262  17.958  11.594  0.1913 -0.1376 -0.1812
22341W        W38415   6.277   9.007  13.778  0.2896 -0.0156  0.0036
22342W        W38416  17.971   8.380  14.117 -0.1078  0.2502 -0.2460
22343W        W38417   3.953  14.051   1.723  0.0934 -0.0526 -0.0442
22344W        W38418   4.583   8.404  11.232  0.1401 -0.1886  0.5140
22345W        W38419  15.759   5.570  14.869 -0.1257  0.0929  0.5032
22346W        W38420  14.481  11.925   4.130  0.1741 -0.3384  0.2235
22347W        W38421  13.004  11.198   5.532  0.4201 -0.1016 -0.4317
22348W        W38422   4.208   9.113   3.137 -0.0980 -0.3368 -0.1030
22349W        W38423  11.128  18.126  14.744  0.1124 -0.1941  0.0891
22350W        W38424  11.750  10.354  14.877 -0.1533 -0.1740 -0.1116
22351W        W38425   1.694  12.619  11.890  0.0083 -0.1479  0.3603
22352W        W38426  13.535   3.986   3.885 -0.4486 -0.1128 -0.0184
22353W        W38427  15.588   7.847   3.252  0.0177 -0.0251 -0.2725
22354W        W38428  15.662  16.637  12.683 -0.1157  0.0201 -0.2139
22355W        W38429   2.616  12.727   3.067 -0.3746  0.0728 -0.1536
22356W        W38430   0.791  15.197   4.308  0.1623  0.0698  0.0934
22357W        W38431  19.271  11.146  11.238 -0.0716  0.0972 -0.3248
22358W        W38432   1.897  16.634  14.315  0.1721 -0.1896 -0.0018
22359W        W38433   3.251   5.300   1.830  0.0302 -0.1704  0.0213
22360W        W38434   2.327  13.545  11.818 -0.0407  0.2778  0.1430
22361W        W38435   2.571   2.710  13.775  0.0593 -0.0969 -0.2396
22362W        W38436   5.267   9.469   1.145 -0.3017 -0.1408 -0.0184
22363W        W38437   6.408   5.243   1.982 -0.3017  0.2276 -0.1186
22364W        W38438   5.054   9.482  12.168  0.0192  0.1088 -0.2962
22365W        W38439   8.279  17.615   3.743  0.2044 -0.0891  0.2607
22366W        W38440  10.167   0.397   3.097  0.0312 -0.0587 -0.3029
22367W        W38441  11.499  17.453   4.066 -0.1600  0.3507 -0.0657
22368W        W38442  18.297   2.763   4.595 -0.1133  0.1585 -0.0472
22369W        W38443  11.146   2.295  12.987 -0.0293 -0.0122  0.0280
22370W        W38444  10.902  15.463  11.445  0.1181 -0.0690 -0.2809
22371W        W38445   4.167   8.038  14.682 -0.1334 -0.2233  0.1968
22372W        W38446   6.494   2.912  14.827 -0.1095 -0.3928  0.2133
22373W        W38447   3.587  17.722   4.636 -0.0172 -0.1157  0.1742
22374W        W38448   8.521  13.557   3.787  0.2708 -0.2687 -0.0276
22375W        W38449  13.541   9.981   3.267 -0.1938 -0.0521 -0.2403
22376W        W38450  11.075   0.756   2.457  0.0670  0.2955 -0.2399
22377W        W38451  17.040   0.234  13.789  0.4372 -0.2571 -0.0004
22378W        W38452   6.295  13.781   3.212 -0.1680 -0.4249 -0.2303
22379W        W38453  12.912   4.496   3.561 -0.1400 -0.1115  0.3136
22380W        W38454   5.820   2.213  13.943 -0.1860 -0.1178 -0.1291
22381W        W38455   0.665   5.022   0.634 -0.2814 -0.2472 -0.0125
22382W        W38456  10.944  13.414  11.839  0.0878  0.1214  0.1123
22383W        W38457  14.596   8.756   4.516  0.2391  0.1174 -0.1769
22384W        W38458   2.872  16.611   3.730  0.5387  0.3670 -0.1939
22385W        W38459   4.625  16.498  11.253 -0.2767 -0.0196  0.0437
22386W        W38460   4.732   0.435  13.812  0.1704 -0.1779 -0.3845
22387W        W38461  15.914  12.241   4.303  0.0373 -0.0155 -0.1209
22388W        W38462  10.765   5.643  11.705  0.2036  0.1456  0.0627
22389W        W38463   7.613  18.738  14.939 -0.0001 -0.2871  0.0584
22390W        W38464  19.198   9.054  12.862 -0.1775  0.1963 -0.2058
22391W        W38465   0.884   6.297   1.095 -0.0232 -0.0882  0.1346
22392W        W38466  10.977   1.865   1.471 -0.0152 -0.1031 -0.1346
22393W        W38467  16.223   8.753  12.016 -0.0807 -0.0626 -0.1177
22394W        W38468  18.484   8.963   2.284  0.2213  0.3488  0.2755
22395W        W38469  10.732  11.285   0.032 -0.0783  0.1814  0.1156
22396W        W38470   4.593   3.076  10.596  0.0908 -0.0198 -0.5083
22397W        W38471   1.662  10.446   3.385  0.1668 -0.2143  0.0215
22398W        W38472   2.561  11.555   4.505 -0.3540  0.5461 -0.1302
22399W        W38473   1.927   7.124   5.058 -0.0758  0.4595 -0.1002
22400W        W38474  12.867   5.800   1.212 -0.0027 -0.0085 -0.3129
22401W        W38475  11.352  14.181  12.816 -0.1474  0.2711 -0.1674
22402W        W38476   0.496  15.527   4.809 -0.0575 -0.3885  0.2419
22403W        W38477  15.968  18.428   2.129  0.1279  0.2017  0.0275
22404W        W38478   8.599  11.081  10.739 -0.0474  0.0344 -0.0778
22405W        W38479   7.296   1.703   0.681 -0.1178 -0.3275  0.1228
22406W        W38480   8.030  10.142  10.249 -0.2145  0.2269 -0.5548
22407W        W38481   1.295  15.749   0.268  0.0594  0.3024 -0.1788
22408W        W38482   2.334   6.570  11.556 -0.1344 -0.1974 -0.0935
22409W        W38483   3.090  17.168  10.810  0.3801 -0.0889 -0.0418
22410W        W38484   0.605  10.569  14.408 -0.0826 -0.3046 -0.2846
22411W        W38485   9.491   0.570   4.197  0.1761 -0.0150 -0.1354
22412W        W38486  19.074  18.123  13.020  0.1440  0.2579 -0.0747
22413W        W38487  16.011   6.004   2.865 -0.3343  0.2494  0.0711
22414W        W38488   0.021   2.504   5.054  0.1501 -0.0067  0.2176
22415W        W38489  13.809   2.038  11.033 -0.0305  0.4514  0.0709
22416W        W38490   2.876   9.995  14.858  0.2704  0.0898 -0.0241
22417W        W38491  10.867  19.280  13.237  0.3644 -0.0233  0.1506
22418W        W38492  11.556  10.440  11.565  0.0455 -0.1921  0.0425
22419W        W38493   3.293  15.962   3.272 -0.1235 -0.2329  0.3058
22420W        W38494  12.079  18.608  11.861  0.0358  0.0240  0.4007
22421W        W38495  12.476   2.161   5.944  0.0329 -0.1463 -0.0728
22422W        W38496  12.141  16.497   4.033 -0.2372  0.0099  0.1602
22423W        W38497  16.401   8.869   1.968 -0.0148  0.0379 -0.4034
22424W        W38498  13.927   4.775   4.511  0.1744 -0.0165  0.0381
22425W        W38499   1.469  16.456  11.868 -0.0830 -0.1300  0.0291
22426W        W38500   0.877  12.101   2.472 -0.0054 -0.0993 -0.0816
22427W        W38501   7.164  16.605  10.241  0.0891  0.0642  0.4911
22428W        W38502  11.540   5.357  12.156  0.5153 -0.1036  0.1777
22429W        W38503   8.409   2.233  10.495  0.0012  0.1548 -0.1689
22430W        W38504  17.531  11.371  11.897  0.0285  0.0255 -0.1894
22431W        W38505   0.871  12.992  14.789 -0.1403  0.4797 -0.0378
22432W        W38506   8.949  18.100   0.787  0.1370  0.1136 -0.3934
22433W        W38507   3.900   2.747  12.119 -0.2385  0.0397  0.2630
22434W        W38508  12.304   6.643   2.809  0.2048  0.0397 -0.1178
22435W        W38509   6.535  15.583  13.373 -0.1101 -0.0561 -0.2169
22436W        W38510   2.045  14.499  14.320  0.5683 -0.0762  0.1350
22437W        W38511   1.172  10.156   3.474 -0.4737 -0.3393 -0.0763
22438W        W38512   8.600   5.852   4.225 -0.1472 -0.0816 -0.0202
22439W        W38513  15.991  18.447   5.633 -0.1734  0.0114 -0.1473
22440W        W38514   8.950  18.041   9.006 -0.2218  0.4108  0.2604
22441W        W38515   4.844  18.202  14.470 -0.4317 -0.1702 -0.2331
22442W        W38516  15.782   5.477  12.129  0.3309  0.0509  0.0669
22443W        W38517   3.816  17.591  12.622  0.2293 -0.1762  0.0111
22444W        W38518   3.554   6.594   2.751 -0.2555 -0.1620 -0.0120
22445W        W38519  12.684   6.585  12.988 -0.4246 -0.0638 -0.0132
22446W        W38520   9.203  17.736  13.354  0.2374 -0.0881  0.0554
22447W        W38521   4.318   0.969  14.456 -0.1166 -0.0612 -0.3589
22448W        W38522  14.933   0.892   0.539  0.1167 -0.3756 -0.1054
22449W        W38523  17.434   9.200   4.475  0.0465 -0.1872  0.0128
22450W        W38524  13.325   7.738   3.395  0.3506 -0.2841 -0.1844
22451W        W38525  18.229   8.700  12.986  0.0429 -0.2370 -0.0940
22452W        W38526  19.284   0.272  12.494 -0.0364  0.1429  0.2844
22453W        W38527  13.079   4.900  11.779 -0.1724 -0.0388 -0.2868
22454W        W38528   1.747  10.605  10.207  0.0353  0.2045  0.1744
22455W        W38529   5.838  11.942  12.155 -0.1847 -0.2784  0.0694
22456W        W38530   5.460  13.131  14.300 -0.3248 -0.0676  0.4707
22457W        W38531   2.180  17.820   2.831 -0.1677 -0.0660  0.1752
22458W        W38532  19.232  11.170   4.758 -0.1018  0.1391 -0.1975
22459W        W38533   0.985   0.718  12.707  0.0714  0.3004 -0.0633
22460W        W38534   5.000   1.646  11.380  0.0909 -0.2269 -0.2966
22461W        W38535   5.089   8.153   2.682  0.0310 -0.0137 -0.1162
22462W        W38536  15.062   8.292   3.065  0.2451  0.0509 -0.0798
22463W        W38537  13.260  17.881  11.357 -0.1995 -0.0590 -0.0002
22464W        W38538  13.774  15.399   3.145 -0.1151  0.0555 -0.0644
22465W        W38539   0.212   4.291   3.683  0.0326  0.2662  0.0937
22466W        W38540   6.873   7.235  11.251  0.4793 -0.1510  0.2339
22467W        W38541  10.560   4.026   2.423 -0.2476 -0.0699 -0.1316
22468W        W38542   3.186  14.239   3.169 -0.0981  0.0912  0.2024
22469W        W38543  14.417   6.537  11.224  0.0535  0.1208 -0.0912
22470W        W38544  10.327   6.460   4.414 -0.0184  0.2429 -0.4097
22471W        W38545  12.455   8.266  14.073  0.1123 -0.1058 -0.0547
22472W        W38546   3.816   6.773  12.461 -0.2209  0.0807 -0.2163
22473W        W38547   7.480  13.737  13.885  0.1714  0.2309  0.1136
22474W        W38548  10.709  10.732  12.078 -0.2207 -0.0757 -0.1802
22475W        W38549   5.753   3.159   4.080  0.0508 -0.0947  0.2597
22476W        W38550   3.820  16.367   3.373  0.3522  0.0930 -0.0255
22477W        W38551  14.254  18.828   2.738  0.0963 -0.0274  0.1070
22478W        W38552  13.172  17.036   2.593  0.1183 -0.3353 -0.2410
22479W        W38553   0.717  16.258  14.968  0.0556  0.1998  0.4389
22480W        W38554  12.246  18.145  12.791 -0.3187  0.0152 -0.1882
22481W        W38555   6.677  11.136  14.710  0.1742  0.2262 -0.0614
22482W        W38556   0.425   6.284   2.078  0.0342  0.0686  0.0858
22483W        W38557   6.654  11.987  12.634 -0.0148 -0.0552 -0.1393
22484W        W38558   0.129  16.302  12.242  0.3284  0.0979  0.0702
22485W        W38559   0.505   5.165  12.603  0.0414  0.5227 -0.0212
22486W        W38560   5.946   3.301  14.726  0.0028 -0.1438 -0.0086
22487W        W38561  11.773   2.871   4.270 -0.0073 -0.0018  0.1404
22488W        W38562   2.744  16.441   2.530  0.2024 -0.0139 -0.0925
22489W        W38563   7.949   4.585   3.922 -0.2057 -0.1926  0.1204
22490W        W38564  12.994   7.615  10.580  0.0431  0.1179  0.4528
22491W        W38565   4.860   1.730  12.635  0.2046 -0.0299  0.5467
22492W        W38566  14.380   7.686   2.107 -0.2228  0.4245 -0.0927
22493W        W38567  14.883  13.887  11.473 -0.1516 -0.1085 -0.1710
22494W        W38568   1.761   0.795  11.927 -0.3059  0.0062 -0.0171
22495W        W38569   3.241   8.704  13.333  0.0250  0.2148 -0.0653
22496W        W38570  15.811  17.915   0.544  0.3270 -0.0735  0.0439
22497W        W38571   7.390  15.486  10.809 -0.1971  0.1187 -0.0233
22498W        W38572   5.033   5.118   3.177 -0.0215 -0.1928  0.2051
22499W        W38573  14.597  15.326  11.618  0.3322  0.1162  0.2057
22500W        W38574  12.094   2.252   3.234 -0.2906  0.0804  0.1326
22501W        W38575  12.030  14.872   2.800 -0.1449 -0.0847  0.2626
22502W        W38576   2.360  12.174  12.963 -0.3974  0.1888 -0.0198
22503W        W38577   9.732   7.823  13.283  0.0793  0.1587 -0.0806
22504W        W38578   5.643  17.207  11.310  0.0763 -0.0191  0.3151
22505W        W38579  17.696   6.195   1.523  0.1538  0.0348  0.1649
22506W        W38580  11.314   6.358  13.161  0.2054 -0.0301 -0.1048
22507W        W38581  12.937  13.970   9.576  0.0474 -0.2774  0.0506
22508W        W38582   6.526  16.129  13.300  0.1873  0.0712 -0.3529
22509W        W38583   5.825   4.966   0.406 -0.2571  0.2185  0.0569
22510W        W38584  13.932  13.649   0.159 -0.0543  0.2090  0.0345
22511W        W38585  16.109   2.286  11.069 -0.1658 -0.3979 -0.3283
22512W        W38586  11.210  16.458   3.520  0.2000  0.1954 -0.3065
22513W        W38587   1.239   7.686   3.556 -0.1214  0.3793 -0.1183
22514W        W38588  14.633   7.460  10.763  0.0536  0.1237 -0.3128
22515W        W38589  14.463  19.006  10.358  0.0528  0.0896  0.1483
22516W        W38590   8.187   7.288   2.319  0.1336 -0.0012  0.0740
22517W        W38591   4.279   4.361  12.381  0.3581 -0.1270  0.0045
22518W        W38592  16.359  19.227   2.273 -0.1263  0.0874  0.0837
22519W        W38593  13.803  12.258  12.176 -0.1166 -0.0032  0.0461
22520W        W38594  16.844  10.882  13.123 -0.2161  0.0741 -0.1091
22521W        W38595   3.408   1.451   1.541 -0.1474  0.0247 -0.2844
22522W        W38596   0.741   3.598  12.676 -0.0011 -0.0860 -0.2439
22523W        W38597   5.087   5.524   1.714  0.4828  0.0544 -0.0537
22524W        W38598   0.886   8.850  11.976 -0.0107 -0.0992  0.1840
22525W        W38599   1.473  13.457   4.867 -0.0543  0.3600  0.1229
22526W        W38600   7.101   5.407  12.377 -0.1227  0.0927  0.0621
22527W        W38601   2.132  10.621   4.408 -0.2976 -0.0722  0.1024
22528W        W38602   2.950   4.157   4.723  0.3191  0.2904  0.1344
22529W        W38603   2.142  17.340   2.636 -0.1489 -0.1908  0.4744
22530W        W38604   3.373   9.502   2.632 -0.2268  0.1603  0.0076
22531W        W38605   5.087   4.603  11.162  0.1213  0.0299 -0.0906
22532W        W38606   2.033   5.699   2.863 -0.0447  0.2222  0.1001
22533W        W38607  11.206  17.195  10.778 -0.0629  0.1757 -0.0905
22534W        W38608   9.206   6.279   1.130  0.2894  0.1531  0.1511
22535W        W38609  13.628  13.599   4.877 -0.0615 -0.2649  0.1291
22536W        W38610  10.300   1.283   0.661 -0.1683 -0.1977  0.2392
22537W        W38611   9.162  18.626   3.561 -0.0934  0.0371  0.1813
22538W        W38612   8.533  10.213   5.032  0.1368 -0.1831 -0.0790
22539W        W38613  14.984   0.892   2.902  0.3228 -0.2072  0.0593
22540W        W38614  12.659  13.849   4.849 -0.0645 -0.0395 -0.0197
22541W        W38615   4.867  15.417   5.233  0.2508  0.0597 -0.1098
22542W        W38616   7.387  12.453  10.705 -0.0663 -0.3042 -0.1160
22543W        W38617  15.446   5.540   1.353 -0.1628 -0.2991  0.3322
22544W        W38618  18.559  17.220  13.541 -0.1417  0.3723  0.1224
22545W        W38619   9.414  13.410   4.131  0.0682 -0.1624  0.1909
22546W        W38620   8.829  11.254  11.288 -0.2068  0.2075 -0.0103
22547W        W38621   5.816   9.306  13.837  0.0949  0.2161  0.1432
22548W        W38622  11.457  14.798   2.173 -0.3254  0.0651 -0.3553
22549W        W38623   8.984   5.566  13.419 -0.1221 -0.0766 -0.0890
22550W        W38624  10.787  17.656  12.867 -0.0376 -0.5804  0.0620
22551W        W38625   1.101   0.575   0.532  0.3702 -0.2481  0.0502
22552W        W38626  11.237  13.090  14.308 -0.0423  0.1597  0.2081
22553W        W38627   1.563   8.774   1.925 -0.3333 -0.1159 -0.2212
22554W        W38628   4.334  10.715  13.994  0.3797  0.5399  0.0182
22555W        W38629   3.590  10.454   3.350  0.0391  0.0839 -0.0575
22556W        W38630  15.420  17.605   0.513  0.1062 -0.0671 -0.0318
22557W        W38631   9.578  14.641   1.531 -0.0331 -0.1648  0.0752
22558W        W38632   7.026  17.938  10.276  0.2378 -0.1834  0.1515
22559W        W38633  18.982  18.961   5.764 -0.4711 -0.0575  0.0488
22560W        W38634   8.929   9.015   1.614 -0.2747  0.1436 -0.0232
22561W        W38635   2.677  17.918   2.632  0.0831  0.2806 -0.1692
22562W        W38636   4.675  19.090   4.237 -0.1182  0.0788  0.0737
22563W        W38637  17.583  13.981  10.924  0.1204 -0.0516  0.2295
22564W        W38638  17.032  17.495  10.326 -0.1006  0.2036 -0.0533
22565W        W38639   5.902   1.794   9.967  0.0384  0.1173  0.0460
22566W        W38640   0.247  19.170   2.280 -0.2280  0.1358 -0.2627
22567W        W38641  13.137   1.613   4.298  0.0299 -0.1955 -0.2053
22568W        W38642   8.819  13.302   3.025  0.2732 -0.2146  0.2565
22569W        W38643  11.369  12.060   4.104 -0.3114  0.2213 -0.0037
22570W        W38644   7.688  17.787  12.779 -0.1345 -0.1724  0.1235
22571W        W38645  12.034  12.559   1.036  0.0242  0.1934  0.1806
22572W        W38646  11.825   9.218   1.248 -0.1162 -0.1278  0.2017
22573W        W38647  12.738  11.322  14.873  0.0056 -0.3182  0.1299
22574W        W38648   2.488  13.274  13.170  0.0989 -0.0436  0.0536
22575W        W38649  14.281   7.443  11.158  0.1736 -0.2521 -0.2500
22576W        W38650   7.181  15.052   2.281  0.1065  0.1791 -0.1082
22577W        W38651   0.006   6.146  10.835  0.1494  0.0538 -0.1840
22578W        W38652   2.981   8.046  14.218  0.1934  0.2027 -0.1803
22579W        W38653  11.343  13.302  11.480  0.0782  0.3962  0.2959
22580W        W38654   0.954  17.923   0.449 -0.2178  0.1800  0.1869
22581W        W38655   5.555   4.674  11.345 -0.1332 -0.0782 -0.0751
22582W        W38656   3.098  14.149   1.673  0.3801  0.0174 -0.4978
22583W        W38657   8.517  11.836  13.399 -0.1696  0.0921  0.0724
22584W        W38658  16.248  10.832   0.085  0.1454 -0.0645 -0.1743
22585W        W38659  12.146  11.504  12.935 -0.3806 -0.0174 -0.1114
22586W        W38660   0.205  17.052   1.723 -0.0029 -0.0570  0.0643
22587W        W38661   8.860   3.709   4.156 -0.0593 -0.0120 -0.0702
22588W        W38662  14.305   9.229  12.905 -0.2688  0.0222 -0.1172
22589W        W38663   9.960   4.830   1.402 -0.0612 -0.2308 -0.1466
22590W        W38664  17.767  19.116  11.597 -0.0932  0.2756 -0.1227
22591W        W38665  13.886   1.387   1.568  0.2251  0.0612 -0.0250
22592W        W38666  11.365  17.591  11.122  0.2381  0.4175 -0.0170
22593W        W38667  13.421   6.055  14.845  0.1385  0.0941  0.5863
22594W        W38668   3.895  10.465  10.999 -0.1468 -0.2129  0.1189
22595W        W38669  13.929   0.146   1.462  0.0236 -0.0462 -0.0086
22596W        W38670  12.398  15.727  14.506 -0.3736 -0.0242 -0.2041
22597W        W38671   0.903   5.971   1.504  0.0948  0.0728  0.2706
22598W        W38672  11.102   2.516  11.245 -0.1496  0.2117  0.0899
22599W        W38673  16.836   5.220  13.779  0.0124  0.0730 -0.0824
22600W        W38674  17.281   4.944  14.870  0.1895  0.0882 -0.3004
22601W        W38675  11.991   1.477  11.750 -0.3029 -0.2660  0.0412
22602W        W38676   2.767   2.467  11.155 -0.0569 -0.1205 -0.4187
22603W        W38677   9.768   2.065   4.761  0.0735  0.1106  0.1558
22604W        W38678  13.988   6.333  14.767 -0.1350  0.0475 -0.1687
22605W        W38679  18.546  10.844   1.586 -0.0508  0.0028 -0.4283
22606W        W38680   2.668  11.342  13.385  0.0722  0.3848  0.2183
22607W        W38681   8.422  12.824  10.413 -0.2112  0.3145  0.1891
22608W        W38682   6.871  12.447  10.321 -0.0816  0.0251 -0.0657
22609W        W38683  15.093  16.179   4.701  0.0466  0.2342 -0.0048
22610W        W38684  18.655  13.171  13.705 -0.2662  0.2686  0.0032
22611W        W38685   1.745  18.829  11.802  0.1562 -0.1894 -0.1914
22612W        W38686  13.591   7.159  11.881 -0.6041  0.0619 -0.2454
22613W        W38687   3.805  18.917   3.955 -0.0803 -0.0312 -0.1795
22614W        W38688   9.269  15.159   1.215 -0.1224 -0.1977  0.0737
22615W        W38689   6.506   0.895  10.783  0.0337 -0.0170  0.2733
22616W        W38690  18.043   1.324  12.298  0.1416 -0.0379  0.3781
22617W        W38691  13.411   3.278   1.409 -0.1837  0.1414  0.2271
22618W        W38692  13.546  18.901  11.763 -0.1260 -0.0151  0.1517
22619W        W38693   8.629  17.468  12.572 -0.0052 -0.1563 -0.0534
22620W        W38694  12.724   8.314  12.101  0.0867 -0.0530  0.1042
22621W        W38695  17.194   3.574   1.156 -0.3691 -0.1700  0.3187
22622W        W38696   8.766  11.336  14.011 -0.1801  0.3166  0.0417
22623W        W38697   2.920  16.045   1.257 -0.0465 -0.1491  0.0009
22624W        W38698  16.643   9.960  12.597  0.3236  0.4241  0.0411
22625W        W38699   7.148   4.081   1.926 -0.2578  0.3380 -0.0638
22626W        W38700  12.847   4.304   0.783 -0.1631 -0.0828 -0.0169
22627W        W38701   5.587  11.229  14.349  0.3472  0.1441  0.1586
22628W        W38702   7.214  13.666   1.960 -0.2271  0.0011  0.1884
22629W        W38703  18.682   4.653   4.103  0.2012 -0.0370 -0.0717
22630W        W38704   9.617   5.457  14.558 -0.0223  0.0021  0.0166
22631W        W38705   7.062  17.703   5.166 -0.0789  0.2461  0.0724
22632W        W38706  11.355   0.912  13.282  0.3053 -0.1656 -0.1271
22633W        W38707   8.793   9.610   2.708 -0.0950  0.2580  0.1984
22634W        W38708  16.665  10.654  10.414  0.2866  0.0973 -0.1210
22635W        W38709  15.602  17.871  12.135  0.0522 -0.0341  0.1090
22636W        W38710  19.055   4.317  13.269  0.1543  0.0004  0.5236
22637W        W38711  11.977   2.681  13.293  0.1770 -0.0616  0.0307
22638W        W38712   9.594  11.486   2.667  0.0028 -0.1385 -0.0810
22639W        W38713  13.180  11.367   3.426  0.0098 -0.1456 -0.0139
22640W        W38714  13.011  10.173   4.527  0.0121  0.0755 -0.1838
22641W        W38715   0.912   6.202   4.457 -0.5664  0.1272  0.2145
22642W        W38716   9.290  18.804   3.092  0.1362 -0.0820  0.1087
22643W        W38717   0.543  18.453  13.702  0.1925  0.0240 -0.0861
22644W        W38718   6.429  17.345   1.984 -0.1190  0.0124  0.1103
22645W        W38719   2.515   4.269   2.495  0.3640 -0.4489  0.1762
22646W        W38720   6.480   8.785   0.153  0.1640 -0.2585 -0.0178
22647W        W38721   5.195  10.692   3.422  0.2672  0.1908  0.2134
22648W        W38722  13.998  18.715  13.077 -0.0032  0.1957 -0.0528
22649W        W38723   4.564   3.508   0.072 -0.3857  0.0929  0.3471
22650W        W38724   4.593   5.255  11.990  0.1508 -0.0003 -0.2753
22651W        W38725  10.948   7.669  12.369  0.3341 -0.1171  0.3342
22652W        W38726   0.312  11.021   3.026  0.0246  0.0136  0.1636
22653W        W38727   6.508  14.222  10.861  0.0433 -0.3342  0.0144
22654W        W38728   0.751  12.845  11.969 -0.0870  0.2709  0.0368
22655W        W38729   5.765  13.487   2.015  0.0373 -0.2005 -0.0943
22656W        W38730   4.584  17.055  10.587 -0.1627  0.0816  0.1554
22657W        W38731   0.509  10.114   2.772  0.1987  0.0705  0.1044
22658W        W38732  13.380  12.113   3.008  0.0229  0.0957 -0.1878
22659W        W38733   0.571   3.446   0.993  0.1689 -0.1181  0.0975
22660W        W38734  15.380  16.256  12.242 -0.0498  0.0258  0.2379
22661W        W38735  14.258  11.600   2.806 -0.1536 -0.1663 -0.1155
22662W        W38736  17.787   3.671  12.908 -0.1024 -0.1391 -0.3281
22663W        W38737   0.508   2.921   3.407  0.4067  0.2762 -0.1039
22664W        W38738  18.767   3.269  10.592  0.0297 -0.0542  0.1681
22665W        W38739  14.252   2.789   2.492 -0.1691 -0.0367 -0.4341
22666W        W38740   0.475  11.763  14.284  0.2981 -0.0162 -0.2251
22667W        W38741   1.935   9.557   3.420  0.0633  0.2543 -0.0316
22668W        W38742   3.374  14.556   1.279  0.0299 -0.2341  0.1642
22669W        W38743   8.488   3.394   3.483 -0.1518 -0.1491  0.0996
22670W        W38744   0.355   7.655   1.404 -0.2857 -0.4017 -0.0184
22671W        W38745  17.107   4.318   3.758 -0.3595  0.1103  0.0414
22672W        W38746   5.485   2.107   2.724 -0.0813 -0.2788 -0.2010
22673W        W38747   7.951  15.157   1.528  0.5221  0.2337 -0.2408
22674W        W38748   8.502   6.896   1.064  0.2075  0.3490 -0.2064
22675W        W38749   1.619   5.828   2.163  0.3176 -0.2073 -0.2513
22676W        W38750   1.842   8.842   0.445  0.0031  0.0923 -0.0233
22677W        W38751   9.301  10.538  12.662 -0.0441 -0.0893  0.1973
22678W        W38752   5.492   8.611  14.602 -0.0000 -0.0994  0.0418
22679W        W38753  17.605   3.709  13.486 -0.1270  0.0409  0.2332
22680W        W38754  10.954  10.187   1.997  0.4471  0.0615 -0.1168
22681W        W38755  10.215   1.620  12.730  0.1012 -0.0868  0.1806
22682W        W38756  11.621  10.085  10.363  0.1855  0.1961  0.1257
22683W        W38757   6.457   1.541  14.584  0.1166  0.2670  0.0950
22684W        W38758  13.117  17.132  13.758 -0.0811  0.2643  0.0175
22685W        W38759  17.603  10.768   5.286  0.1361 -0.0253 -0.2589
22686W        W38760   1.431  14.517  13.668 -0.0855 -0.3162 -0.2670
22687W        W38761  14.618  14.310   2.566 -0.2715 -0.0086 -0.0233
22688W        W38762   6.874  15.368  10.822  0.1991 -0.0581  0.0069
22689W        W38763   2.230  17.264   4.613 -0.0578  0.0597 -0.0838
22690W        W38764   5.288  12.934   0.195  0.0322  0.3685  0.4123
22691W        W38765  10.771  15.876   0.959  0.0389 -0.3470  0.2156
22692W        W38766   2.858   2.412  12.676  0.2672  0.0700 -0.3123
22693W        W38767   5.239   8.390   0.088 -0.0124 -0.1645 -0.1792
22694W        W38768   6.808   1.559  10.420 -0.1568  0.0286 -0.0806
22695W        W38769  17.386   1.352  11.251 -0.1382  0.0079 -0.0647
22696W        W38770  19.301   9.690   1.669  0.0328  0.0407  0.0511
22697W        W38771   3.615  15.408  13.634 -0.0231 -0.0365 -0.0754
22698W        W38772  13.634  11.318  11.833 -0.0989  0.4043  0.2194
22699W        W38773   0.684  16.636  12.712 -0.0678 -0.1362 -0.1704
22700W        W38774  19.064   3.796   3.926  0.0072 -0.3883  0.1998
22701W        W38775   0.011  15.688   3.130 -0.0010 -0.2284 -0.0614
22702W        W38776   4.094   1.120  10.921 -0.0442  0.1019  0.0653
22703W        W38777  10.727   2.990   1.432 -0.0161 -0.1457  0.1095
22704W        W38778   8.889   6.518   2.113  0.2193 -0.0121 -0.0522
22705W        W38779   4.078  17.582   4.281  0.0460  0.2560 -0.2870
22706W        W38780  18.188   4.106   3.238  0.4386 -0.0320 -0.0541
22707W        W38781   3.157   2.467   3.548 -0.3771  0.3185  0.0480
22708W        W38782   5.213  10.821  14.326 -0.3674 -0.1409  0.0321
22709W        W38783   3.100  18.629  13.493 -0.1629 -0.1462  0.0661
22710W        W38784   4.041  14.710   2.040  0.2743 -0.0760  0.1607
22711W        W38785   5.006   6.044  12.444 -0.0111 -0.2855 -0.0204
22712W        W38786  14.406  14.908   1.591  0.0920 -0.0556  0.1392
22713W        W38787  17.438  15.355  12.114  0.1520  0.2293  0.0158
22714W        W38788  17.098  12.017  12.180  0.4585  0.1214 -0.0345
22715W        W38789   6.965  18.758  13.611  0.1103  0.1472 -0.2336
22716W        W38790   1.528   1.569   2.543  0.1696 -0.4593 -0.0306
22717W        W38791   7.504  15.052  11.609 -0.0244 -0.4172 -0.1883
22718W        W38792   6.084  17.539  10.026 -0.1055 -0.1484 -0.0121
22719W        W38793   1.903  16.340   3.026  0.0418  0.0771 -0.1564
22720W        W38794   5.136   5.461   0.342  0.0535 -0.5601  0.0788
22721W        W38795  12.051   5.611   2.977  0.1713 -0.0445  0.0365
22722W        W38796  14.505   1.242  10.624  0.1513 -0.2008 -0.2512
22723W        W38797  10.172  18.310  11.408 -0.1442  0.2633  0.2301
22724W        W38798  10.775   1.704   3.158 -0.0528 -0.0475 -0.0335
22725W        W38799  12.003   9.105  12.975  0.0369  0.3978 -0.1420
22726W        W38800   1.537  11.456   9.951  0.2534  0.3524  0.1747
22727W        W38801   5.692   8.471  13.386  0.1331  0.1143 -0.1552
22728W        W38802   9.924   2.496  10.812  0.0779  0.0742  0.0889
22729W        W38803  11.507   3.604   2.823 -0.5602 -0.0913  0.1380
22730W        W38804   5.400  11.497   0.155 -0.1486 -0.0863  0.0835
22731W        W38805   9.836  17.970  11.069  0.0665  0.3212 -0.3180
22732W        W38806  18.832  11.988  14.423  0.0332 -0.2318 -0.0911
22733W        W38807   9.083  12.369   0.444  0.1410 -0.2455 -0.0265
22734W        W38808  17.066  14.074   0.299 -0.0990 -0.2256 -0.2139
22735W        W38809  15.058  15.597  13.211  0.1172 -0.0902 -0.0004
22736W        W38810   2.134   6.780  11.165 -0.0193 -0.0784 -0.1903
22737W        W38811   6.325   7.062   0.076  0.0261 -0.2217  0.2428
22738W        W38812   1.014  17.837  11.177 -0.0880 -0.1340  0.0302
22739W        W38813   1.835   1.860   0.807  0.0344  0.3673  0.4467
22740W        W38814   7.955  13.822   1.953 -0.1417 -0.0770  0.0238
22741W        W38815  13.803  16.691   2.626 -0.3518 -0.2045 -0.2368
22742W        W38816   6.958   6.981  14.050  0.3682 -0.1405 -0.0620
22743W        W38817  13.048  11.525   1.900 -0.1172  0.1081 -0.1182
22744W        W38818  12.055  10.466  10.301  0.1902  0.1069 -0.0785
22745W        W38819  12.788  14.422   2.365  0.0563 -0.1062  0.4124
22746W        W38820  11.890   2.334   0.806 -0.0501  0.0622  0.1369
22747W        W38821  19.230  13.756   3.433  0.3467 -0.0503  0.1220
22748W        W38822  18.654  17.172  12.284  0.1809  0.1843 -0.2230
22749W        W38823  11.346   2.872  11.937 -0.2117  0.1044  0.2203
22750W        W38824   4.340   1.459   4.296 -0.0577 -0.2637 -0.1836
22751W        W38825   1.134  11.398   4.046 -0.4336 -0.2696 -0.2514
22752W        W38826  11.229  14.809  14.129 -0.0442 -0.3939 -0.0815
22753W        W38827  18.772  15.103   3.281 -0.2995  0.4796  0.1649
22754W        W38828   9.597   9.280   4.085 -0.2008 -0.2552  0.2706
22755W        W38829   1.200   6.023   3.963 -0.2835 -0.1546  0.0380
22756W        W38830   5.903   9.997  10.434  0.0916 -0.0940  0.2053
22757W        W38831  17.434   0.821   3.854  0.2738 -0.0657  0.2073
22758W        W38832  13.661   7.780  14.851 -0.2477 -0.0939 -0.0441
22759W        W38833   0.500  13.610  10.829 -0.1811  0.0180  0.0192
22760W        W38834   4.595  14.445  12.495 -0.1612  0.3183  0.5713
22761W        W38835  16.550   1.293  14.662 -0.0787 -0.2560  0.2288
22762W        W38836   3.109   1.956   0.034 -0.1223  0.1817 -0.0797
22763W        W38837  18.942   0.590   2.164  0.0246 -0.1241  0.1522
22764W        W38838  11.047  10.143   0.480  0.1327  0.1913 -0.1985
22765W        W38839   6.551   6.059   2.845  0.0397 -0.0094  0.0282
22766W        W38840   1.790   4.381   2.714  0.3986 -0.1485  0.0680
22767W        W38841   0.074   5.776   0.322  0.0660  0.3615  0.6901
22768W        W38842  10.748   8.585  14.214  0.0803  0.0164  0.0931
22769W        W38843   3.089  11.794   4.440  0.2479  0.2233 -0.1397
22770W        W38844   6.154  18.378   3.369  0.0148 -0.0802 -0.1777
22771W        W38845   1.219   4.675   3.977  0.1238  0.2088  0.2669
22772W        W38846   2.064   6.599   3.578  0.1046 -0.0406  0.1728
22773W        W38847   8.366   7.834  11.488  0.1227  0.0708 -0.1963
22774W        W38848   5.074  15.154   4.401 -0.0542 -0.2135  0.3143
22775W        W38849   1.658  13.313  14.807  0.1422 -0.0639  0.2837
22776W        W38850  19.134   5.858  11.865  0.0977 -0.0037 -0.1912
22777W        W38851  10.677  11.815   9.988 -0.1734 -0.2729  0.1319
22778W        W38852   5.242  13.017   1.133  0.0270 -0.1968 -0.0498
22779W        W38853   8.552   5.711   1.255 -0.2937  0.0138 -0.1142
22780W        W38854   3.160  18.013  14.161  0.0880  0.2520 -0.0681
22781W        W38855   6.677  12.746  14.510 -0.2825 -0.1743  0.1319
22782W        W38856   2.738   7.485  13.054 -0.2766  0.2513 -0.1390
22783W        W38857   0.586   7.227   1.243 -0.1546  0.3310  0.0066
22784W        W38858  11.041  12.887   3.073  0.1372 -0.0134 -0.1682
22785W        W38859   9.919  17.818  12.672  0.0122  0.0041  0.0437
22786W        W38860   1.679   8.220  14.794 -0.1854  0.4342 -0.0825
22787W        W38861   3.261   7.460  11.342  0.1428 -0.0269 -0.0150
22788W        W38862   2.195  18.234   2.527  0.1948  0.0504 -0.3977
22789W        W38863   5.967  17.381   3.221 -0.0375 -0.0600 -0.0636
22790W        W38864  17.614  15.203   4.555  0.3922 -0.1628  0.0053
22791W        W38865  13.791   1.655   2.276  0.0425 -0.2614  0.2186
22792W        W38866  10.564   3.012   2.976 -0.1504 -0.1636 -0.3055
22793W        W38867  11.070   4.735  12.382  0.3419  0.0616 -0.0827
22794W        W38868  12.965   2.714  13.231  0.2403  0.3575 -0.0477
22795W        W38869   4.230  14.670  12.828 -0.0535  0.1937  0.3964
22796W        W38870   2.275   5.725  12.333 -0.0662 -0.3572  0.1546
22797W        W38871   5.890  10.516  12.080 -0.1492 -0.3156 -0.1766
22798W        W38872  13.314  16.289   0.306 -0.0469 -0.1775 -0.2542
22799W        W38873   8.921   4.492   0.486  0.1435  0.0958  0.2184
22800W        W38874   3.171  19.130   2.081 -0.0928 -0.2599  0.2844
22801W        W38875  11.946   5.081   4.451 -0.1007  0.0192  0.2235
22802W        W38876  10.091  17.712   5.393 -0.0822  0.0533 -0.1056
22803W        W38877   0.362   5.744  11.799 -0.0206 -0.0538  0.0747
22804W        W38878  18.759   4.173  13.886 -0.0950  0.1713 -0.0216
22805W        W38879   3.806   2.123  10.028 -0.3681 -0.2603  0.0867
22806W        W38880   4.188  18.519  12.184 -0.2422  0.1304  0.1332
22807W        W38881  11.327   4.283  14.786 -0.1800  0.1262 -0.1295
22808W        W38882  12.069   3.339  13.304 -0.1796 -0.0377 -0.0021
22809W        W38883   8.771   5.722  14.668  0.1478  0.0417 -0.1219
22810W        W38884  16.816   5.400  11.170  0.0392  0.0665 -0.1151
22811W        W38885  18.117  16.725   4.042 -0.1276 -0.1980 -0.2259
22812W        W38886  15.196   9.574   3.222 -0.1410  0.0008  0.0598
22813W        W38887  14.205   5.777  11.146 -0.1039 -0.0165 -0.0080
22814W        W38888  10.289  17.212   4.644  0.0243  0.0094  0.2098
22815W        W38889   8.537  14.186   3.262  0.1165 -0.0807  0.1864
22816W        W38890   2.437  14.162  11.903 -0.0359  0.0597  0.1133
22817W        W38891  19.020   4.320   5.354 -0.0392 -0.1020 -0.2552
22818W        W38892  13.627   0.322   0.897  0.2566 -0.0800 -0.1559
22819W        W38893  13.436  15.800   0.256 -0.0826  0.1343 -0.1255
22820W        W38894  17.546  10.645  14.952 -0.2910  0.0105  0.0973
22821W        W38895   2.634   0.403   9.949 -0.5302 -0.3996 -0.2284
22822W        W38896   7.896   7.259   1.543  0.1777 -0.2877  0.0099
22823W        W38897   2.119  17.697  10.411 -0.1450  0.2786 -0.3083
22824W        W38898  14.060  16.255  14.077  0.3798  0.1407 -0.0519
22825W        W38899   5.048  10.065   2.880 -0.1412 -0.3717 -0.3862
22826W        W38900  11.950  18.148  11.740 -0.1018  0.0269 -0.1078
22827W        W38901  19.155  17.847   0.149 -0.0335 -0.1933  0.0686
22828W        W38902  16.577   0.560  11.713  0.2919 -0.1447 -0.4114
22829W        W38903  11.359   9.985   9.981  0.0517 -0.3846  0.3096
22830W        W38904   5.058   3.991  11.985 -0.1048 -0.2316  0.3176
22831W        W38905   3.707  10.389  14.498  0.1624 -0.0286 -0.1542
22832W        W38906  12.452  14.645  11.604  0.0411  0.1362 -0.0162
22833W        W38907   5.468  12.554   1.141  0.0606  0.3689  0.0714
22834W        W38908   7.291  16.314   9.882 -0.0313 -0.0374 -0.0537
22835W        W38909  14.228   2.995   0.435  0.1404 -0.0107 -0.0653
22836W        W38910  13.501   1.586  11.685  0.2234  0.2954 -0.3859
22837W        W38911   6.782   9.511  14.265  0.0973 -0.0736  0.1661
22838W        W38912   1.071  13.664   5.128 -0.1150  0.0526 -0.0610
22839W        W38913   0.894   0.802   1.864  0.1473  0.0961 -0.1755
22840W        W38914   9.847   8.164   0.376  0.1204 -0.1255 -0.2904
22841W        W38915  11.066   7.862  11.435 -0.1420 -0.3510 -0.1952
22842W        W38916   7.270   1.054  12.488  0.0047  0.1091  0.0699
22843W        W38917   4.412   9.373   0.900  0.3012 -0.2217  0.2438
22844W        W38918   4.291  14.163   4.837 -0.0760  0.0788 -0.3960
22845W        W38919   7.413   1.288   9.575 -0.0385  0.0423  0.0727
22846W        W38920   9.689  13.147  11.558  0.1114 -0.2403 -0.1307
22847W        W38921   0.139   8.064   3.415  0.2353 -0.2149  0.1140
22848W        W38922   2.579  18.157   0.414 -0.3218  0.0074 -0.2910
22849W        W38923   5.199   0.790  12.438  0.1121 -0.1857  0.1363
22850W        W38924  12.282   9.894  11.454 -0.0734 -0.2588  0.2842
22851W        W38925  12.149   0.061  12.709 -0.0513 -0.0682 -0.2509
22852W        W38926  17.473   7.289   0.153  0.0773 -0.1196 -0.0123
22853W        W38927   5.993  13.751  11.529 -0.1269 -0.2475  0.1428
22854W        W38928  16.015   0.112   1.623  0.3487  0.2221  0.0543
22855W        W38929  16.167  12.218  12.191  0.1309  0.1110 -0.0456
22856W        W38930  10.538   5.517  14.741  0.0264 -0.0616  0.1042
22857W        W38931  17.859   1.993   0.929  0.0510 -0.0594 -0.0715
22858W        W38932  12.760   4.834  12.613 -0.0250  0.0029 -0.1231
22859W        W38933   2.253  15.345   3.271 -0.0883 -0.0475 -0.0551
22860W        W38934  18.581  13.352  12.547 -0.0125 -0.4163  0.0938
22861W        W38935   4.807   7.521   0.768 -0.0674  0.2974  0.1152
22862W        W38936  17.977   4.992   4.735  0.0294 -0.1793 -0.0255
22863W        W38937   2.437   7.345  12.734 -0.1955  0.0786  0.0687
22864W        W38938  11.397  16.417   9.569  0.2790  0.2692 -0.1645
22865W        W38939  15.359   0.292   4.848  0.0242  0.1407  0.2125
22866W        W38940   9.032  10.425  11.793  0.0388 -0.1412  0.0590
22867W        W38941  10.729  11.410   1.294 -0.1774  0.1826  0.0556
22868W        W38942   9.839   9.273  11.857 -0.1296  0.0649 -0.2467
22869W        W38943  18.559  17.170   2.371  0.2769 -0.2810  0.4786
22870W        W38944  17.154   4.220  12.298  0.0228  0.2724 -0.2063
22871W        W38945  11.281   1.779   3.237 -0.1181  0.2307 -0.1101
22872W        W38946   9.329   9.650  11.724  0.0681 -0.1725  0.0424
22873W        W38947  13.428   1.142  13.261  0.0643 -0.3349  0.0061
22874W        W38948   2.117   9.291   1.315 -0.3284 -0.0485  0.0880
22875W        W38949  10.587  13.261  11.482  0.2888 -0.0572  0.5774
22876W        W38950   8.518  18.358   1.173  0.0910  0.2632 -0.3042
22877W        W38951  18.673  14.842  11.685  0.3250  0.0934  0.1115
22878W        W38952   9.567   4.708  11.868  0.0974  0.1339  0.2842
22879W        W38953  12.312   3.513  12.652 -0.0839  0.0724  0.2682
22880W        W38954  10.192  12.258   3.665 -0.2188  0.2474 -0.2350
22881W        W38955   0.848  12.158   5.154 -0.5477  0.1084 -0.0283
22882W        W38956   6.089   5.876   0.527  0.0998 -0.1736 -0.0121
22883W        W38957  11.271   3.514   0.357 -0.0499 -0.3460 -0.0331
22884W        W38958   4.783   8.837  14.549 -0.1826  0.0816 -0.2832
22885W        W38959  14.079  14.947   5.038 -0.1665 -0.4487 -0.1276
22886W        W38960   1.725   7.293   3.369 -0.0467 -0.1320  0.1905
22887W        W38961  11.912   0.148   0.852  0.0136  0.2593  0.0996
22888W        W38962  10.826  14.253   0.280 -0.2510  0.0069 -0.2409
22889W        W38963   0.174  18.512   0.977  0.0171  0.1474  0.1807
22890W        W38964  12.776   9.064   2.925  0.0756  0.3310 -0.0647
22891W        W38965   4.638  15.732  14.471  0.0058 -0.1591 -0.0073
22892W        W38966   9.247   9.260   0.655  0.0225  0.1555 -0.1485
22893W        W38967  17.614  18.350   2.184  0.3680  0.1162 -0.0126
22894W        W38968  12.370   0.094   0.994 -0.1052 -0.0110  0.0531
22895W        W38969  11.946   4.158  13.196 -0.1001  0.0736 -0.2283
22896W        W38970   9.383   3.906   2.976 -0.0970  0.0793  0.0744
22897W        W38971   4.399   4.707   2.357  0.1330  0.1879 -0.0253
22898W        W38972   2.098  17.649   3.884 -0.0728 -0.1876  0.4597
22899W        W38973  10.616   3.043  10.043 -0.4340  0.0588 -0.1172
22900W        W38974  15.576  13.252   5.344 -0.0616 -0.0360  0.2159
22901W        W38975   7.203  17.709   9.523 -0.1801  0.0163 -0.1131
22902W        W38976   6.998  14.529   3.884  0.1114 -0.3052 -0.0451
22903W        W38977   2.970   6.131   4.622  0.1181  0.2453  0.0220
22904W        W38978  11.871  11.171   0.861  0.1527 -0.2051  0.2150
22905W        W38979   8.420  16.052  14.127 -0.1560  0.0816  0.0070
22906W        W38980  15.416   7.855   4.154 -0.2608 -0.1045 -0.2175
22907W        W38981   0.832  12.761   2.165 -0.0672 -0.0435 -0.2349
22908W        W38982  12.374   5.490  13.827  0.3615  0.3318 -0.0079
22909W        W38983  12.023  10.239  11.699  0.0611  0.1050  0.1527
22910W        W38984   3.629  12.440  10.893 -0.2259 -0.1951 -0.0815
22911W        W38985  15.299   9.806   4.848 -0.0188 -0.0399 -0.0671
22912W        W38986  10.771   4.662  11.828  0.0520  0.2809  0.0381
22913W        W38987   9.312  11.225  13.923 -0.2420 -0.0303  0.0299
22914W        W38988  11.688  11.762  10.358 -0.0315  0.2479  0.1300
22915W        W38989   0.238   8.666   1.652  0.0349 -0.1081  0.0107
22916W        W38990   4.175   0.850   3.113  0.4432 -0.1133 -0.1369
22917W        W38991   7.746   5.230   5.105  0.2093  0.4928  0.0714
22918W        W38992  14.918   4.962  12.824  0.0367  0.2401 -0.4093
22919W        W38993   4.194   7.358   1.341  0.1556  0.1220  0.2008
22920W        W38994   7.431   7.839   3.415  0.3376  0.0962  0.2166
22921W        W38995  10.954   7.283   3.743 -0.0885  0.0278  0.0182
22922W        W38996   0.661  11.077  10.593  0.1967  0.0475  0.0955
22923W        W38997  14.229  10.651   3.170  0.2560 -0.3895  0.0714
22924W        W38998  10.774   1.714   4.015  0.1045  0.0401 -0.4321
22925W        W38999  15.293   1.245   2.744 -0.2376 -0.0904 -0.2117
22926W        W39000  16.120   3.076   3.828 -0.1770  0.0961 -0.1409
22927W        W39001   7.222   5.187   2.202 -0.0271 -0.1652  0.2217
22928W        W39002   8.897  13.095   1.577  0.0075 -0.3371 -0.0707
22929W        W39003  12.343  17.780   9.666  0.4234 -0.0997 -0.0652
22930W        W39004  16.396   3.395   2.375 -0.0231  0.1717 -0.5284
22931W        W39005   9.848  12.442   4.035  0.2119 -0.0062  0.1247
22932W        W39006   4.317   2.578   3.922  0.1734  0.0717 -0.0139
22933W        W39007  12.432  12.723  13.131 -0.2011 -0.2531  0.1098
22934W        W39008   4.135   2.416  14.444  0.1185 -0.3250 -0.0487
22935W        W39009   6.796   3.414   3.074  0.2391  0.3638  0.0051
22936W        W39010   4.037   7.815  11.186 -0.3268  0.0259 -0.2525
22937W        W39011  12.731   7.793  14.350 -0.2213  0.2543 -0.3062
22938W        W39012   5.894  18.206  11.832  0.0211 -0.0621  0.1672
22939W        W39013   8.227  16.761  13.478  0.2614  0.1914  0.2582
22940W        W39014  10.074  17.079  13.385  0.1914  0.0944  0.2140
22941W        W39015  18.791   5.616  13.297 -0.1639 -0.2133  0.0420
22942W        W39016   0.016  16.323   1.433 -0.2920  0.0442 -0.0140
22943W        W39017  19.181  11.870   0.765  0.0534 -0.4353 -0.2114
22944W        W39018   3.171   0.800  12.189 -0.0072 -0.1448  0.0217
22945W        W39019  12.350   9.069   9.628  0.0411  0.0473 -0.2762
22946W        W39020  17.008  14.666  14.649  0.0529  0.2022 -0.1799
22947W        W39021  17.976  10.829   6.137 -0.1081 -0.2098  0.2742
22948W        W39022  10.831   0.583   0.933 -0.2992  0.5760 -0.2549
22949W        W39023   6.540  14.893   4.820  0.2888  0.1096  0.0940
22950W        W39024   3.112  17.966  10.502  0.2126  0.0714  0.2178
22951W        W39025   9.913   6.727  11.490 -0.1278 -0.1402 -0.1831
22952W        W39026  12.189   0.975   5.845 -0.1130  0.0306  0.3315
22953W        W39027  12.239   6.290   2.415  0.2292 -0.0868  0.1253
22954W        W39028   0.509  14.118   1.316 -0.0595 -0.0895  0.0942
22955W        W39029   6.151  10.087   2.719  0.2810  0.2082  0.2175
22956W        W39030   8.731  18.729  10.753  0.1728 -0.1769 -0.2295
22957W        W39031  11.680   6.000  13.211 -0.0147 -0.0710  0.3355
22958W        W39032  18.450   2.063  12.160 -0.0072 -0.0373  0.2823
22959W        W39033   4.350  17.079   0.531  0.0851 -0.0411 -0.3015
22960W        W39034  12.028   5.585   2.038  0.0885 -0.2710 -0.2301
22961W        W39035  11.855   2.171  12.997 -0.0213  0.0720 -0.0235
22962W        W39036   8.417  11.617   2.533 -0.0303 -0.0491 -0.0505
22963W        W39037  14.786  18.613  13.807 -0.1012 -0.2786  0.0236
22964W        W39038  10.702  17.470   0.839 -0.1403 -0.3117 -0.1582
22965W        W39039   4.946  11.114   2.681 -0.1104  0.2401 -0.2886
22966W        W39040  19.299   7.605   4.183  0.2583  0.2249 -0.0363
22967W        W39041   5.633  10.058   0.380  0.0628  0.1642 -0.1252
22968W        W39042   9.823  16.620   1.728  0.0864 -0.0367 -0.1631
22969W        W39043   1.910  13.742   2.330  0.0733  0.0426  0.0718
22970W        W39044  12.505  17.550  10.796 -0.2906  0.2146  0.0140
22971W        W39045  16.624   8.676   4.130 -0.1063  0.0840 -0.0270
22972W        W39046  16.447   9.933   6.587 -0.3530 -0.3181 -0.1064
22973W        W39047   6.000  16.351   4.398 -0.5032  0.0018  0.1095
22974W        W39048  16.053   2.385   5.631  0.0519  0.5361  0.1437
22975W        W39049   9.257  10.529   1.980  0.0638 -0.1781 -0.1679
22976W        W39050  19.016   3.143   0.327 -0.2301 -0.3648 -0.2910
22977W        W39051  12.983  14.651  12.493 -0.0056  0.2319 -0.0324
22978W        W39052  18.995  10.883   5.167 -0.1604 -0.0086 -0.1422
22979W        W39053  13.868  11.749   4.240 -0.0698  0.1922 -0.0477
22980W        W39054   5.584   3.406  14.357 -0.1461 -0.1588  0.0248
22981W        W39055   0.642  18.981  13.559  0.0853  0.2024 -0.1357
22982W        W39056   6.057  15.343  10.687 -0.0685 -0.0978 -0.1268
22983W        W39057  16.748  17.137  13.918  0.0692 -0.0852 -0.1227
22984W        W39058  13.544  19.000  10.605  0.3245  0.0961  0.0605
22985W        W39059   0.948  10.879  14.600  0.2238 -0.1494 -0.1431
22986W        W39060   6.808   3.072  12.609  0.2030 -0.0162 -0.2387
22987W        W39061  15.472   4.155   5.386 -0.2669  0.0521  0.1542
22988W        W39062  10.594   4.357   1.031 -0.1890  0.3148 -0.0635
22989W        W39063   1.682   1.062  14.118  0.0752  0.1254 -0.2276
22990W        W39064   2.605  17.901  10.471 -0.0846 -0.0447 -0.0197
22991W        W39065  19.030   6.171  14.743 -0.1891  0.0446  0.2593
22992W        W39066   6.633   6.648   0.069 -0.0338  0.0483 -0.1030
22993W        W39067   2.347  10.418  14.037 -0.0244  0.1010  0.0910
22994W        W39068  11.869   0.970  11.490 -0.0081  0.1488 -0.1962
22995W        W39069   8.310   3.145  14.283  0.0406  0.1974  0.0759
22996W        W39070  13.542  19.200   1.027  0.3284  0.3313  0.5170
22997W        W39071  10.573   9.907   0.286 -0.1493 -0.1107  0.0632
22998W        W39072   4.545  18.219   2.865 -0.2442  0.3527 -0.1143
22999W        W39073   9.061   4.390  11.072  0.1552 -0.1825  0.1270
23000W        W39074   0.823  18.666   1.649 -0.1124  0.2634 -0.2625
23001W        W39075   6.095   4.683  13.258 -0.1255  0.2425  0.5353
23002W        W39076   1.375  11.965   6.021  0.1630 -0.0124  0.2902
23003W        W39077   9.247  11.964   0.097 -0.1652 -0.0714  0.0039
23004W        W39078  15.018   3.093   4.453  0.4229  0.4110  0.0257
23005W        W39079  16.088   8.727  12.873 -0.0585  0.4111  0.5039
23006W        W39080  12.502  11.134   0.727  0.2628 -0.2324 -0.1281
23007W        W39081  14.978   0.648  12.481 -0.0713  0.2170  0.1214
23008W        W39082  14.061   6.520   1.275  0.5381  0.0482 -0.2690
23009W        W39083  12.716   3.678  10.522 -0.3013 -0.1470  0.2283
23010W        W39084   3.781  13.080  11.970  0.2514 -0.3052 -0.0978
23011W        W39085   2.697   7.578   4.036  0.0866  0.2439 -0.0549
23012W        W39086  10.552  16.957  13.522  0.1518  0.1960 -0.2467
23013W        W39087  18.546   1.209  13.651  0.0091 -0.0912 -0.1846
23014W        W39088   6.426   6.056  12.198 -0.2824 -0.0460  0.1235
23015W        W39089  10.083  15.478   0.664 -0.0171 -0.0345  0.1639
23016W        W39090  15.337  18.611   1.491  0.3795  0.2982  0.3588
23017W        W39091  13.574  11.074   5.720  0.1999  0.0107 -0.1046
23018W        W39092  16.033  13.338   5.083  0.1616  0.0307  0.1171
23019W        W39093  13.731  12.675   4.742  0.0686 -0.0436  0.0071
23020W        W39094  11.564  13.087   0.156  0.0549  0.0343 -0.0804
23021W        W39095   7.973   1.638   1.118  0.1107 -0.1330  0.0284
23022W        W39096  13.258  10.665   4.580 -0.1385 -0.1539  0.1912
23023W        W39097  17.062   1.624  14.295 -0.0135  0.4388  0.0188
23024W        W39098   0.671   1.964   4.408 -0.0219 -0.4057 -0.0390
23025W        W39099   7.263   5.427  13.057  0.3954  0.1275  0.0378
23026W        W39100   0.962  14.109  14.151  0.1882  0.1906  0.3426
23027W        W39101   7.370   0.943   9.969  0.1515 -0.6373 -0.0037
23028W        W39102   2.496   3.919   4.682 -0.1633  0.4071 -0.2195
23029W        W39103   6.578  12.974   2.577 -0.1375 -0.0726  0.0932
23030W        W39104  17.156   0.474  13.370  0.1278 -0.1579 -0.0345
23031W        W39105  18.737  13.068  12.189  0.0395  0.0450  0.2560
23032W        W39106  13.434   0.092  11.875 -0.0127 -0.0894  0.0693
23033W        W39107   9.881  13.662  11.281 -0.0199 -0.1849  0.3307
23034W        W39108  15.825   0.074  11.146 -0.0926  0.2410 -0.0609
23035W        W39109  15.403   3.113  12.409 -0.1737 -0.1532 -0.2708
23036W        W39110  10.049   0.565  10.721 -0.1785 -0.0525  0.0176
23037W        W39111  10.434   3.158   4.567  0.1913 -0.0728  0.1835
23038W        W39112   9.986  19.322  11.608 -0.3478 -0.1874  0.4475
23039W        W39113   3.482   5.362  13.200 -0.1564 -0.0751 -0.1020
23040W        W39114   3.765   0.188  13.248 -0.1672  0.1669  0.1185
23041W        W39115   5.047   6.610  13.654 -0.0534 -0.1489 -0.1766
23042W        W39116  16.446  15.931  12.937  0.0674 -0.3316  0.2716
23043W        W39117   3.851   8.650   2.456  0.0951 -0.2733 -0.0016
23044W        W39118  16.895   5.752   3.000  0.2476 -0.0580  0.0993
23045W        W39119  14.094  16.240   1.356  0.3155  0.0862 -0.0017
23046W        W39120  13.166   4.743  13.386 -0.3147  0.0373  0.2613
23047W        W39121  14.739   6.017  11.417  0.0793  0.1384  0.2168
23048W        W39122   8.214  10.494  13.018  0.0481  0.1351  0.4162
23049W        W39123   4.956   9.744   3.689 -0.1882 -0.0885  0.1125
23050W        W39124   2.752  15.861   4.138  0.0254  0.0547 -0.0964
23051W        W39125   9.992   9.996  14.642 -0.0826  0.2365 -0.0405
23052W        W39126  19.173  17.713   3.885 -0.0727  0.3884 -0.0795
23053W        W39127   7.636   1.534  13.132 -0.2113  0.1038 -0.0926
23054W        W39128   0.277  15.967  11.389 -0.1911  0.0401 -0.0092
23055W        W39129  10.376  10.866   1.980 -0.0503 -0.0410 -0.0217
23056W        W39130  17.887   2.389  13.320 -0.0083 -0.1600 -0.3042
23057W        W39131  12.922  14.076   3.976 -0.2401 -0.0718  0.5817
23058W        W39132  10.827   2.037   2.758 -0.2982 -0.0682  0.0834
23059W        W39133  18.592  15.585   1.963  0.0973  0.4450  0.1495
23060W        W39134  18.575   5.822   0.449  0.0682 -0.2353  0.0786
23061W        W39135  12.689  13.144   0.665 -0.1388  0.0724 -0.1864
23062W        W39136   7.082   6.294   3.353 -0.0056 -0.0180 -0.2317
23063W        W39137   2.036   3.471  12.717 -0.2679 -0.0167 -0.3771
23064W        W39138  14.781  16.779   1.601  0.2898  0.1055 -0.0822
23065W        W39139   4.687  17.346  14.765 -0.4685 -0.0855  0.0806
23066W        W39140   2.017  18.176   4.325  0.0210  0.0608 -0.3180
23067W        W39141   0.724  14.669  12.455 -0.2700  0.1720  0.0131
23068W        W39142   9.267  17.381   5.052  0.0787 -0.2434  0.1705
23069W        W39143   3.983   4.822  12.452  0.2089  0.2114  0.0073
23070W        W39144  10.079  18.872   3.729  0.3021  0.1553 -0.1958
23071W        W39145  12.914  11.885  13.199  0.2603 -0.4386 -0.0463
23072W        W39146  16.575  13.265  11.666  0.1409  0.3312 -0.0366
23073W        W39147   5.923   9.795   2.362  0.1407  0.0048  0.0660
23074W        W39148  12.742   7.875   1.852  0.0104  0.1230  0.1181
23075W        W39149   6.141  16.619  10.453 -0.1660  0.2288  0.1606
23076W        W39150   1.827   7.429  14.013 -0.0724  0.5428  0.3727
23077W        W39151   8.354   4.263  13.892  0.1177  0.0963 -0.2178
23078W        W39152  11.071   3.260   2.174  0.2367  0.2255 -0.2366
23079W        W39153   0.504  11.398   1.989  0.0413 -0.0317 -0.3146
23080W        W39154   3.407   8.136   3.856  0.0573 -0.1663  0.0627
23081W        W39155  15.312  10.948   4.144  0.0616 -0.0796  0.0231
23082W        W39156  16.481  10.870  12.708  0.0338 -0.0222  0.1568
23083W        W39157   6.971   5.222  10.907  0.2329 -0.0025 -0.1382
23084W        W39158   2.913   7.237  14.394 -0.1966 -0.2753 -0.1201
23085W        W39159   3.630   9.570   3.763  0.0161  0.1177  0.2389
23086W        W39160   8.013  18.398  14.725 -0.1675  0.1552 -0.3125
23087W        W39161  16.390   6.091   3.784 -0.0872  0.1202 -0.2012
23088W        W39162  12.053   7.107  13.789  0.0545  0.0431 -0.0359
23089W        W39163  11.481   5.009  13.157 -0.0645 -0.3077  0.0590
23090W        W39164  13.961   0.749  11.316 -0.0019 -0.0175  0.1430
23091W        W39165  15.806  10.473  12.431  0.1806  0.0169 -0.0188
23092W        W39166   7.081   7.335  12.550 -0.1141 -0.1782  0.1249
23093W        W39167  12.694   4.840  13.616  0.0432  0.0253  0.3986
23094W        W39168   1.772   9.907   0.366 -0.3220  0.0796  0.1501
23095W        W39169  18.151  17.937  13.800 -0.0761  0.5066 -0.0857
23096W        W39170  16.992  17.865  14.541 -0.1776  0.1859 -0.1912
23097W        W39171   7.950  12.362  14.281 -0.0228 -0.0697 -0.1047
23098W        W39172  15.423   3.109   1.323 -0.1084 -0.2942 -0.1336
23099W        W39173   2.718   4.299   4.202 -0.3038 -0.0821  0.1358
23100W        W39174  13.301   0.646   1.111 -0.1716 -0.1382  0.5166
23101W        W39175   3.968  15.834  13.565  0.3574  0.0157  0.0244
23102W        W39176  17.931  17.808   4.408  0.1175 -0.1625 -0.1931
23103W        W39177  11.533   0.157   5.326 -0.2496  0.0835 -0.0508
23104W        W39178   4.642  16.537   0.475 -0.0776  0.0317 -0.0395
23105W        W39179   3.268   3.708   3.144 -0.1716  0.1802 -0.0295
23106W        W39180  17.178  11.136  12.720 -0.1087 -0.0627  0.1163
23107W        W39181  19.012   6.623  14.965 -0.0861 -0.2072 -0.0789
23108W        W39182   3.947   0.318  10.159 -0.1992 -0.1296 -0.2510
23109W        W39183   8.057  12.447   1.330 -0.1666  0.2421  0.0340
23110W        W39184  12.341   0.605  14.745  0.3968 -0.0366 -0.2267
23111W        W39185   0.758  15.815  14.058  0.0522  0.2224  0.0787
23112W        W39186   0.425   1.549  13.919 -0.0195  0.4014 -0.1567
23113W        W39187  10.584   4.563   2.323  0.2391 -0.0541  0.3003
23114W        W39188  13.071   9.281   4.215 -0.2275  0.0659 -0.0024
23115W        W39189  13.425   6.420   1.574  0.4139  0.1557 -0.0708
23116W        W39190  15.534   2.847  12.957  0.0919 -0.5681  0.1652
23117W        W39191  13.209  17.260   0.329 -0.1891 -0.4761 -0.0751
23118W        W39192   6.897   2.789  13.219  0.0248 -0.1423  0.1200
23119W        W39193   7.655   0.615   0.099  0.0252  0.0235  0.0968
23120W        W39194   7.877   7.999  11.322  0.2357  0.0038  0.3820
23121W        W39195   8.268  15.000  10.806 -0.0100  0.2096 -0.3977
23122W        W39196   5.445   4.727  12.435  0.0518  0.2417  0.2484
23123W        W39197   0.387  11.391   4.061 -0.0023  0.0524 -0.1118
23124W        W39198   3.730  12.041  11.144  0.1333 -0.0005 -0.2747
23125W        W39199  13.685   1.002   4.226 -0.2059 -0.1357  0.1276
23126W        W39200   6.712  14.052   4.709 -0.1958  0.2112  0.0166
23127W        W39201  11.739   1.734  12.132  0.0634  0.0626  0.0776
23128W        W39202  13.622  14.961  11.717  0.2028  0.3391  0.1339
23129W        W39203   4.183  16.263   0.433  0.0355 -0.2919  0.3481
23130W        W39204  15.667   7.990   2.770  0.0578  0.1186 -0.1833
23131W        W39205   0.469   0.262   2.084  0.1611 -0.1161  0.0166
23132W        W39206  15.081   1.675  11.061 -0.0696 -0.0009  0.0097
23133W        W39207   6.362   8.611  11.528 -0.2280  0.2380 -0.0954
23134W        W39208   5.862  13.827  12.721  0.1127  0.1493 -0.2660
23135W        W39209   2.786   1.744   4.926 -0.2830 -0.0201  0.4503
23136W        W39210  18.162   6.696  13.113 -0.4791 -0.0525 -0.2905
23137W        W39211   9.629  14.989   3.537 -0.1520 -0.0060  0.0063
23138W        W39212   0.373  15.533  11.653 -0.3605 -0.0776 -0.0671
23139W        W39213   3.301  12.942   0.963 -0.0814  0.2245 -0.0783
23140W        W39214  11.773  12.298   0.101  0.2787 -0.1024 -0.0013
23141W        W39215  18.806   0.276  13.733  0.1622 -0.0652  0.0034
23142W        W39216  16.691   9.187   3.906  0.1390 -0.3860 -0.2867
23143W        W39217  15.508   7.594   4.627  0.1590  0.1252  0.1864
23144W        W39218  11.934  16.858   3.136  0.2012  0.2739  0.1646
23145W        W39219  11.337   2.451   1.646  0.1325  0.1187  0.1527
23146W        W39220  17.789  12.458   2.800  0.1776 -0.1627 -0.1964
23147W        W39221   3.880  17.686  14.814 -0.1114 -0.0971  0.0425
23148W        W39222  14.735  13.664   1.921  0.0197 -0.0154  0.0087
23149W        W39223   6.240   5.664   2.941  0.1985  0.1938 -0.0087
23150W        W39224   5.014  14.648   5.233 -0.1216 -0.1560  0.3140
23151W        W39225  11.355  17.934   3.147  0.0595 -0.1035 -0.0453
23152W        W39226  11.841   7.896   5.316 -0.2362  0.0836 -0.1552
23153W        W39227   1.604  11.842   4.979 -0.2683 -0.4487  0.1236
23154W        W39228   4.904   8.684  13.775 -0.3934 -0.1293  0.3335
23155W        W39229  11.006  13.243   2.320  0.0113 -0.0158  0.1904
23156W        W39230  10.215  10.252   1.032 -0.2452  0.1775 -0.1668
23157W        W39231   9.059  14.226   9.623  0.0499  0.3105  0.1023
23158W        W39232   1.108  17.864  12.647  0.1507  0.3473 -0.4293
23159W        W39233   5.466   3.238  10.942 -0.0979 -0.0191 -0.0618
23160W        W39234  17.555   7.138   1.182  0.3591  0.0426  0.2669
23161W        W39235   5.859   7.369   4.849 -0.0756 -0.3287 -0.2571
23162W        W39236  17.885   8.650   3.800 -0.3093  0.0807 -0.2406
23163W        W39237   8.480  11.787  13.908 -0.0402  0.0323 -0.3267
23164W        W39238   0.586   8.680   4.552  0.0318  0.0564 -0.1106
23165W        W39239  11.930  15.392   2.933  0.1471  0.0752 -0.0328
23166W        W39240   0.152  12.484   0.300 -0.2122 -0.3507 -0.3570
23167W        W39241   9.178   3.418   1.026  0.2019 -0.0366 -0.4235
23168W        W39242  11.036   0.340  12.384  0.1857 -0.0929  0.0093
23169W        W39243   3.442   9.238   5.052  0.1839  0.1897  0.0356
23170W        W39244  15.499   2.401  13.705 -0.0229 -0.1451  0.1338
23171W        W39245  14.258  17.099   4.884 -0.0688  0.1094  0.0133
23172W        W39246   0.786   4.389   2.032  0.3433 -0.1259 -0.4046
23173W        W39247  18.954  11.120   2.972  0.1088 -0.1849 -0.0253
23174W        W39248   6.291  14.684   2.191 -0.0467  0.1061  0.0656
23175W        W39249  11.661  14.709  14.016 -0.1640 -0.1306 -0.0765
23176W        W39250  12.702  13.146  14.548 -0.3661 -0.1617 -0.0670
23177W        W39251   4.786  18.571  12.867 -0.4907 -0.0524  0.2099
23178W        W39252  12.155   1.289   1.833 -0.2266 -0.1244  0.0315
23179W        W39253  11.152  11.134  14.780  0.2458 -0.4543 -0.0517
23180W        W39254  18.273   3.477  12.204 -0.3733  0.0383 -0.0260
23181W        W39255   8.212  16.050   2.489 -0.0373  0.2281  0.0095
23182W        W39256   3.884   2.170   0.870  0.1070 -0.4515 -0.0522
23183W        W39257   3.938   9.887  13.643 -0.1210  0.0716 -0.0103
23184W        W39258  16.926  19.068   2.888 -0.1987 -0.2625  0.0419
23185W        W39259   2.366  14.860   1.002 -0.1349  0.1448 -0.0936
23186W        W39260   6.351   7.263   4.212 -0.3348 -0.0864  0.0818
23187W        W39261  12.578   7.137   2.601  0.1094  0.0917 -0.1421
23188W        W39262   7.203  15.676   3.113  0.0735 -0.1733  0.3034
23189W        W39263   4.701  16.207  11.602  0.1315 -0.2721  0.1098
23190W        W39264   2.485   8.396  12.153 -0.2203  0.1118  0.0964
23191W        W39265  15.234   8.155   2.614  0.2060 -0.5522 -0.0897
23192W        W39266  15.410  12.801   0.980  0.1103 -0.0931 -0.2446
23193W        W39267  16.857  15.305   2.824 -0.0740 -0.2113 -0.1875
23194W        W39268   6.814   3.029   0.764 -0.0796  0.0380 -0.1502
23195W        W39269   4.018   7.267  14.375 -0.2187  0.1499  0.0635
23196W        W39270   3.896  17.286  11.686  0.3217 -0.0073  0.1751
23197W        W39271  16.036  16.123   1.017  0.1900 -0.2484  0.2894
23198W        W39272  18.537   3.260  13.896  0.1158  0.2009  0.1428
23199W        W39273   9.832  11.216   2.986  0.1322 -0.0370 -0.0287
23200W        W39274   3.224   3.177   3.435 -0.3366  0.2700 -0.2151
23201W        W39275   0.668   1.104   2.131  0.0725  0.1717  0.3228
23202W        W39276  11.627  18.885   2.200 -0.3504  0.1374  0.0358
23203W        W39277   3.066  19.165  12.140  0.1992 -0.3117 -0.3093
23204W        W39278  11.000   9.630  12.608 -0.0232 -0.2832  0.1206
23205W        W39279   4.539  15.789  13.468  0.0345 -0.2082 -0.1213
23206W        W39280  16.560   2.932   5.003 -0.2389 -0.2431  0.1539
23207W        W39281   4.588  14.884  12.251  0.0463  0.0001  0.0289
23208W        W39282   7.776   1.254   1.900  0.0627 -0.3067 -0.0124
23209W        W39283   5.966  13.753  14.233  0.1909  0.1589  0.3303
23210W        W39284   3.828  19.230   0.411 -0.0633 -0.3632  0.1204
23211W        W39285  16.108  14.630  11.562  0.2666  0.1631  0.3002
23212W        W39286   3.380   9.381   2.071 -0.0177 -0.2051  0.1892
23213W        W39287  12.991  12.737   4.475  0.1565 -0.3209 -0.0537
23214W        W39288  16.201   0.259   4.384 -0.0851  0.0963 -0.1832
23215W        W39289   5.720  12.762  11.495 -0.0486  0.0896  0.0316
23216W        W39290  13.247   3.898   0.761  0.0576 -0.0249  0.0008
23217W        W39291   8.268   0.828   0.200 -0.0571  0.0473 -0.2889
23218W        W39292  13.444   5.994   4.469  0.2915  0.1578 -0.1413
23219W        W39293  16.744   4.468   0.780 -0.0988  0.1987  0.4076
23220W        W39294  10.150   5.624   5.514  0.2595  0.0872 -0.2066
23221W        W39295   4.524  18.795  11.865 -0.1871  0.1194  0.3495
23222W        W39296  14.375  18.663   0.801  0.1907 -0.0684 -0.3020
23223W        W39297  11.290  19.076   2.591  0.1419  0.2974 -0.0470
23224W        W39298  10.309   8.194  14.433  0.0771  0.2156  0.0350
23225W        W39299   3.783  18.554   4.352 -0.1004 -0.4361 -0.2213
23226W        W39300   4.865   6.834   2.029  0.1882  0.2403  0.1931
23227W        W39301  15.898   7.627   4.208 -0.4589  0.0410  0.2058
23228W        W39302   5.846  16.683  13.309  0.1857  0.2005  0.0907
23229W        W39303  18.267  17.769  12.975  0.2519  0.2423  0.0524
23230W        W39304  15.053   0.582  14.713  0.3321  0.0659 -0.5934
23231W        W39305  10.449   1.735  14.401 -0.2001  0.1864 -0.0834
23232W        W39306  12.198   8.908   2.633 -0.4474  0.1014  0.1004
23233W        W39307  11.057   8.436  12.069  0.5153 -0.2182  0.0940
23234W        W39308  15.457  11.660   5.315 -0.0444 -0.0564  0.2312
23235W        W39309   6.376   2.069   4.643 -0.5196 -0.1246  0.1845
23236W        W39310  17.157  19.176   4.797  0.2111 -0.0775 -0.2322
23237W        W39311  16.256   4.309  14.342  0.2313 -0.1333 -0.1560
23238W        W39312  15.903  16.122  13.569  0.1637 -0.1758 -0.0765
23239W        W39313   5.762   8.209   1.398  0.1306 -0.0933 -0.0703
23240W        W39314   8.067  18.742   1.107 -0.3192  0.1418  0.0898
23241W        W39315  10.621  19.095   3.530  0.1209 -0.2447  0.0822
23242W        W39316   5.309   8.140  10.254  0.0305  0.0186 -0.1386
23243W        W39317  12.020  15.133  13.919 -0.1875 -0.3279  0.0108
23244W        W39318  19.214   1.533  11.704  0.1930  0.1573 -0.0502
23245W        W39319  18.692   4.660  12.403  0.1178  0.0287 -0.0227
23246W        W39320   3.997  18.143   3.582 -0.2889  0.0052  0.1151
23247W        W39321   9.472   9.204  14.076 -0.0691  0.0592 -0.2399
23248W        W39322   6.758  19.298  14.908  0.0516  0.1311 -0.3587
23249W        W39323  16.870   1.585   4.041 -0.2889 -0.1689 -0.2646
23250W        W39324  15.845   6.796  14.303 -0.1802  0.0031 -0.0239
23251W        W39325  15.926  15.874  13.025 -0.1313 -0.2213 -0.2734
23252W        W39326   1.175   3.744  14.193  0.1250  0.0465 -0.0821
23253W        W39327   8.325   7.077  12.661  0.4340  0.1502  0.0963
23254W        W39328  19.019  13.222   5.113  0.1341  0.2002  0.1763
23255W        W39329   2.343  10.625   1.645 -0.2149  0.0425  0.2394
23256W        W39330  11.068  10.899  12.787 -0.0695  0.1838  0.2377
23257W        W39331   5.799  12.138  12.618  0.2054 -0.2968  0.0169
23258W        W39332  11.249   3.099  10.032  0.1885 -0.0621 -0.0314
23259W        W39333  14.015  12.499   2.516 -0.0582  0.0486  0.0502
23260W        W39334   8.195  10.684   4.451 -0.1653  0.4474  0.1104
23261W        W39335  15.204  16.571   0.320  0.0322  0.2958  0.1386
23262W        W39336  15.462   5.227  11.377  0.1197 -0.0976  0.2614
23263W        W39337   4.070   2.930  14.533  0.1885  0.1500 -0.2312
23264W        W39338   2.658   8.368   3.269  0.0800 -0.1075 -0.0226
23265W        W39339  17.587  15.345  14.310  0.3905 -0.4408  0.0214
23266W        W39340  14.521   5.655   4.003 -0.2488  0.2226 -0.1786
23267W        W39341   1.341   4.543   0.497 -0.0279 -0.0812  0.2723
23268W        W39342   1.004   5.453   1.367  0.1225 -0.0555  0.1176
23269W        W39343   6.912  16.483   3.332  0.2096  0.0286 -0.0571
23270W        W39344  15.758  17.805  11.402  0.3838  0.0317 -0.2814
23271W        W39345  15.228  11.383  12.435 -0.1212  0.3131 -0.1178
23272W        W39346   9.697  11.884  11.968 -0.0797  0.1631 -0.0562
23273W        W39347   9.154  11.239   0.836  0.0189  0.0648  0.0316
23274W        W39348   5.693   9.286  14.428  0.2412  0.0023 -0.1509
23275W        W39349   9.917   8.209  13.661  0.0720  0.2577  0.1347
23276W        W39350  15.395   2.079   2.743  0.3375 -0.1493  0.0617
23277W        W39351   1.404  18.815   2.468  0.0418 -0.4679  0.0779
23278W        W39352   5.344   7.572  11.484 -0.1056  0.3150 -0.0337
23279W        W39353   5.195   1.337   2.571  0.1017 -0.2163  0.2112
23280W        W39354   7.789  17.510   1.870 -0.2658  0.1869  0.1844
23281W        W39355   1.894   1.452  10.233  0.2280  0.0363 -0.0017
23282W        W39356  18.572  14.381  14.070  0.0164 -0.5204  0.2962
23283W        W39357   9.187  11.165   0.341  0.0945 -0.1706 -0.0057
23284W        W39358  11.775  10.469  13.717  0.0607  0.1774  0.0981
23285W        W39359   7.513  16.528  11.369  0.2606  0.0389 -0.0034
23286W        W39360   0.310   0.115   0.348 -0.3631  0.0270 -0.1885
23287W        W39361  10.919  12.915  13.018 -0.0358  0.1066  0.2107
23288W        W39362   1.499   2.184  14.867  0.0973  0.1244 -0.0859
23289W        W39363   8.212   5.064  13.819 -0.2247 -0.0224  0.1409
23290W        W39364   8.235  12.677   2.678 -0.0343  0.1336 -0.2563
23291W        W39365  11.505  12.892  13.932 -0.1102 -0.2004 -0.4193
23292W        W39366  12.264   0.276  11.969  0.0900 -0.0620 -0.1726
23293W        W39367   2.862  16.234  14.315  0.3206  0.2093  0.0605
23294W        W39368   7.121   5.788   3.533 -0.1288  0.1965 -0.1957
23295W        W39369   2.581   9.569   0.208  0.2214  0.1202 -0.0729
23296W        W39370   6.504   4.581  10.380  0.0350  0.4759 -0.0122
23297W        W39371  17.462  15.093  13.451  0.1731 -0.2078 -0.2370
23298W        W39372   5.962  12.730  14.093 -0.1948  0.1031  0.5203
23299W        W39373   2.345  17.803   4.683  0.0155  0.2483  0.0301
23300W        W39374   5.641   6.409  11.217 -0.0833 -0.2559  0.5994
23301W        W39375   6.905  19.096  14.366 -0.0180  0.3392  0.0158
23302W        W39376   6.021   2.089  10.426 -0.1868 -0.0226 -0.0085
23303W        W39377  10.729   4.261   0.462 -0.2468 -0.0404  0.3394
23304W        W39378  19.300   5.533   5.430  0.0971  0.1125  0.0298
23305W        W39379  19.058   0.878   3.030  0.2516 -0.0346  0.1625
23306W        W39380   8.432   1.168  13.709  0.0430  0.0548  0.4727
23307W        W39381   4.377  12.812  11.905 -0.1428  0.0478 -0.2011
23308W        W39382   3.961  16.776   0.607 -0.2309  0.1877 -0.0653
23309W        W39383   7.908  16.223   0.914 -0.0660  0.2650  0.2845
23310W        W39384  16.106   7.062  14.639  0.2188  0.1212  0.1240
23311W        W39385   6.270  17.798   1.803 -0.0935 -0.0327 -0.0347
23312W        W39386   4.251   0.115   0.890  0.1375 -0.3841 -0.2826
23313W        W39387  11.197   7.642   0.167  0.1287 -0.0490  0.0134
23314W        W39388   7.256  11.523  10.941 -0.3200  0.1327 -0.0559
23315W        W39389   1.233  18.060   4.955 -0.1658  0.1237  0.1714
23316W        W39390   1.967   5.316   3.677 -0.0864  0.2994  0.0044
23317W        W39391  12.874   2.939  14.860  0.1219  0.2039  0.2436
23318W        W39392  11.410  15.000   3.684 -0.1795  0.3001  0.0407
23319W        W39393  19.071   6.658   1.390  0.0062  0.1468 -0.2191
23320W        W39394   4.406   0.946   4.237 -0.0379  0.1970 -0.1302
23321W        W39395  14.571  13.159   2.885 -0.0184  0.0484  0.1765
23322W        W39396  11.728  17.143  14.158 -0.0011  0.1548  0.1561
23323W        W39397   8.410  19.177  11.475 -0.2074 -0.3272 -0.3142
23324W        W39398   2.467  13.746   3.805 -0.2363  0.0383  0.3192
23325W        W39399   3.196  13.935  11.348  0.1494  0.2100 -0.1838
23326W        W39400  17.277   5.655  11.242  0.2756  0.0365  0.0974
23327W        W39401   6.027   3.227  12.731  0.1256 -0.0103  0.0898
23328W        W39402   0.825  11.396  10.219 -0.0849  0.2169 -0.1790
23329W        W39403   9.020  14.807   2.175 -0.0652 -0.1356  0.2155
23330W        W39404  18.649  14.342  10.773  0.1883  0.2151 -0.0814
23331W        W39405  11.082   9.834   4.150  0.0274  0.3855  0.1812
23332W        W39406  10.619   8.031   2.545 -0.1706  0.0002 -0.0994
23333W        W39407  11.994   9.051  11.799  0.3802 -0.1862  0.1042
23334W        W39408  11.264   5.516  11.668  0.0576  0.2018 -0.1015
23335W        W39409   1.230  12.467   1.570 -0.0040 -0.2253 -0.1520
23336W        W39410  14.763   7.619  14.291 -0.1506 -0.0586 -0.0516
23337W        W39411   6.487   9.882  13.870  0.1514  0.0737  0.0488
23338W        W39412  15.056  14.832  11.886  0.3195 -0.1630  0.2690
23339W        W39413  12.984  15.793  11.197  0.0458  0.1081 -0.1512
23340W        W39414  18.999   6.584   1.947  0.0965  0.1002 -0.2890
23341W        W39415  15.083   9.842  14.198  0.0691  0.0842 -0.1696
23342W        W39416  13.945  13.776   5.390 -0.2200 -0.2651 -0.0868
23343W        W39417   8.682   4.431   1.486  0.4964 -0.0474 -0.0155
23344W        W39418   7.992   6.478  10.928  0.0363 -0.1867 -0.0522
23345W        W39419   4.594   8.961  14.070  0.1718  0.0518 -0.2369
23346W        W39420  16.057   5.768  11.677 -0.1459  0.3928 -0.3114
23347W        W39421   1.415   3.443   0.365 -0.2568 -0.2259  0.1230
23348W        W39422  12.723   6.285   5.040 -0.1274  0.0680 -0.0326
23349W        W39423   2.428  16.052  13.680 -0.2072 -0.0093 -0.0469
23350W        W39424   9.139  17.011  11.767  0.4584 -0.0899 -0.0174
23351W        W39425   0.027  13.274   4.727  0.0003 -0.0147 -0.0581
23352W        W39426  16.113   7.360  10.852 -0.0153  0.2011 -0.1763
23353W        W39427   8.795   9.733  13.635  0.2494  0.0822 -0.2582
23354W        W39428   9.626  11.206  12.942  0.2085  0.0217 -0.1730
23355W        W39429   3.980  11.707   4.208  0.1457 -0.0956  0.2129
23356W        W39430  17.715   5.455   0.992  0.0482 -0.1080 -0.1495
23357W        W39431   8.815  16.337   1.796 -0.1634  0.5256 -0.2211
23358W        W39432   4.643   2.008   1.260  0.4004 -0.0917 -0.2683
23359W        W39433   1.342   6.293   4.745 -0.0787  0.1694 -0.3450
23360W        W39434  14.555  10.666   4.572  0.3026  0.0907  0.0196
23361W        W39435  10.487  10.669  11.565  0.0252  0.0382 -0.0002
23362W        W39436   7.539   8.278  12.148 -0.0296  0.3212 -0.1064
23363W        W39437  17.443   6.545   0.196 -0.2356 -0.2748 -0.1011
23364W        W39438  17.333   4.159  10.841  0.3223  0.0500  0.1140
23365W        W39439   8.837   9.408  11.548 -0.1845  0.0042 -0.1033
23366W        W39440   9.838  19.118  14.321 -0.1628 -0.2140  0.2098
23367W        W39441   6.361   4.307  12.925 -0.1069 -0.1208 -0.2922
23368W        W39442  16.413  16.762   2.767 -0.0643  0.3196  0.0240
23369W        W39443   9.145   5.606   1.998  0.2142 -0.2100  0.3180
23370W        W39444  16.310   3.700   2.743  0.1220  0.0753 -0.0618
23371W        W39445  14.492  11.548  14.766  0.0647 -0.1629  0.2656
23372W        W39446   4.544   2.571   2.168 -0.1786 -0.2347 -0.0430
23373W        W39447  14.499   9.483   0.931  0.1619  0.2353  0.2827
23374W        W39448   4.542   3.097  14.675 -0.0655  0.0504 -0.5011
23375W        W39449   6.347  16.879   2.685 -0.0292  0.0559 -0.0151
23376W        W39450  10.511  14.461  14.656  0.0123 -0.1025 -0.2085
23377W        W39451   1.779   3.230  14.168 -0.2536 -0.1322 -0.1444
23378W        W39452   7.944   6.126   0.074  0.0579 -0.1251  0.1954
23379W        W39453  15.844   8.974  10.899 -0.0706  0.0338  0.0591
23380W        W39454   8.544   6.533   4.803 -0.2336  0.0506  0.0009
23381W        W39455   7.716   2.412  14.372  0.3487  0.1802 -0.0456
23382W        W39456   0.498   6.481  11.988 -0.0673  0.1457 -0.1766
23383W        W39457  12.888   2.559  12.095 -0.3400 -0.0043  0.0389
23384W        W39458  12.344   8.018  14.629  0.0127  0.1710  0.0683
23385W        W39459   8.329   2.502   4.126 -0.1505 -0.0367 -0.1613
23386W        W39460  17.042  16.639   0.334 -0.2133 -0.2081  0.2973
23387W        W39461   9.215   2.875   3.878 -0.2717  0.1141  0.2520
23388W        W39462   2.497   3.670   3.753 -0.1771 -0.2525  0.0524
23389W        W39463  18.487  17.139   0.573 -0.1661  0.1685 -0.1586
23390W        W39464  17.458  13.135   3.425 -0.0461  0.1864  0.0240
23391W        W39465   9.627   5.822   1.049  0.1867 -0.0577 -0.1365
23392W        W39466   4.509   0.631  14.807  0.0687  0.0836  0.0313
23393W        W39467  18.131   1.902   2.337 -0.5344  0.2326  0.3604
23394W        W39468   7.031   3.520  11.169  0.1096 -0.0746  0.0984
23395W        W39469  11.694   6.292  12.242  0.1410 -0.0344  0.0269
23396W        W39470   4.713  15.996   1.460  0.4051 -0.1662 -0.2689
23397W        W39471   9.111   6.736   4.024  0.2079  0.1784 -0.0221
23398W        W39472   7.425   2.792   5.018  0.2563 -0.0482  0.0836
23399W        W39473   1.608  10.354   4.913  0.1978 -0.0071  0.3171
23400W        W39474  15.829  11.620   2.435 -0.0464  0.1103 -0.0034
23401W        W39475   0.537   8.126   1.092 -0.1262  0.0471 -0.3475
23402W        W39476  16.248   4.346  14.924 -0.0007 -0.0450  0.0844
23403W        W39477  10.933   2.589   4.092  0.0954 -0.2839 -0.3910
23404W        W39478  11.171  16.420   4.024  0.0320 -0.2684 -0.1014
23405W        W39479   2.150   9.549   2.943 -0.1733 -0.0840  0.1951
23406W        W39480  13.122  18.155   0.984 -0.3171 -0.0353  0.2855
23407W        W39481   1.115   4.738  11.230 -0.0625  0.0468  0.3949
23408W        W39482   2.151  17.512   1.303 -0.0383 -0.2023 -0.4793
23409W        W39483   5.289   3.342   0.327 -0.3363  0.1068 -0.0608
23410W        W39484   5.124  16.018  13.482  0.2074  0.2229 -0.0358
23411W        W39485  12.215   2.465   9.347  0.4082  0.2666  0.2563
23412W        W39486  10.797   5.857   4.004  0.1019 -0.2732  0.0192
23413W        W39487   4.344   3.161   9.494  0.0108  0.1276  0.1821
23414W        W39488  10.743   2.270   3.794 -0.0712 -0.0207  0.0644
23415W        W39489  14.569  13.856  11.943  0.2698  0.1475  0.0734
23416W        W39490  12.214  19.175  10.694 -0.2877  0.1472  0.0113
23417W        W39491  18.232   6.665  13.779 -0.3618 -0.1145  0.1940
23418W        W39492   7.314  11.129  10.014 -0.0374 -0.0157  0.1706
23419W        W39493   3.662  11.520   3.501 -0.0280 -0.1287  0.1915
23420W        W39494  12.623   6.312   2.117 -0.0994 -0.1362  0.3171
23421W        W39495  15.094  12.863  10.837  0.0224 -0.2448  0.2879
23422W        W39496   4.191   0.600   9.428 -0.0050  0.2458 -0.1966
23423W        W39497   9.126  15.155   3.629  0.0068  0.1913 -0.0393
23424W        W39498  17.324  18.635   4.418 -0.2475  0.0621 -0.3193
23425W        W39499  12.899   9.268  10.657  0.0078  0.1614 -0.1832
23426W        W39500   0.475  11.503   0.889 -0.2144  0.2741  0.1956
23427W        W39501   2.252   2.374   0.797  0.2760  0.1216  0.2498
23428W        W39502   0.999   9.274  14.809  0.3373 -0.1750 -0.1292
23429W        W39503  18.308  16.792  11.279  0.2300 -0.2257  0.1230
23430W        W39504   5.835  13.108  12.191 -0.1269 -0.0021 -0.2448
23431W        W39505   9.491   5.575  13.811  0.0006  0.0580 -0.1826
23432W        W39506  13.870   2.173  12.891 -0.0528 -0.4269 -0.2856
23433W        W39507  14.678   1.354  11.174  0.0386  0.1418 -0.1208
23434W        W39508   0.142   2.991   5.367 -0.3044  0.0690 -0.3909
23435W        W39509  11.008   7.127   5.226  0.1532  0.5893  0.0093
23436W        W39510  12.475   1.112  10.902  0.2368 -0.2147 -0.2850
23437W        W39511   2.192  17.157  10.331  0.3399  0.2849  0.1592
23438W        W39512  18.584   1.984   0.522 -0.0367  0.1733  0.0919
23439W        W39513   9.259  15.142   3.156 -0.3435 -0.1430 -0.2207
23440W        W39514   0.338   8.708   3.538  0.0057  0.3825  0.1523
23441W        W39515   6.775  14.925   1.484  0.0661  0.1294 -0.4127
23442W        W39516   7.359  16.778   2.223  0.1220 -0.1232 -0.1223
23443W        W39517   4.621  10.026  12.530  0.1574  0.1397 -0.0143
23444W        W39518  18.325  11.179   1.857 -0.1670  0.1566 -0.2346
23445W        W39519   5.364  14.364  11.617  0.3441  0.0447 -0.1769
23446W        W39520   4.365  11.716  13.810 -0.2860 -0.4802 -0.0733
23447W        W39521  11.980  18.979   2.619 -0.2484  0.3303 -0.4216
23448W        W39522   7.126   3.659   2.264 -0.0347  0.1773 -0.2075
23449W        W39523  10.961   4.708  10.607  0.0288  0.6869 -0.2487
23450W        W39524  16.223   5.772  14.742  0.2091  0.0776  0.2522
23451W        W39525  11.531   3.722  13.917 -0.1432  0.3197 -0.3250
23452W        W39526  11.267   2.796   2.540 -0.3226  0.1950 -0.0246
23453W        W39527  10.018  15.553  13.701 -0.3272  0.2108  0.0534
23454W        W39528   7.419   1.187  11.810  0.2206 -0.0899  0.0122
23455W        W39529  14.279  11.509   0.678 -0.0863 -0.1988 -0.2913
23456W        W39530  18.495  19.286  10.425  0.1851  0.0218  0.0572
23457W        W39531   0.016   0.562  11.662  0.1389  0.1447  0.3291
23458W        W39532  18.484  14.107   3.187 -0.0436  0.3206 -0.0995
23459W        W39533  17.430  18.017  14.780  0.1370  0.3639  0.0757
23460W        W39534   9.988  18.413   4.087 -0.1488 -0.0042  0.2259
23461W        W39535  10.798  14.510  10.623 -0.1546  0.0310 -0.0758
23462W        W39536   4.714  15.163   0.259 -0.1478  0.0266  0.0851
23463W        W39537   4.007  16.008  12.136 -0.1695 -0.0366 -0.1031
23464W        W39538   1.061  17.525   1.211  0.3253  0.0523 -0.1404
23465W        W39539  12.732  11.750  11.530  0.0352 -0.4146  0.0225
23466W        W39540  12.202   4.901   3.268 -0.0907 -0.1271  0.2050
23467W        W39541   0.881   2.750   5.003 -0.3555 -0.4257  0.2347
23468W        W39542  10.665   7.475  11.491  0.1229 -0.1237  0.0244
23469W        W39543   8.047  12.645  12.294 -0.1937  0.1819  0.2478
23470W        W39544  16.809   3.950   0.647  0.1245 -0.2607 -0.1288
23471W        W39545  12.398  10.235   3.086  0.2298 -0.0939 -0.0121
23472W        W39546   5.580   8.103  14.533 -0.1314 -0.0266 -0.1759
23473W        W39547   2.179  12.502   0.073 -0.0574 -0.1325  0.2690
23474W        W39548   0.816  11.356  14.680  0.2087  0.3389  0.0920
23475W        W39549   9.558  13.413   2.284  0.0026  0.0330  0.0033
23476W        W39550   0.892   8.925   0.980  0.0250 -0.0212 -0.2562
23477W        W39551  16.914   6.411  10.888 -0.1124  0.0059 -0.2524
23478W        W39552   2.477   0.806   2.683 -0.0808 -0.0561  0.2087
23479W        W39553   3.545   3.632  11.087 -0.2867 -0.1403  0.1111
23480W        W39554   4.175   2.040  13.561  0.1478 -0.2183  0.2146
23481W        W39555   9.305   0.624   2.564  0.4234 -0.1349  0.0660
23482W        W39556   5.159  14.235   3.632 -0.1597  0.2538  0.2299
23483W        W39557  12.654   5.989   4.282 -0.0376  0.1575  0.1527
23484W        W39558   0.028   0.944  13.142 -0.0635  0.1006  0.0635
23485W        W39559   5.068   1.192   0.408 -0.2795 -0.2079  0.0230
23486W        W39560   2.672   1.484  12.777 -0.0222 -0.1964 -0.0358
23487W        W39561  16.853   3.571  12.775 -0.3284 -0.0251 -0.2080
23488W        W39562   7.475  14.677   3.873  0.1006 -0.0428 -0.0628
23489W        W39563   3.949   7.958  10.695  0.0289  0.1604  0.1368
23490W        W39564  16.373  15.448   2.927  0.0355 -0.0699 -0.2936
23491W        W39565   8.083   0.823  13.148  0.3129  0.0611 -0.0437
23492W        W39566  12.793   5.481   4.267  0.2620 -0.0526  0.1273
23493W        W39567   9.028   1.441  10.383  0.2780 -0.1116  0.0094
23494W        W39568   2.795   7.915   5.051  0.0404 -0.0951  0.2022
23495W        W39569   2.723   3.349  11.005 -0.1742  0.1311  0.0277
23496W        W39570  18.370   4.915  11.652  0.4459 -0.0428 -0.0240
23497W        W39571   7.865   9.768   2.798  0.0640  0.1757  0.1565
23498W        W39572   2.934  12.648  12.756 -0.5443 -0.2518  0.0975
23499W        W39573  10.863   0.623   3.813 -0.0316 -0.4360  0.0506
23500W        W39574   9.372  10.931   2.813  0.1285  0.3000  0.2165
23501W        W39575   4.755   9.354  11.241 -0.0056  0.1608 -0.1926
23502W        W39576  12.660  17.348  11.998  0.1046 -0.2316  0.0425
23503W        W39577   4.865   9.102   2.575  0.0603 -0.2551 -0.4188
23504W        W39578   1.951  16.766   2.752  0.1098 -0.0748  0.0110
23505W        W39579   2.045  14.774   3.946  0.2852  0.1689 -0.0591
23506W        W39580   1.972   6.431   1.109  0.0817 -0.1699  0.0085
23507W        W39581   4.937   9.609   2.714 -0.1103 -0.5518  0.3480
23508W        W39582   5.641   6.224   2.812 -0.0471  0.1653  0.0672
23509W        W39583   9.040  17.515   4.562  0.0234 -0.1085  0.1254
23510W        W39584   5.701   4.123  11.671  0.2205 -0.0183 -0.1612
23511W        W39585  15.492  17.818   3.320  0.2508 -0.1081  0.0655
23512W        W39586   2.270  15.141  13.962 -0.0853 -0.0552 -0.0908
23513W        W39587  12.245   7.160   2.005 -0.1413  0.1396 -0.1644
23514W        W39588   5.512  14.336   3.134  0.2585  0.0136  0.0546
23515W        W39589   2.772   0.650   4.081 -0.4506  0.1982 -0.2211
23516W        W39590   2.395   9.173   0.687  0.0579 -0.3488 -0.0589
23517W        W39591   7.301  17.477  13.052 -0.5376  0.1189 -0.0004
23518W        W39592  14.924   5.833  14.704  0.1519 -0.0366 -0.1816
23519W        W39593  11.770   3.509  10.578 -0.0095  0.1166 -0.3017
23520W        W39594   3.605  15.401   3.690  0.2994 -0.2019 -0.0463
23521W        W39595   4.792   4.318  12.285 -0.0201 -0.1944  0.1372
23522W        W39596  13.852  16.817  11.438 -0.0674  0.2806 -0.0194
23523W        W39597   2.108   3.851  13.052 -0.1901  0.1156  0.3096
23524W        W39598   9.172   0.393   0.195 -0.0842 -0.2290  0.2613
23525W        W39599  12.984   1.973   4.592 -0.4651 -0.1864 -0.0727
23526W        W39600   1.054  12.433  11.998  0.1708  0.3216 -0.0771
23527W        W39601  17.951   0.293   4.950 -0.1925 -0.2424  0.0727
23528W        W39602  18.273   4.980  10.115  0.2348 -0.0523  0.0544
23529W        W39603   2.396  17.280   0.597  0.0847 -0.1392  0.0582
23530W        W39604   1.964   5.135   4.203 -0.1516 -0.0551  0.1474
23531W        W39605  18.304  16.188  13.384  0.0806  0.4601 -0.1324
23532W        W39606   8.782  10.699  11.105 -0.2272 -0.1463  0.2265
23533W        W39607  18.265  12.377  11.708 -0.1639  0.2110  0.0576
23534W        W39608  16.860   0.836  12.994 -0.3635  0.0308  0.0575
23535W        W39609   3.647  13.124   1.446 -0.1533 -0.0813  0.3235
23536W        W39610  14.478   0.260  10.626  0.2823  0.0011 -0.0073
23537W        W39611  17.737   9.612   0.930  0.1374 -0.0289  0.0263
23538W        W39612  12.609  13.236  13.143  0.2925  0.1691 -0.1708
23539W        W39613   3.505  13.265  13.261  0.2362 -0.5069 -0.1390
23540W        W39614   9.660  14.912   2.978 -0.1002  0.2059 -0.0582
23541W        W39615   9.914   7.832   2.987  0.0481  0.1687  0.1580
23542W        W39616   5.829  16.654   5.147  0.2108 -0.0553  0.0308
23543W        W39617  12.134  18.594   3.905 -0.0194 -0.0952 -0.2241
23544W        W39618   5.931  16.565  13.855 -0.1714 -0.1572 -0.5394
23545W        W39619  11.781   3.053   0.512  0.4053 -0.2711  0.2521
23546W        W39620   2.976   6.757   0.185 -0.0196 -0.1616  0.2774
23547W        W39621   8.508   1.109  11.563  0.2468  0.0487 -0.1569
23548W        W39622  10.003   3.044  11.085 -0.0881  0.0451 -0.1682
23549W        W39623   4.180   4.444   1.384  0.0940 -0.2208 -0.1728
23550W        W39624  10.520   4.688  12.394  0.0295 -0.2555  0.0297
23551W        W39625   0.780  15.821  12.254 -0.3947  0.0904  0.1601
23552W        W39626   5.971   4.057   0.760  0.3767  0.2376  0.0499
23553W        W39627   7.953  13.888  12.930 -0.2347  0.3472 -0.1285
23554W        W39628   9.270   6.174   1.928 -0.0993 -0.1840 -0.1216
23555W        W39629   7.280   4.802   2.960  0.2010  0.3982  0.0478
23556W        W39630  17.694  18.224   3.945  0.2262  0.1315  0.1292
23557W        W39631  10.571  15.254  14.337 -0.2857 -0.0609  0.1794
23558W        W39632   8.718   9.918  10.137  0.2525 -0.0274 -0.3333
23559W        W39633   0.007   3.352   1.060  0.0963  0.4053  0.3376
23560W        W39634   5.843   6.151  12.165  0.1244  0.3422  0.0464
23561W        W39635   8.967   5.723  10.846  0.1188  0.0112  0.1221
23562W        W39636  12.083  13.581  15.003 -0.3348 -0.2342  0.3445
23563W        W39637  13.064   1.225  11.749 -0.1003  0.0325  0.0779
23564W        W39638  18.311  12.221   4.197  0.1045  0.1093 -0.1728
23565W        W39639   6.829  15.071  12.619  0.4133 -0.1749  0.0603
23566W        W39640   4.939   8.668   4.282  0.2575  0.1323  0.2681
23567W        W39641  12.016  13.390  10.364  0.0454  0.2228 -0.0093
23568W        W39642   5.677  16.419  10.269  0.5245 -0.2641  0.0533
23569W        W39643   4.739   2.025   3.125 -0.1374  0.1347  0.2211
23570W        W39644  16.047  11.365   2.089  0.0817  0.4594 -0.0847
23571W        W39645  15.732   3.163  13.438 -0.3801 -0.0244 -0.1152
23572W        W39646   1.977  15.496  11.348  0.1160 -0.1186  0.3738
23573W        W39647  17.457  15.286   1.312  0.0217  0.2842  0.0919
23574W        W39648  12.558   6.437  14.453 -0.1894 -0.0329  0.1229
23575W        W39649   3.770  18.888  11.335  0.1106 -0.3206 -0.0053
23576W        W39650   4.386   9.115   1.766 -0.1043 -0.5337 -0.2143
23577W        W39651  11.160   8.517  13.720 -0.0297 -0.0618 -0.3696
23578W        W39652   4.560  17.938   3.611 -0.0387  0.0699  0.1737
23579W        W39653   3.380   8.604  11.046 -0.0331  0.0042  0.4163
23580W        W39654   2.267  14.820   3.050 -0.0255  0.3807  0.1018
23581W        W39655   7.327   4.392   0.363 -0.0446  0.3353 -0.2192
23582W        W39656   0.878   0.625  14.699  0.1969  0.1580 -0.1259
23583W        W39657   8.721  13.912  13.469  0.0434  0.2179  0.1289
23584W        W39658   3.643   0.909   1.278 -0.2889 -0.2319  0.0610
23585W        W39659  14.070   8.713   1.335  0.2473 -0.1406  0.1498
23586W        W39660  11.485  12.076  14.717  0.0256 -0.0300  0.2105
23587W        W39661  11.841  14.960  13.190 -0.0977 -0.0199  0.0922
23588W        W39662  16.062  14.307   1.239 -0.0187 -0.0587 -0.3181
23589W        W39663   4.059  13.512   1.477 -0.0061  0.0529 -0.2371
23590W        W39664   4.480  12.137   1.582 -0.1182 -0.1992 -0.0100
23591W        W39665  15.199   0.222  13.810  0.2927  0.1709  0.3965
23592W        W39666   8.338   2.537   0.457 -0.2521 -0.1546 -0.0342
23593W        W39667   1.955  12.226   4.769 -0.3382  0.2141 -0.0698
23594W        W39668  12.877  14.887   1.414 -0.3952  0.0306 -0.2012
23595W        W39669   8.827   7.341   2.354 -0.1003  0.1099  0.1617
23596W        W39670  11.396  18.100  12.162 -0.0158  0.1123  0.1150
23597W        W39671   1.866   3.236   4.204 -0.0526 -0.0035  0.1457
23598W        W39672   1.804  16.111   4.625 -0.0823  0.5009  0.4548
23599W        W39673   3.111   7.973  13.782  0.1076 -0.2392  0.1388
23600W        W39674   1.211  13.008   1.513 -0.3205 -0.3815 -0.0697
23601W        W39675  13.465  14.130   1.303 -0.0426  0.1643  0.0395
23602W        W39676  10.668   4.612  13.186 -0.0662 -0.2322 -0.3707
23603W        W39677   3.400   3.234   2.945  0.3503  0.1053 -0.0978
23604W        W39678   8.728  10.953   4.585 -0.0206  0.0359 -0.1135
23605W        W39679   9.457  14.319  10.946  0.3313  0.1537  0.0845
23606W        W39680   8.401   5.339   2.510 -0.0308  0.0796 -0.4394
23607W        W39681   3.623   7.899  11.514  0.5729 -0.0542 -0.0132
23608W        W39682  15.660  11.942   1.519  0.2865 -0.2147 -0.1082
23609W        W39683   0.537  18.224  11.711 -0.0380  0.0192  0.0579
23610W        W39684   4.457   4.013   5.182  0.1455 -0.1454  0.0588
23611W        W39685  16.917   1.304   4.484 -0.0714 -0.1755  0.1478
23612W        W39686   0.663  14.430   5.624  0.1406 -0.1694  0.2794
23613W        W39687  15.963  10.207   1.734 -0.0878  0.1502  0.0578
23614W        W39688   3.336  10.791  14.417 -0.1401 -0.0258  0.4442
23615W        W39689  17.565   5.371   2.214 -0.0517  0.0331 -0.0147
23616W        W39690   8.723  16.283   2.558  0.0901 -0.2640 -0.0020
23617W        W39691  13.242   8.940   0.371  0.1590 -0.2662 -0.2491
23618W        W39692   8.376   0.680  11.821 -0.1716  0.0519  0.1713
23619W        W39693   4.363   7.990  13.864  0.3855 -0.0246  0.3973
23620W        W39694  15.567  13.431  11.644  0.2388  0.2277  0.1315
23621W        W39695   5.829   2.699   3.771 -0.1556 -0.1385  0.0654
23622W        W39696   9.984  18.626  10.420 -0.0490  0.3193  0.1179
23623W        W39697   5.258  18.187  10.763  0.1157  0.0572 -0.0647
23624W        W39698   5.682   7.699   0.981 -0.0473  0.3978  0.2693
23625W        W39699   5.072  15.501  10.563  0.0522  0.1175  0.0158
23626W        W39700  19.183  12.058   4.366  0.0392 -0.2418 -0.0908
23627W        W39701   2.959  10.214   2.181  0.1561  0.0369  0.0860
23628W        W39702  12.557  15.598   0.698 -0.2791 -0.0325  0.1806
23629W        W39703  12.767  19.127  14.313 -0.1703  0.1864 -0.0316
23630W        W39704   5.092  14.521  10.579 -0.1830 -0.0792  0.1973
23631W        W39705  18.771  13.612   9.669  0.1210 -0.1775  0.5028
23632W        W39706   0.895  17.581   2.264 -0.0755  0.1284 -0.2376
23633W        W39707   6.211  17.112   3.588 -0.1156 -0.3716 -0.4059
23634W        W39708   9.012  18.400  11.083  0.6315  0.0067  0.0890
23635W        W39709   1.465  10.588  13.062  0.4068  0.0275 -0.0965
23636W        W39710  15.115   5.792   1.031  0.0143  0.1556 -0.2291
23637W        W39711  11.172   8.132   0.306 -0.0599 -0.2730  0.1056
23638W        W39712  18.903   6.150  14.147 -0.1557  0.1308 -0.0389
23639W        W39713  19.278   9.511   3.418  0.4063  0.1415  0.4727
23640W        W39714   2.912   0.376  13.384  0.1460 -0.0180  0.1073
23641W        W39715   6.873   3.969   1.485 -0.0100 -0.5365  0.0739
23642W        W39716   9.336   6.546  11.655 -0.2692  0.1442 -0.1553
23643W        W39717   9.602  10.120   2.188  0.1222  0.0303 -0.0433
23644W        W39718  15.699   5.833   4.209  0.0499 -0.1552  0.0183
23645W        W39719   0.703   8.838   5.538  0.2289  0.3123 -0.0838
23646W        W39720  12.710   5.123   2.419 -0.0321  0.4908 -0.4093
23647W        W39721   0.178   9.977   0.002 -0.3326  0.4338  0.3388
23648W        W39722   8.424   3.909  12.294 -0.2051  0.0907  0.2136
23649W        W39723   7.840  14.397  12.770 -0.2524  0.3205  0.3382
23650W        W39724  18.799  16.128   0.252 -0.0819  0.6548  0.0900
23651W        W39725   8.122   7.850  13.737 -0.1396  0.0210  0.3203
23652W        W39726   7.350   6.104   1.425  0.0266 -0.1696 -0.3752
23653W        W39727   3.848  17.719   0.369  0.0481  0.2180 -0.2107
23654W        W39728  16.396   4.651  13.114 -0.1108 -0.0239  0.0702
23655W        W39729  18.276  16.725   3.533  0.1203 -0.1939  0.3396
23656W        W39730  10.142   0.081   3.634  0.1532  0.3393  0.0382
23657W        W39731  17.103   8.996   4.858  0.3834 -0.5623  0.0833
23658W        W39732   6.722   8.348   2.245 -0.0196  0.0807  0.3129
23659W        W39733   9.319   9.574  10.746 -0.1456 -0.1347 -0.0868
23660W        W39734  11.960  11.740   3.029 -0.0458 -0.1659  0.1208
23661W        W39735  13.684   3.317  13.117  0.2696 -0.1026  0.0877
23662W        W39736  11.145  15.100   4.745  0.1653  0.1281  0.3560
23663W        W39737  16.915   0.566   0.543  0.0364 -0.0258 -0.2290
23664W        W39738  12.432  14.306   1.441  0.0145  0.0265 -0.1148
23665W        W39739   6.140  18.665   3.756 -0.1407 -0.2656 -0.1511
23666W        W39740   0.109  18.122  13.589  0.0448 -0.2397 -0.1169
23667W        W39741   8.969  17.469   1.541 -0.0264  0.1499  0.0978
23668W        W39742  12.343   5.912   1.232  0.0119 -0.2068 -0.0592
23669W        W39743   8.683   5.816   3.700  0.1402  0.0066  0.6283
23670W        W39744   2.407  17.931   4.162 -0.0201  0.1843  0.2108
23671W        W39745   4.375   6.634   4.373  0.0653  0.2610  0.1603
23672W        W39746   8.492  11.390   0.359  0.3292  0.0788  0.1837
23673W        W39747   4.214  13.896  13.962 -0.0444  0.2925  0.1217
23674W        W39748   6.426   7.481   3.781  0.0973  0.3372 -0.0073
23675W        W39749   9.323   7.691   2.791  0.2602  0.0335 -0.0161
23676W        W39750   2.088  18.773   2.708 -0.2687 -0.2344 -0.0054
23677W        W39751  18.553   2.653   2.178 -0.0594 -0.2666 -0.2425
23678W        W39752  16.725   9.834   2.803 -0.2103  0.1517  0.1624
23679W        W39753   1.768   1.967  11.001  0.0839 -0.0853  0.5132
23680W        W39754  11.481  15.992  13.569  0.2656 -0.1222  0.0649
23681W        W39755   5.102  16.275   0.642  0.0876 -0.1432 -0.2318
23682W        W39756  12.316   0.157   4.759 -0.0458  0.1387  0.0523
23683W        W39757   2.611  18.675  12.072 -0.4526 -0.0309 -0.2598
23684W        W39758  11.274  10.663  13.873 -0.1152 -0.0206  0.0686
23685W        W39759   0.114   3.737  14.214 -0.0652 -0.1339  0.0675
23686W        W39760   4.472  17.458  14.026 -0.3187  0.4049 -0.0668
23687W        W39761  13.963   8.650   3.501  0.0377 -0.2668  0.3485
23688W        W39762   9.019  17.776  12.827 -0.0381  0.0947 -0.0867
23689W        W39763  13.132   7.298  13.315 -0.2714 -0.1934  0.3165
23690W        W39764  17.539   0.116  13.668 -0.3055 -0.2956 -0.0609
23691W        W39765   9.001   2.991  12.528  0.0583  0.1106  0.3314
23692W        W39766  13.009   3.885  13.184  0.1315 -0.0733 -0.1039
23693W        W39767   1.971  18.809   4.417 -0.2180  0.1323  0.1593
23694W        W39768  16.183  12.959  11.844  0.0142 -0.3752 -0.0004
23695W        W39769   0.321   4.509  13.264  0.0133 -0.2643  0.0276
23696W        W39770   1.785   4.288  14.761  0.2967  0.0817  0.1633
23697W        W39771   1.124  12.844  12.831  0.0256  0.3017  0.0435
23698W        W39772  15.768  13.990  14.984  0.0664  0.0112 -0.1354
23699W        W39773  16.870   9.614   3.233  0.3384 -0.2635  0.1180
23700W        W39774   0.728   3.924   3.482  0.1844 -0.0229 -0.0458
23701W        W39775  17.043   8.746  11.455  0.4845 -0.1639 -0.1384
23702W        W39776  17.404   9.031   1.710  0.0517 -0.4706  0.0059
23703W        W39777  11.478   6.946   3.087 -0.1918  0.2726  0.2370
23704W        W39778  17.587  16.334   9.893  0.1273  0.2474  0.2474
23705W        W39779  12.552  11.235  10.346 -0.0327  0.0728 -0.2618
23706W        W39780   5.425   1.434   1.550  0.3325  0.1129 -0.2685
23707W        W39781   4.100   8.497  13.341  0.0804  0.1520  0.1546
23708W        W39782   5.220   4.393  12.779  0.3953 -0.0842  0.1733
23709W        W39783  12.487   8.047   4.993 -0.0810 -0.0923  0.1139
23710W        W39784  11.410  17.654   1.509  0.0410  0.1825 -0.1654
23711W        W39785  13.647  19.168   3.331  0.2482  0.2935  0.0693
23712W        W39786  13.493  15.154   2.784  0.1692 -0.0493  0.1538
23713W        W39787   4.090  13.247  10.453 -0.2869 -0.1412 -0.1842
23714W        W39788   7.366  15.904   0.631  0.1392  0.2342 -0.0946
23715W        W39789  13.494  14.682  11.352  0.0902  0.2697  0.1674
23716W        W39790   6.377   5.349   1.488  0.0249 -0.1806  0.2561
23717W        W39791  17.686  15.222   0.546 -0.1580 -0.0148 -0.2708
23718W        W39792  12.472   1.416   2.239  0.0283 -0.0300 -0.0262
23719W        W39793   2.924  12.526   0.805  0.0922 -0.0795  0.0211
23720W        W39794  18.392  18.495  12.786  0.3862 -0.1886 -0.0301
23721W        W39795   1.026  11.865  14.300 -0.1362 -0.1862  0.0157
23722W        W39796  16.317  13.299  10.541  0.0749  0.0149  0.5203
23723W        W39797   2.305  12.334   2.399  0.2459 -0.0297 -0.0437
23724W        W39798  17.482   3.759  11.095 -0.1375 -0.0445  0.0338
23725W        W39799   7.370   7.285   3.340  0.1614 -0.1548  0.2006
23726W        W39800   7.357   5.230   1.705  0.0998 -0.1145  0.3256
23727W        W39801  16.422  12.708  14.555  0.0897  0.0923  0.2977
23728W        W39802   2.944  12.813  11.435  0.1250 -0.1369  0.2332
23729W        W39803   6.511   7.860  10.817 -0.2812  0.3463  0.3220
23730W        W39804  12.148  16.640   2.124  0.2755 -0.3335 -0.0503
23731W        W39805   5.801   2.629  12.278 -0.2885 -0.0702  0.0283
23732W        W39806   0.099   1.572   1.196 -0.0830 -0.0166 -0.2701
23733W        W39807   8.918  12.098  12.237 -0.0581 -0.2363  0.0118
23734W        W39808   5.408  13.655  10.499 -0.2400 -0.0591 -0.0827
23735W        W39809  12.712  17.223   0.326  0.0689  0.0130  0.0920
23736W        W39810   1.679  14.894   0.138 -0.1003 -0.1709  0.0902
23737W        W39811   2.494  18.928  13.097  0.1715 -0.1520 -0.0120
23738W        W39812  15.145   9.137  12.865  0.1376 -0.2958  0.2270
23739W        W39813   4.172  16.300  11.744  0.1494 -0.2070  0.0563
23740W        W39814  18.262   6.157  11.384  0.1194 -0.1981 -0.1735
23741W        W39815   3.870   7.612  14.679  0.1904 -0.1847  0.0144
23742W        W39816  10.105  12.300  14.106  0.2785  0.2382  0.0267
23743W        W39817   1.466   3.144  11.058 -0.4018  0.2372 -0.2494
23744W        W39818   8.113   1.407   4.541  0.0882 -0.1403  0.0694
23745W        W39819  14.302   7.676  11.618 -0.2265  0.1620 -0.2429
23746W        W39820  12.019  15.437   3.898 -0.0396 -0.0058  0.1792
23747W        W39821  11.273  14.743   2.643 -0.0032 -0.3177 -0.0649
23748W        W39822  11.598  13.502   3.377 -0.4191 -0.0124 -0.1574
23749W        W39823  19.140   9.283  10.821 -0.0364 -0.0930 -0.1222
23750W        W39824  16.521  14.131   1.573  0.0447  0.0594  0.1955
23751W        W39825  14.448   0.153   1.237 -0.1270 -0.0483 -0.0874
23752W        W39826   4.106  11.032   3.418 -0.0155 -0.0448  0.3257
23753W        W39827   0.898   7.080  12.596  0.3088 -0.4821  0.1784
23754W        W39828  18.480  11.284  12.872  0.0496  0.2478  0.0290
23755W        W39829  17.190  18.457   3.958  0.1119  0.1039  0.0825
23756W        W39830   5.332  15.830   3.993 -0.0179 -0.4711  0.2198
23757W        W39831  14.939  17.464   0.759 -0.0319  0.2204  0.1918
23758W        W39832  10.936   9.082  10.097 -0.1103 -0.3843  0.0063
23759W        W39833   6.339   5.768   2.442 -0.0340  0.0942  0.0032
23760W        W39834  17.676  16.260   1.645  0.0311 -0.0253  0.2986
23761W        W39835  16.949   7.934  13.349  0.3199 -0.1863 -0.1342
23762W        W39836  17.085  11.380   2.533  0.1634  0.4874 -0.0483
23763W        W39837  18.754  12.931  14.130  0.3131 -0.4363  0.0631
23764W        W39838  11.255  13.800  13.953 -0.1786 -0.3479 -0.2541
23765W        W39839  15.014  13.260   1.685  0.2178  0.1246 -0.2154
23766W        W39840   3.228   2.733   4.324  0.0896 -0.0866 -0.0387
23767W        W39841  15.582  17.381   1.714  0.1952 -0.0898 -0.1515
23768W        W39842  13.063  14.503  13.848 -0.0231 -0.1087 -0.2215
23769W        W39843   7.952  14.007   4.319  0.1634  0.1312  0.0475
23770W        W39844   9.590   5.089   3.706 -0.0626  0.1473 -0.0949
23771W        W39845   6.501   1.563  11.627 -0.1330 -0.0400  0.0996
23772W        W39846  15.662   0.804  14.181  0.3010  0.2627 -0.0728
23773W        W39847   2.326  17.364  14.322  0.1378  0.0300 -0.1886
23774W        W39848  17.663  13.130   4.950  0.2015  0.1305  0.2438
23775W        W39849  15.634   8.544   4.610 -0.1750  0.0771 -0.1602
23776W        W39850   2.058  13.381  13.483  0.1769  0.0108  0.0602
23777W        W39851  14.268  16.494   2.574 -0.5298 -0.0604  0.1862
23778W        W39852  14.640  15.921   5.483  0.1094  0.0429 -0.4292
23779W        W39853  18.571  17.202   1.229  0.0531 -0.3779  0.0922
23780W        W39854   1.426   5.176  11.280  0.1232 -0.1545 -0.1888
23781W        W39855  11.934   8.930   1.738 -0.0617  0.1937 -0.1197
23782W        W39856   8.355   5.854  12.871  0.1104  0.3009 -0.3078
23783W        W39857  10.237  17.067   9.600  0.1800 -0.0981 -0.0147
23784W        W39858   2.865  13.487   4.725  0.1484 -0.0050 -0.5538
23785W        W39859  16.192  15.434   1.576 -0.1053 -0.1370  0.3595
23786W        W39860   8.203  15.387   4.629  0.0520 -0.2638 -0.1237
23787W        W39861   3.930   7.239  11.025  0.0745  0.4045  0.1854
23788W        W39862  11.189   5.074   1.947  0.1084  0.1905  0.1246
23789W        W39863   5.087   1.972  11.722 -0.1122 -0.2656 -0.0837
23790W        W39864  17.590  11.863   0.905 -0.3343 -0.3076  0.1517
23791W        W39865   8.823   3.618  11.247 -0.0634  0.4047 -0.3356
23792W        W39866  15.983  17.898  12.547 -0.1544 -0.2249  0.0548
23793W        W39867  19.226  14.671   5.493  0.1143 -0.2540 -0.0830
23794W        W39868  13.593   6.412   2.641  0.3640 -0.0949  0.2335
23795W        W39869  11.144   8.536   1.712  0.1580  0.0725 -0.3553
23796W        W39870  16.753  15.824   0.628 -0.0387  0.0199 -0.0057
23797W        W39871  18.411   0.893  10.824 -0.0643  0.3682  0.0188
23798W        W39872  11.048  10.049   5.273 -0.1566  0.1488 -0.0724
23799W        W39873   3.823   5.438   0.315 -0.0700  0.0501  0.0798
23800W        W39874  18.896   1.045  10.918  0.2500 -0.3547 -0.1274
23801W        W39875   3.778  12.711  14.121 -0.1839  0.0320  0.0911
23802W        W39876   1.274   0.339   3.966  0.2698  0.0212 -0.0912
23803W        W39877   4.195   4.790   5.450  0.4204  0.0204  0.0285
23804W        W39878  15.064   6.477   1.047  0.2965 -0.1931  0.0885
23805W        W39879  10.467   0.338  11.582 -0.3486 -0.1682  0.0558
23806W        W39880   0.529   9.689  13.940  0.1277  0.0318 -0.0823
23807W        W39881   8.048   7.500  14.109 -0.1150 -0.1524  0.0373
23808W        W39882  19.069   6.710   4.207 -0.4042  0.0551  0.1636
23809W        W39883   1.839   0.930  10.940 -0.0132  0.2099  0.1811
23810W        W39884  12.124   1.810   4.373 -0.0182 -0.3349  0.4581
23811W        W39885  12.369  12.941   3.442  0.1423 -0.0722 -0.0027
23812W        W39886   2.446  14.276  10.616  0.1504  0.0912 -0.2325
23813W        W39887  11.568  19.120   1.709  0.0706 -0.3435  0.1718
23814W        W39888   3.717   1.640   0.129  0.0251 -0.0253 -0.0048
23815W        W39889   7.539   2.421   3.662 -0.6344 -0.0641 -0.1049
23816W        W39890  18.437   8.306  14.551 -0.0361 -0.1579  0.1686
23817W        W39891   9.846   0.958  12.448  0.1716 -0.0348 -0.0492
23818W        W39892   0.844  15.146  12.407 -0.2204  0.2823 -0.1587
23819W        W39893  16.887   9.204  12.725  0.1501 -0.1305 -0.2867
23820W        W39894   3.800   9.526  14.190 -0.3229 -0.0476  0.0302
23821W        W39895  13.256  11.385  14.794 -0.0168 -0.5004  0.0629
23822W        W39896   2.101  16.079  14.104 -0.1557  0.1017  0.3740
23823W        W39897  14.993   8.936   0.203  0.1342 -0.1163  0.2387
23824W        W39898   4.496  10.935   3.054 -0.3849  0.2012 -0.1039
23825W        W39899   7.293  11.178  12.412  0.2266 -0.2451  0.0622
23826W        W39900  11.348   1.572  11.010  0.1082 -0.0546 -0.2814
23827W        W39901   9.538  15.776   4.224  0.1654  0.3129  0.0739
23828W        W39902  13.500  13.654   3.404 -0.1696  0.0372  0.0314
23829W        W39903   4.439   6.134  14.677 -0.0423 -0.0489  0.0195
23830W        W39904   2.810   0.815  14.570  0.0609 -0.0525  0.2072
23831W        W39905   9.551   8.506   2.605  0.2862  0.0557 -0.2713
23832W        W39906  15.095   8.976   1.726  0.0565 -0.2997  0.2716
23833W        W39907  18.788   0.045   2.079  0.3141  0.1310 -0.0515
23834W        W39908  16.301  12.467   5.741  0.0900 -0.1631  0.4113
23835W        W39909  15.993   3.673  13.165  0.2513  0.0816  0.0317
23836W        W39910   0.309   9.239  12.864 -0.0526 -0.5098 -0.0473
23837W        W39911   2.587   3.599   2.741 -0.1689 -0.2780 -0.1180
23838W        W39912   0.073   3.256  14.112  0.2812 -0.1357 -0.0558
23839W        W39913   4.945  17.622   3.408  0.1485  0.3340  0.1453
23840W        W39914  11.597   7.550  12.314  0.1838 -0.0053  0.4426
23841W        W39915  12.541   7.708   0.687 -0.3096 -0.2124 -0.1382
23842W        W39916   0.970   2.410  12.199  0.1314  0.2900  0.0291
23843W        W39917  16.824  13.297   4.156  0.3844  0.0064 -0.1431
23844W        W39918   9.763  14.255  12.659  0.1532  0.0041  0.1654
23845W        W39919   8.393  12.743   2.201 -0.0085 -0.1965  0.1692
23846W        W39920   9.215  14.406   0.771  0.0408 -0.0565 -0.1395
23847W        W39921  13.327   4.608  11.367  0.1112  0.2898 -0.4974
23848W        W39922   2.186  18.809   4.818 -0.0802  0.0623  0.2704
23849W        W39923  17.038   8.460   4.861 -0.0991 -0.3791  0.0593
23850W        W39924   4.304   5.256  13.202  0.1007  0.0711  0.2898
23851W        W39925  16.861  18.392  12.954  0.3675  0.2288  0.2056
23852W        W39926  14.180   3.985   5.584  0.4750 -0.0960  0.1483
23853W        W39927  17.616   5.597   0.240 -0.1561  0.1789 -0.0948
23854W        W39928  17.829  14.507   4.553 -0.3724 -0.1888 -0.0429
23855W        W39929  13.987   5.964   2.802  0.1955 -0.0785 -0.3824
23856W        W39930  11.709  16.258  11.017 -0.0509 -0.2011 -0.2746
23857W        W39931   7.493   9.291  12.435  0.1446 -0.0047 -0.1752
23858W        W39932  17.270  17.175   4.652 -0.0676 -0.1900 -0.0846
23859W        W39933  18.323   1.329  14.807  0.3530  0.1178 -0.0951
23860W        W39934   3.706   0.575   3.096  0.1677 -0.0062 -0.1954
23861W        W39935   4.107  16.806   4.706  0.4757 -0.0539 -0.2562
23862W        W39936  13.402   7.394   2.036  0.0032  0.0399 -0.0120
23863W        W39937  17.920   8.732   2.882  0.3384  0.3035  0.4182
23864W        W39938  16.948  17.300   5.062 -0.1426  0.0592  0.4344
23865W        W39939  11.227  10.029   2.385  0.0945 -0.0587 -0.0874
23866W        W39940   4.459   9.645  12.866  0.3416 -0.0426 -0.1483
23867W        W39941   0.627   6.478   3.594  0.0886  0.2800  0.2220
23868W        W39942   0.978   1.408  14.634 -0.0840  0.2015 -0.2251
23869W        W39943   0.212  19.111   0.012  0.1403  0.1439  0.0829
23870W        W39944   7.598   0.274   3.449  0.2689  0.2205 -0.2576
23871W        W39945  15.531  15.087  12.550 -0.2156  0.2517 -0.0198
23872W        W39946   0.419  15.728  13.581 -0.0466  0.1055  0.0088
23873W        W39947  15.506   4.194   3.707 -0.0226  0.4292  0.0563
23874W        W39948   2.307  10.123   1.713 -0.2622  0.0497  0.0023
23875W        W39949   3.697  10.148   5.531  0.5726  0.0703 -0.3081
23876W        W39950   0.987   2.967   0.892 -0.5056  0.1208  0.1953
23877W        W39951   9.436  18.187   1.162  0.0115  0.0599  0.1492
23878W        W39952   4.761   1.277  14.250 -0.1064  0.1119 -0.1019
23879W        W39953  17.799   9.883   1.408 -0.0085 -0.1294 -0.0062
23880W        W39954  12.954  14.397   3.583 -0.1215  0.1588 -0.0552
23881W        W39955  17.292  13.601  12.638 -0.3311  0.1209 -0.0137
23882W        W39956   9.626   5.910   2.121  0.1408 -0.0916 -0.2148
23883W        W39957  15.144  15.220  11.643  0.1975 -0.4071 -0.0179
23884W        W39958  11.826  16.205   4.885  0.1167  0.0201 -0.2083
23885W        W39959   7.816   1.923   2.510  0.1457 -0.0868 -0.3042
23886W        W39960   4.361   5.530   1.196  0.0868  0.2034  0.0790
23887W        W39961   8.580  18.742  12.073  0.1173  0.1946  0.1116
23888W        W39962   5.428   1.716  10.931 -0.1397  0.3485 -0.0905
23889W        W39963   4.693   7.962  12.826  0.0521  0.0823  0.0537
23890W        W39964   2.050   9.528   0.330 -0.0240  0.0170  0.0143
23891W        W39965  10.211  14.216   9.937 -0.0119  0.0671  0.1664
23892W        W39966   8.904  15.881   1.529 -0.0318  0.2447 -0.0912
23893W        W39967  14.814   7.920  11.863  0.2982  0.2472 -0.0470
23894W        W39968  12.915  12.957   1.180 -0.1958 -0.1640 -0.2464
23895W        W39969  14.324   7.129  10.649  0.0199  0.1673 -0.0232
23896W        W39970  13.035  17.374  11.223 -0.2280 -0.2398  0.3931
23897W        W39971   6.764   8.740   3.452  0.0838  0.1282 -0.1659
23898W        W39972   9.560   8.314   3.470  0.0088  0.0143 -0.2065
23899W        W39973  18.724   2.559  12.365  0.2326  0.3601  0.0356
23900W        W39974  16.321  18.944   3.733  0.0075 -0.0543 -0.2069
23901W        W39975   1.075  14.639   0.607 -0.1824  0.2221 -0.0491
23902W        W39976   2.834  10.404  10.578  0.0862  0.2855  0.1586
23903W        W39977   4.045  16.805  11.824  0.0961  0.1382 -0.0341
23904W        W39978   4.004   9.247   2.685  0.1326  0.0486  0.1377
23905W        W39979  10.110  18.035  10.439 -0.1535 -0.2044 -0.1730
23906W        W39980   5.658   3.845  14.259  0.1949 -0.0034  0.2588
23907W        W39981   5.389   3.755   1.854  0.1627 -0.1577 -0.0086
23908W        W39982   7.573  14.728   4.693 -0.2197  0.0007 -0.2071
23909W        W39983  17.926  10.239  14.413  0.5060 -0.0114  0.2274
23910W        W39984  16.709   7.837   5.153  0.1797  0.0756  0.0801
23911W        W39985  12.255   3.661  14.239 -0.2165 -0.1025  0.3187
23912W        W39986   3.455   0.043  10.242  0.2547 -0.0711 -0.2135
23913W        W39987  14.262  17.040   2.521  0.1978  0.1212 -0.0074
23914W        W39988  17.670  15.371  10.614 -0.1464 -0.1115  0.0145
23915W        W39989   8.678   3.067  12.906  0.0504 -0.0083 -0.2058
23916W        W39990  13.884  12.929  11.097  0.3483 -0.3641 -0.1916
23917W        W39991   3.347  14.253  14.946  0.0037 -0.0551  0.3133
23918W        W39992   6.120   8.716  12.576 -0.2499  0.4987  0.0047
23919W        W39993  18.130  17.482  10.742  0.0431 -0.0138  0.1468
23920W        W39994  13.991  10.677  10.980  0.2043 -0.0216 -0.0761
23921W        W39995   5.216   4.451  12.051 -0.1485 -0.4555  0.2519
23922W        W39996  16.834  18.228   0.229 -0.1211 -0.1269 -0.4745
23923W        W39997  14.012   1.344   5.342 -0.0035 -0.2772  0.1449
23924W        W39998  14.028  17.150  13.587  0.0463  0.2713 -0.1595
23925W        W39999  12.746  18.118  13.699  0.1682  0.2065  0.1607
23926W        W40000   4.098  12.863   3.244  0.0958 -0.0637  0.1154
23927W        W40001   1.686  19.303   4.249 -0.1249 -0.0714 -0.0293
23928W        W40002  13.795  12.674  14.735 -0.1798  0.0694 -0.0527
23929W        W40003  15.875  14.547   4.774 -0.0637  0.0321 -0.0323
23930W        W40004   8.255  10.452  14.043  0.1854 -0.0090  0.1714
23931W        W40005  13.215   6.252  12.244 -0.1496 -0.2086 -0.2591
23932W        W40006  12.873  10.514   9.432  0.1567  0.0590 -0.1154
23933W        W40007  14.590   0.303  13.669 -0.0211 -0.2414  0.0512
23934W        W40008   9.476  17.317   0.114 -0.0237 -0.1139 -0.1965
23935W        W40009  14.792  18.365   5.459 -0.0518  0.1231 -0.0397
23936W        W40010  11.773   3.147  10.212 -0.2466 -0.1577 -0.3110
23937W        W40011  15.728  13.566   9.432 -0.1436 -0.2510  0.0393
23938W        W40012  19.274   8.034  12.962 -0.0727  0.0253 -0.1549
23939W        W40013  12.943  10.315   1.345 -0.0727 -0.0707 -0.2808
23940W        W40014  14.625  19.062  14.625  0.0064  0.2299 -0.1522
23941W        W40015   4.921  11.331  11.425  0.1241 -0.1210 -0.0774
23942W        W40016   5.524   7.038  14.509 -0.2388  0.0707 -0.0121
23943W        W40017   0.546  13.258   4.412  0.0918  0.0518  0.1694
23944W        W40018  12.809  13.340   1.794  0.1082 -0.1932  0.3027
23945W        W40019   0.256  16.401  11.134  0.1995 -0.1839 -0.1886
23946W        W40020   7.100   5.043  11.855  0.0059 -0.1381  0.0820
23947W        W40021  15.256   4.900   9.994 -0.1321  0.1049 -0.1291
23948W        W40022   5.790   4.528  12.840  0.2690 -0.2782  0.2378
23949W        W40023  14.824   8.380   2.356  0.0519  0.2348 -0.2966
23950W        W40024  14.131   8.348  10.769  0.1633 -0.0122 -0.1582
23951W        W40025   1.120   0.870   0.088  0.0378 -0.2707 -0.5915
23952W        W40026  13.128   5.140   1.884  0.0493 -0.3335  0.0184
23953W        W40027   7.545   4.918   1.237  0.0556  0.0706 -0.0281
23954W        W40028  14.332   5.897   4.700  0.4087  0.3955 -0.2385
23955W        W40029   7.705  12.811  11.258  0.0327 -0.2435  0.2736
23956W        W40030   9.381  14.671   2.535  0.2343  0.3536  0.0461
23957W        W40031  15.946   8.065   0.610  0.3515 -0.0212  0.0462
23958W        W40032  18.088  14.164  10.881  0.2836  0.2604 -0.1484
23959W        W40033   7.661  14.880  13.039  0.1347 -0.0697 -0.0972
23960W        W40034   6.530   4.122   4.807 -0.0307 -0.0972 -0.2737
23961W        W40035  13.758  18.903   1.333  0.3417 -0.0634 -0.0137
23962W        W40036  10.758  10.892   1.444  0.3136 -0.1096 -0.2659
23963W        W40037  11.355   8.987   9.314 -0.2017  0.0772  0.2455
23964W        W40038   8.541   9.059  12.345  0.1816  0.1193 -0.0892
23965W        W40039  18.858  11.408  10.326 -0.0544 -0.0361 -0.4098
23966W        W40040   1.025  16.553   3.870 -0.0577 -0.0400  0.0807
23967W        W40041  17.121  13.080  12.970 -0.1237 -0.2585  0.0660
23968W        W40042  16.996   3.880  11.037  0.1217 -0.0502  0.4302
23969W        W40043  14.110   3.877   0.814 -0.2925  0.1632 -0.2383
23970W        W40044   0.805   4.553   2.981 -0.1076 -0.1133 -0.0126
23971W        W40045   5.491  12.623   4.753  0.0869 -0.0272  0.2746
23972W        W40046  12.948   6.985   2.894  0.1519  0.1953  0.1626
23973W        W40047   4.924  11.378   4.425  0.2224  0.1294 -0.0626
23974W        W40048  11.158  11.975   0.561  0.0467 -0.0159 -0.0218
23975W        W40049  15.305   1.906   3.893 -0.1314 -0.1386  0.1535
23976W        W40050   6.245   1.701  12.464  0.2365  0.0520 -0.1550
23977W        W40051  17.389  16.288   0.293 -0.0559  0.2413 -0.0138
23978W        W40052   2.073  17.691  13.511 -0.0745  0.0223 -0.1435
23979W        W40053  14.822   7.437   2.156 -0.1458  0.3627 -0.0861
23980W        W40054   2.800  17.257  13.588 -0.0034  0.0063  0.1063
23981W        W40055  12.171   2.760   5.168 -0.2490 -0.0874  0.1755
23982W        W40056  12.173   5.710   5.091 -0.0306  0.4357 -0.0797
23983W        W40057   8.115  10.703  12.262  0.0255  0.2926 -0.0378
23984W        W40058   6.590   5.751  10.891  0.1582 -0.3132  0.0639
23985W        W40059   6.457  18.490  11.956  0.0224  0.2271 -0.2933
23986W        W40060   8.724   4.081  14.557 -0.3403 -0.1872 -0.2177
23987W        W40061   7.326  15.011  10.101 -0.0720  0.1778  0.0548
23988W        W40062  12.941   5.896   4.690 -0.1169 -0.2674  0.0806
23989W        W40063   0.435   9.590   2.458 -0.1567 -0.0160 -0.1594
23990W        W40064  10.678  12.140   0.435 -0.2583 -0.1060 -0.1134
23991W        W40065  17.208   2.184  11.549 -0.0896 -0.1348 -0.2305
23992W        W40066   7.477   5.949   2.100  0.4075  0.2320  0.4918
23993W        W40067   3.611   4.975   4.887 -0.0084 -0.1390  0.0236
23994W        W40068  11.848   4.635  12.989  0.0695  0.1215  0.0429
23995W        W40069   4.752   7.289   1.650  0.2230 -0.0501  0.0788
23996W        W40070   4.077  11.274  10.068  0.0802 -0.0513  0.0255
23997W        W40071  17.233   4.032  11.432  0.0951  0.0423 -0.1936
23998W        W40072  15.629  10.264  10.414  0.3491 -0.2943  0.1390
23999W        W40073  12.612  15.807  11.895 -0.0759 -0.1304 -0.3552
24000W        W40074  11.027   2.481   8.942  0.0881 -0.1361 -0.3169
24001W        W40075  18.664   0.280  13.256 -0.0137 -0.1899 -0.2792
24002W        W40076   8.715  11.193   1.021  0.0490  0.1828 -0.1541
24003W        W40077   3.471  18.483   0.242 -0.1799  0.1542 -0.5713
24004W        W40078  18.809  18.317  14.388  0.1990 -0.0324  0.0505
24005W        W40079  13.152  16.245   0.779 -0.1540 -0.4697  0.2889
24006W        W40080   0.052   6.989   3.095 -0.1297 -0.3293 -0.0670
24007W        W40081  14.522   4.700   0.103 -0.1951 -0.0280 -0.2350
24008W        W40082   8.744  16.933  10.905  0.0532  0.3883  0.2699
24009W        W40083   8.414   3.697  13.698 -0.1175 -0.1067 -0.0521
24010W        W40084   5.183  18.710  11.326 -0.1420 -0.1295  0.1112
24011W        W40085  12.648   6.385   3.674 -0.0515 -0.1817 -0.0049
24012W        W40086  14.031  18.993  14.746  0.0669 -0.1972  0.1770
24013W        W40087   2.763  12.375   2.069  0.0995  0.0365  0.0595
24014W        W40088  12.279   8.759   4.205 -0.3737  0.0600 -0.0682
24015W        W40089  10.482  16.115   4.688  0.1911  0.4039  0.0441
24016W        W40090   7.173   6.662   0.307 -0.2214  0.1379  0.4160
24017W        W40091  18.509  13.470  14.119 -0.1048  0.1468 -0.1464
24018W        W40092  10.587  19.223  13.652 -0.0138 -0.3180  0.2082
24019W        W40093   8.496   8.703  14.669  0.1938  0.1750 -0.1213
24020W        W40094  13.897   0.583   5.460 -0.0557  0.0813 -0.1645
24021W        W40095   3.703  16.958   3.951 -0.0623 -0.0282 -0.3611
24022W        W40096   2.127   5.120   2.195 -0.0560  0.0070  0.0457
24023W        W40097  18.518   5.051  10.574 -0.1126 -0.1032 -0.4748
24024W        W40098  10.499   7.551  12.570 -0.1079 -0.0012 -0.1272
24025W        W40099   0.690  12.986   3.654 -0.0207 -0.2451  0.0740
24026W        W40100   6.191   9.139   0.753  0.1079  0.0018 -0.3632
24027W        W40101  16.590  18.285   1.979 -0.2855 -0.1685 -0.0502
24028W        W40102  18.861   8.243  11.196 -0.1111 -0.0950 -0.0437
24029W        W40103   4.291   0.202   0.424 -0.0320 -0.1367  0.3143
24030W        W40104  11.530  15.149  10.855  0.0608 -0.4057 -0.1358
24031W        W40105  14.569  14.767  12.266 -0.0557 -0.4602  0.2953
24032W        W40106  10.623  11.838  14.219  0.0448  0.0072  0.1917
24033W        W40107   2.556  16.904   1.567 -0.1662 -0.2281  0.1308
24034W        W40108  15.775  16.981  10.844 -0.0842  0.0575  0.1577
24035W        W40109  16.785   6.891   4.866  0.0615 -0.0230 -0.0251
24036W        W40110   1.733   0.524  14.244 -0.4060 -0.1365 -0.4491
24037W        W40111  10.052   1.544   1.764  0.0522 -0.1134 -0.0379
24038W        W40112   9.833   5.565  11.785  0.1120  0.0835  0.0660
24039W        W40113  13.798  17.492   2.984  0.1960  0.0522 -0.0234
24040W        W40114   7.316  14.105   2.739 -0.3113  0.0607  0.2741
24041W        W40115  14.105   0.901   5.085 -0.1362 -0.3694 -0.2055
24042W        W40116   9.399   2.617   2.774  0.0960  0.1078  0.1402
24043W        W40117   3.811  14.851  11.913  0.0389  0.0436 -0.0883
24044W        W40118   7.660   9.136  14.463  0.0116  0.1100  0.6169
24045W        W40119  18.529   1.074   3.057 -0.0651 -0.3209 -0.0531
24046W        W40120   2.883   0.389  12.052 -0.1292 -0.2709  0.1759
24047W        W40121   2.568  10.899  13.209  0.2187 -0.0466  0.2390
24048W        W40122   1.847  16.506   4.269 -0.1407 -0.0962  0.1190
24049W        W40123   4.777   8.974   1.548  0.1718 -0.3419 -0.1052
24050W        W40124  15.755   6.285   2.146  0.0794 -0.2806  0.1803
24051W        W40125   5.619  16.039   2.144 -0.3434 -0.2373  0.2134
24052W        W40126   5.855   1.096   0.840 -0.0576 -0.1382 -0.3189
24053W        W40127   7.660   6.285   9.602  0.2706  0.0865  0.0151
24054W        W40128   4.036   3.834  14.991 -0.1853 -0.2329  0.1276
24055W        W40129  11.395   0.500  14.167  0.0781 -0.0791  0.0504
24056W        W40130  15.600   6.651  11.338  0.0756  0.1383  0.2878
24057W        W40131  17.770   3.033  12.726  0.1295 -0.0213  0.0928
24058W        W40132   0.727  15.627   3.461 -0.3724 -0.3064 -0.1991
24059W        W40133  14.324  14.209  11.561  0.0504 -0.0142  0.0621
24060W        W40134   9.465  19.204  12.517  0.2219 -0.1819  0.2658
24061W        W40135  18.708   9.798  11.236  0.1253  0.0193 -0.2207
24062W        W40136  16.085  18.493   4.934  0.0458 -0.2157 -0.0093
24063W        W40137   6.598   2.737   0.305  0.2078  0.0459  0.2015
24064W        W40138   9.861   0.063   5.111  0.1932  0.2484  0.0399
24065W        W40139   1.057   0.818  10.618  0.1716 -0.3837  0.0276
24066W        W40140  15.617   9.350  13.574  0.0573  0.1794 -0.2114
24067W        W40141  17.634   5.794   1.889 -0.0566  0.0504  0.1273
24068W        W40142  10.182  15.671   2.377 -0.1402 -0.0577  0.1566
24069W        W40143   5.800   0.272  11.894  0.0520  0.0851 -0.2780
24070W        W40144   4.178   4.254   4.819 -0.1008  0.4010  0.2153
24071W        W40145   2.719  18.934   1.145 -0.1558 -0.1428  0.0987
24072W        W40146   8.892  12.688  14.528  0.1155 -0.5701 -0.1746
24073W        W40147   1.307  17.781   0.816  0.0413  0.0092  0.2930
24074W        W40148   0.592  14.569   2.507 -0.0868 -0.2413  0.0265
24075W        W40149   2.657   7.534   0.814  0.0093 -0.0007 -0.0633
24076W        W40150  12.497  10.661  13.068  0.0314 -0.1305 -0.1058
24077W        W40151   4.637  11.185   0.810  0.1320 -0.0227 -0.0489
24078W        W40152   0.096   2.850   1.228  0.1365  0.1767  0.3959
24079W        W40153  12.192  11.544  12.414 -0.1480  0.0832  0.3037
24080W        W40154  18.181   9.813  13.575  0.0117  0.0218 -0.0587
24081W        W40155   2.810   5.792  12.210  0.1010 -0.3596  0.1716
24082W        W40156  13.375   5.011  10.485 -0.1886 -0.1230  0.0249
24083W        W40157   5.658  14.737  13.179  0.1677 -0.2280  0.2637
24084W        W40158   6.284   2.810   4.999  0.1511 -0.0016  0.0158
24085W        W40159   9.014   2.886  10.834  0.2924  0.0077  0.2617
24086W        W40160   9.824   4.528   1.769 -0.2871 -0.3511  0.1512
24087W        W40161   2.093   1.294   5.466 -0.0335 -0.0210 -0.2813
24088W        W40162  10.140   6.938  13.764 -0.2060 -0.0966 -0.1295
24089W        W40163  13.043  12.886   1.697  0.6259 -0.2013  0.0763
24090W        W40164   6.038  16.619  11.892 -0.1383  0.3671  0.0135
24091W        W40165  13.562  13.589   2.095 -0.3586  0.3174 -0.0377
24092W        W40166  15.632  14.656   2.617  0.1850 -0.4187  0.2252
24093W        W40167   2.528  13.527   5.164  0.2941 -0.0517  0.0732
24094W        W40168   2.422  12.024   0.166  0.0108 -0.0615  0.0216
24095W        W40169   8.883   9.082   4.401  0.1386 -0.2264  0.2648
24096W        W40170   4.470   8.361   0.347  0.0599 -0.0139 -0.1030
24097W        W40171   2.781  12.606   2.601  0.0381  0.2868 -0.1556
24098W        W40172  11.244   0.901   0.914 -0.1403  0.0832  0.1561
24099W        W40173   2.364   6.534   2.014  0.0352 -0.1273 -0.1065
24100W        W40174  13.788   4.732  10.642  0.0313 -0.2169 -0.2383
24101W        W40175  15.703   7.046  11.036 -0.0286  0.3635  0.0820
24102W        W40176   0.061  17.653  13.286  0.1838 -0.0218  0.0961
24103W        W40177   2.956   6.486  13.943  0.3142 -0.2347 -0.3377
24104W        W40178   1.766   1.115   1.571 -0.2642  0.0970  0.1371
24105W        W40179   3.176   4.630   1.295  0.0100  0.0202 -0.1511
24106W        W40180   9.959   1.586   0.411 -0.3008  0.0320  0.0374
24107W        W40181  13.962  14.783  12.891 -0.1447 -0.2306  0.1207
24108W        W40182   0.468  18.550   0.058 -0.2199  0.1596  0.1036
24109W        W40183   6.395   9.389   0.235  0.1740 -0.2480 -0.2196
24110W        W40184   6.538  11.562   0.950  0.2401  0.2858 -0.0074
24111W        W40185   6.125  18.715  14.120 -0.2794 -0.1079 -0.0322
24112W        W40186   6.649  17.269   3.829 -0.1754  0.1800 -0.2213
24113W        W40187   6.550   3.375  14.813 -0.1094 -0.0705  0.2335
24114W        W40188  17.263  11.872   1.796  0.2231  0.0560  0.0611
24115W        W40189  17.969  11.322   1.488  0.0521  0.2391  0.2358
24116W        W40190   9.001  15.348   2.481 -0.1952  0.1146 -0.0897
24117W        W40191   3.612   0.769  13.929  0.1251  0.1903  0.0593
24118W        W40192  13.494  12.257   9.711  0.1130 -0.0097 -0.2555
24119W        W40193   6.436  16.624   4.176 -0.0165 -0.3854 -0.0699
24120W        W40194   6.781   1.580   3.165  0.0850 -0.3057  0.0563
24121W        W40195   2.745  15.951   2.668  0.3962 -0.0660  0.1216
24122W        W40196  13.837  17.944  12.257 -0.0713 -0.0295 -0.2001
24123W        W40197   4.445   9.947   3.378  0.4471 -0.2718  0.0693
24124W        W40198  11.796   2.057   2.006  0.0227  0.0476  0.0811
24125W        W40199  10.251  14.028  12.151  0.1807 -0.0674 -0.1736
24126W        W40200   0.691   0.369  13.156  0.0025 -0.2783 -0.2442
24127W        W40201  12.763  11.276   5.002  0.0783  0.0256  0.0024
24128W        W40202   0.490  13.810  14.760  0.1278 -0.0892  0.1245
24129W        W40203   2.675   6.943   2.374  0.0867  0.1045  0.6000
24130W        W40204   0.889   6.044   6.067  0.1081  0.0577  0.0807
24131W        W40205   6.618   8.988   4.795 -0.2180 -0.0089 -0.0579
24132W        W40206  18.832  11.271   4.259  0.0648 -0.1460 -0.0543
24133W        W40207   6.410  19.260  10.771  0.0557 -0.1927  0.0983
24134W        W40208   6.501   0.447  13.843  0.1786  0.5352 -0.0143
24135W        W40209   5.532   0.684  13.551  0.0788  0.1692 -0.0551
24136W        W40210   3.969   6.429   1.757  0.1681 -0.1674 -0.0082
24137W        W40211  14.845   9.874   1.112  0.3783  0.1470  0.3711
24138W        W40212   0.536  12.208   3.975 -0.2289 -0.2162 -0.2779
24139W        W40213   6.790  16.215  12.833 -0.0601 -0.0497  0.0830
24140W        W40214  12.710  13.072   3.740 -0.0938  0.1253  0.1495
24141W        W40215  14.660  17.417   2.498 -0.1082  0.0829  0.2703
24142W        W40216  14.586  11.750   1.044 -0.2186 -0.1366 -0.0479
24143W        W40217  13.797   1.474  14.046 -0.1410  0.1882  0.1405
24144W        W40218   4.312  11.654   1.696 -0.1220 -0.4433  0.0856
24145W        W40219   3.692   5.598  12.239  0.0627 -0.2738  0.4101
24146W        W40220   4.840  14.159  12.815  0.1846 -0.2734 -0.4115
24147W        W40221   9.359   1.301   0.916 -0.4147 -0.2555 -0.1725
24148W        W40222  12.645   8.862   5.679  0.0791  0.0017  0.0025
24149W        W40223   4.860   9.313   5.265  0.1624 -0.1035  0.1164
24150W        W40224   9.658  16.657  14.653  0.3941  0.2057 -0.1065
24151W        W40225   0.301  14.874   3.192  0.2040 -0.2677  0.1013
24152W        W40226   6.081   4.075   3.559  0.1795 -0.2221  0.5233
24153W        W40227  11.350  13.889   4.690  0.2854 -0.1145  0.0596
24154W        W40228  13.431   5.397   4.016  0.3385  0.1429 -0.0795
24155W        W40229  11.913  16.748  13.647  0.0695 -0.0433  0.1149
24156W        W40230  14.122  16.947   1.649  0.0196 -0.0643  0.0842
24157W        W40231  14.650   4.405   0.626 -0.1594  0.1300 -0.0588
24158W        W40232   7.780  13.278   3.814 -0.0245  0.1521  0.0407
24159W        W40233  11.475   5.304   4.893 -0.1339 -0.2956  0.0492
24160W        W40234  18.447  18.327  14.719  0.2877 -0.1371 -0.2207
24161W        W40235   2.009  11.863   9.714 -0.0187  0.3747 -0.0390
24162W        W40236   6.609  12.741   5.513 -0.1782  0.0166 -0.3055
24163W        W40237  11.091  10.523  11.368  0.1222 -0.0448 -0.1570
24164W        W40238   7.852  13.934  14.166 -0.4037  0.2343 -0.0163
24165W        W40239   7.891   1.300  14.510  0.0402 -0.4275 -0.1089
24166W        W40240   4.791   7.879   5.529  0.1790  0.1842 -0.2273
24167W        W40241  18.259   2.540  14.263  0.1022 -0.0263  0.0761
24168W        W40242  15.235  14.291  11.280 -0.1269  0.0818  0.0245
24169W        W40243   6.282   2.495   0.028 -0.1727 -0.0666  0.0158
24170W        W40244   3.400  18.536   3.321 -0.0123 -0.2313 -0.1271
24171W        W40245  18.927   1.150  11.423 -0.4197  0.0138 -0.0872
24172W        W40246   2.896  16.129   3.675  0.2067 -0.2232 -0.2366
24173W        W40247   9.778  11.135  10.157 -0.1447 -0.2797 -0.2232
24174W        W40248   0.822   2.829   2.018  0.0546  0.2205  0.0295
24175W        W40249  15.084   1.215  13.868  0.0131  0.1011  0.3080
24176W        W40250   4.129  13.732   2.092  0.0463  0.3292  0.0827
24177W        W40251  14.525  17.350   3.973 -0.0687  0.3027 -0.4034
24178W        W40252  14.284  15.094  10.826 -0.0334 -0.0005  0.1608
24179W        W40253  17.633   9.370  13.618  0.0471 -0.0263 -0.3219
24180W        W40254   0.551  16.686  12.108  0.3566 -0.2318 -0.2493
24181W        W40255   6.525  17.799   0.079 -0.0761  0.1339 -0.1423
24182W        W40256   3.842  15.935  10.724  0.1947  0.2966 -0.4150
24183W        W40257   3.877   0.093   2.339  0.0214 -0.3353 -0.1846
24184W        W40258  12.515   5.116   2.991 -0.5069  0.0528 -0.1527
24185W        W40259  18.977  16.546  12.917 -0.1816 -0.2219 -0.4230
24186W        W40260   9.934   4.541   4.344  0.4363  0.2119  0.2005
24187W        W40261   6.528  11.379   2.167 -0.0596 -0.2598  0.1070
24188W        W40262  16.006  12.050   0.047 -0.1043  0.0713 -0.3340
24189W        W40263  11.562  15.200  14.149  0.1366  0.1932  0.1928
24190W        W40264  10.290   7.176   1.804 -0.0168  0.1390 -0.0969
24191W        W40265  10.602  18.762  11.573 -0.3131  0.1482 -0.1056
24192W        W40266   3.979   9.388  13.689 -0.0490 -0.1755  0.1614
24193W        W40267  12.161  14.994   0.309  0.6577  0.0940 -0.2069
24194W        W40268  17.085   2.049   3.632 -0.2686 -0.1385 -0.1440
24195W        W40269  13.038  12.663  11.661  0.1427 -0.2230 -0.0192
24196W        W40270   2.878  13.730  11.068 -0.0838 -0.1284 -0.0178
24197W        W40271  15.675   9.746   0.819  0.0716  0.3705  0.1791
24198W        W40272   2.336   7.273   4.780  0.2047  0.4975  0.0245
24199W        W40273   5.249   5.687  12.844  0.2263  0.3236 -0.1605
24200W        W40274   3.238   6.872  13.764  0.0707  0.1066 -0.1006
24201W        W40275  18.041   2.024   9.687 -0.1663 -0.0454 -0.3332
24202W        W40276  17.080  17.582   2.606 -0.1396  0.1559 -0.1003
24203W        W40277   6.233   8.202  12.547  0.2711 -0.1401 -0.0140
24204W        W40278   6.589   5.661   0.235  0.1213  0.1008  0.4647
24205W        W40279   6.783   0.524  14.828  0.1166  0.0168 -0.1039
24206W        W40280   4.447  15.400  13.754 -0.0574 -0.0584 -0.3928
24207W        W40281   9.413   9.151   4.621  0.1649 -0.0970  0.0747
24208W        W40282  15.081   9.864  12.684 -0.0434 -0.1323  0.0380
24209W        W40283   1.582  12.684   1.170  0.1842 -0.3228  0.1503
24210W        W40284   5.234   1.408   2.058 -0.2250  0.0242 -0.2746
24211W        W40285  13.903   2.768  13.580 -0.1347 -0.2489  0.0831
24212W        W40286   0.478  10.501   4.710 -0.0777 -0.1890  0.2840
24213W        W40287   3.270   1.485   0.857  0.2331 -0.0373 -0.2847
24214W        W40288  10.995   5.178  11.003  0.0859  0.0045  0.0211
24215W        W40289   2.430  16.314   3.473 -0.3985 -0.2193  0.2697
24216W        W40290  19.208  15.117   4.756 -0.0138  0.2609  0.2216
24217W        W40291  13.526   2.840   3.802  0.4447 -0.0761  0.3836
24218W        W40292   2.365  14.416   2.739 -0.0179  0.2009  0.1444
24219W        W40293  13.521   1.019   1.546 -0.0854  0.2642 -0.1142
24220W        W40294   5.181  14.389   2.002  0.0046  0.0759  0.0731
24221W        W40295   9.250  13.434  11.331  0.2021  0.1109  0.1768
24222W        W40296  13.214   3.011   4.460  0.2219  0.1853 -0.1695
24223W        W40297   6.938  12.717   0.416 -0.0736  0.1603  0.4532
24224W        W40298   1.081  10.680   4.153 -0.0913 -0.1574  0.0060
24225W        W40299   9.905   2.328   3.984 -0.4537  0.3226 -0.1795
24226W        W40300   9.635   0.477   1.321 -0.0151  0.2147  0.1576
24227W        W40301  13.766   7.937   3.744  0.2705 -0.2723 -0.0726
24228W        W40302   6.001   2.615  13.276  0.0229 -0.1166  0.1244
24229W        W40303   2.171  13.189  12.185  0.0937 -0.0294  0.1278
24230W        W40304  16.080   1.150  13.837 -0.2726  0.2428  0.0514
24231W        W40305  16.457   1.525  13.930  0.1981 -0.0620  0.2299
24232W        W40306   9.246  10.790  11.532  0.3921  0.1073  0.0148
24233W        W40307  12.367  11.717   3.325 -0.1241 -0.0358 -0.1297
24234W        W40308   1.466   7.565  12.342 -0.4075 -0.0620  0.1536
24235W        W40309  15.448  14.508   4.536 -0.0520  0.2509 -0.0503
24236W        W40310   8.728   9.603  13.100 -0.0502 -0.2129  0.0240
24237W        W40311  10.338  14.428  10.846  0.5850  0.0015 -0.1241
24238W        W40312  11.475  16.683  12.367  0.0240  0.0314 -0.1812
24239W        W40313   4.851  16.578   2.466  0.3456  0.2838  0.0654
24240W        W40314  14.972   0.833  13.458  0.0431  0.2301 -0.0571
24241W        W40315   2.319  14.671  13.957  0.2522 -0.2932 -0.0311
24242W        W40316  12.986  11.864   0.081 -0.4709  0.1937  0.2453
24243W        W40317   0.754  12.197   0.732 -0.2543 -0.0432  0.4361
24244W        W40318  10.918  10.038  14.989  0.0471 -0.0798  0.5132
24245W        W40319  11.184  11.701  12.051  0.2059  0.2442  0.2498
24246W        W40320  13.352  12.313  14.412  0.2125 -0.2190  0.1783
24247W        W40321   5.203   9.280   2.934  0.4295  0.0198 -0.1341
24248W        W40322   7.638   1.948  13.865  0.0117 -0.4023  0.2278
24249W        W40323   3.617   3.105   0.875  0.2869 -0.2438  0.1656
24250W        W40324   0.265  13.110   1.788  0.0178 -0.1163 -0.1490
24251W        W40325   9.173  16.497  11.925  0.0903 -0.4597 -0.0765
24252W        W40326  16.629   1.650   3.020 -0.1467  0.0638 -0.1960
24253W        W40327  13.852   4.049   0.121 -0.1752 -0.1166 -0.0078
24254W        W40328  15.105   3.287   2.902  0.0063 -0.1550  0.1671
24255W        W40329   9.416  13.951   3.713 -0.2050 -0.3428 -0.0595
24256W        W40330   7.767   8.957  12.676  0.1950  0.3210 -0.1190
24257W        W40331  11.945   8.028   9.494  0.1919 -0.0049  0.3004
24258W        W40332   2.204   2.886  14.106  0.0183  0.1496  0.2476
24259W        W40333  14.828   3.452   3.371 -0.4679 -0.1605 -0.0291
24260W        W40334   1.740   7.873   3.598  0.0410 -0.0759 -0.0643
24261W        W40335  17.431  10.037   1.093  0.2322 -0.1297 -0.0283
24262W        W40336  13.165   5.975   1.824 -0.3502 -0.1151  0.3533
24263W        W40337   3.906   5.988   4.085  0.1090  0.1089 -0.1253
24264W        W40338  16.578   4.115  10.835 -0.1554 -0.2930 -0.3185
24265W        W40339   0.985   4.404  12.303  0.1077 -0.0648 -0.0117
24266W        W40340  11.241  17.135  14.443 -0.1641  0.3294  0.1821
24267W        W40341  12.293   1.681  13.687  0.0786  0.3917 -0.1472
24268W        W40342  13.986  18.610  11.524  0.1642 -0.0150  0.0731
24269W        W40343   9.770   4.203  12.086  0.0509  0.0239 -0.2851
24270W        W40344  13.166  14.214   3.172 -0.1079  0.0903  0.0903
24271W        W40345  12.894   9.189   1.536 -0.2982  0.0841  0.2239
24272W        W40346  16.312  13.591  12.617  0.2139 -0.1963 -0.3809
24273W        W40347  14.777   5.732   6.201 -0.0065  0.1808 -0.0464
24274W        W40348   6.975   7.007   1.146 -0.0874  0.3301  0.2733
24275W        W40349  13.356  18.549  10.578 -0.0552 -0.1971  0.4030
24276W        W40350   3.913   0.033  11.331  0.3462 -0.1386 -0.0748
24277W        W40351   6.527  13.582  14.242  0.0579  0.1033 -0.3950
24278W        W40352   3.829  15.205   4.983  0.2995 -0.0239 -0.2634
24279W        W40353  17.851  13.962  13.230 -0.1322 -0.1429 -0.0803
24280W        W40354   6.836  18.710  11.106  0.3480 -0.1665  0.1437
24281W        W40355   2.818   1.545   2.186 -0.0407  0.1273  0.0175
24282W        W40356  10.529   3.613   1.961 -0.2603  0.0315 -0.2930
24283W        W40357   2.306   3.418   0.659 -0.1813  0.1189 -0.0068
24284W        W40358   0.548  10.711   3.360  0.1062 -0.0328 -0.0944
24285W        W40359   3.689   7.143   5.472  0.1756 -0.2381  0.3410
24286W        W40360   6.198  15.438   0.779  0.1560  0.0303  0.0636
24287W        W40361  16.997   5.788   2.072 -0.3251 -0.1916 -0.0830
24288W        W40362  17.048  14.097  11.798 -0.2938  0.2806 -0.2072
24289W        W40363   7.888   0.570   1.933 -0.1820  0.0052 -0.2630
24290W        W40364   4.065  13.288   0.493 -0.4034  0.0606  0.2620
24291W        W40365   4.228  13.136  12.766 -0.2203  0.1994  0.1069
24292W        W40366  17.243   8.492   3.537 -0.0166 -0.3105  0.0897
24293W        W40367   0.536   1.199  13.459 -0.0617 -0.0103 -0.2886
24294W        W40368  11.071   1.017   3.333  0.2163  0.0846 -0.2781
24295W        W40369   4.034  15.195   0.866  0.1816 -0.3623 -0.3301
24296W        W40370  15.958   5.537   3.017 -0.3848 -0.1566 -0.5368
24297W        W40371   8.342   0.711  10.669  0.4003  0.1697  0.2552
24298W        W40372   0.182   3.445   0.603  0.0003 -0.0558  0.1387
24299W        W40373  12.266  13.044  12.185  0.2133 -0.0501  0.1008
24300W        W40374   7.294  15.572  12.822  0.1513 -0.0151 -0.2710
24301W        W40375   7.085  15.492   2.650  0.0304 -0.1102  0.0485
24302W        W40376  11.991   3.314   0.913 -0.3816 -0.1829 -0.0382
24303W        W40377  15.284   0.452   2.972  0.1545 -0.0935 -0.1092
24304W        W40378  14.148   6.502   4.553 -0.1451  0.2159  0.1400
24305W        W40379   5.748  16.729  11.070 -0.2097 -0.1540 -0.2249
24306W        W40380  17.821   1.928  14.985 -0.4633  0.0059  0.0417
24307W        W40381   0.516  15.191   2.571 -0.0991  0.3182  0.0909
24308W        W40382  14.055  18.900   3.314  0.0739 -0.0599 -0.0835
24309W        W40383  14.177   5.875  11.797  0.0752  0.2087  0.0637
24310W        W40384  18.199  15.424   3.179 -0.3862  0.1148  0.0007
24311W        W40385  14.481  11.067   3.241 -0.1772  0.0650  0.0563
24312W        W40386  19.094   7.289   2.750 -0.0778  0.1041 -0.0488
24313W        W40387   4.307   3.842   4.038 -0.3220 -0.1048  0.0648
24314W        W40388  10.848   9.525  13.546  0.1545  0.3632  0.1664
24315W        W40389   0.477   6.338  12.956 -0.0512 -0.3210 -0.1876
24316W        W40390   2.922  10.484   0.088 -0.3491 -0.1943 -0.2397
24317W        W40391  10.391   4.463   4.046 -0.0661 -0.0976  0.0058
24318W        W40392  12.322   7.213   4.398  0.0872 -0.0921  0.1465
24319W        W40393   6.582  12.848  10.303  0.1866  0.4184 -0.1864
24320W        W40394   4.530  11.696   1.286  0.2251 -0.1627  0.1457
24321W        W40395  14.225   4.792   3.615 -0.1192 -0.1430 -0.2880
24322W        W40396   7.236   6.223  10.435 -0.0852 -0.0805 -0.3082
24323W        W40397  17.671  16.684   2.537 -0.2536  0.0855  0.2244
24324W        W40398   3.953   5.062  12.908 -0.0159 -0.3425 -0.1520
24325W        W40399  16.451   3.237   1.354  0.4061 -0.1758  0.3250
24326W        W40400  11.097   2.215  13.566 -0.0065 -0.2528 -0.2913
24327W        W40401  14.604  12.015  11.759 -0.0545  0.1272 -0.1691
24328W        W40402   6.306  12.929  11.384  0.3416 -0.1658  0.1412
24329W        W40403  12.798   8.840   0.160  0.0179 -0.1547 -0.0088
24330W        W40404   1.331  13.606   1.629 -0.1171 -0.0519 -0.1325
24331W        W40405  16.289  12.587   3.553 -0.0601  0.2688 -0.2295
24332W        W40406   0.811  19.114  12.622  0.1820  0.0093  0.3004
24333W        W40407   9.380   3.696   0.625 -0.0062  0.2842 -0.2473
24334W        W40408  18.159   1.213   4.615 -0.0309 -0.0822  0.1522
24335W        W40409  18.370   4.653   2.443  0.0273 -0.1074  0.0601
24336W        W40410  18.577  15.519   3.584  0.2974 -0.1652 -0.1678
24337W        W40411  11.280  10.434   0.166  0.2365 -0.0338 -0.2619
24338W        W40412  12.732  10.061  11.278 -0.2189 -0.2757 -0.3163
24339W        W40413   3.695  13.783   2.359  0.1931  0.0465  0.2045
24340W        W40414   6.018  10.562   3.634 -0.2126 -0.1107  0.1844
24341W        W40415   1.224   1.685  11.689 -0.0413 -0.0818 -0.1347
24342W        W40416   4.621  11.270  11.938 -0.0793 -0.0758 -0.2042
24343W        W40417  10.020  17.081   0.756 -0.2907 -0.5347 -0.0649
24344W        W40418  18.826  12.087   4.065  0.1765  0.0273 -0.0200
24345W        W40419   0.165  13.714  13.138 -0.1313 -0.0984  0.0087
24346W        W40420  17.807   8.866   1.258 -0.3502  0.0144 -0.0436
24347W        W40421  14.703  10.848   1.153  0.1205  0.0008  0.1766
24348W        W40422  16.938  12.568  11.502 -0.0153  0.0184 -0.1414
24349W        W40423  11.337  14.239   0.468  0.2995  0.2382 -0.0036
24350W        W40424  10.127   4.617  14.006  0.2036 -0.4105  0.2620
24351W        W40425  11.966   5.371   1.623 -0.2907  0.1796  0.1744
24352W        W40426  15.492  12.203  12.839  0.0100 -0.2480  0.2358
24353W        W40427   6.669   7.807   1.261 -0.0679 -0.1491 -0.2017
24354W        W40428   7.047   7.885   4.309 -0.0831  0.1806 -0.1645
24355W        W40429  12.788  13.965   0.103  0.1283  0.0152 -0.0942
24356W        W40430  14.224   8.462  11.328  0.2135  0.2138 -0.1274
24357W        W40431  17.215   9.773   2.326  0.0905 -0.0579  0.0998
24358W        W40432  13.922   0.424   2.358  0.1725  0.3072  0.1353
24359W        W40433   4.450   6.168   3.550  0.1598  0.2219  0.2554
24360W        W40434  18.250  10.749   2.135  0.2390  0.0566 -0.0682
24361W        W40435   5.960   5.328  13.351  0.2578 -0.0401 -0.2040
24362W        W40436   4.422   5.236   1.660  0.2036 -0.1235 -0.1337
24363W        W40437  11.276   2.304  10.277 -0.2050 -0.1126  0.0030
24364W        W40438   3.692  17.742   0.822 -0.0325 -0.2268  0.1500
24365W        W40439  10.608  18.334  10.502 -0.2217  0.1348 -0.0668
24366W        W40440  15.688   4.793   3.805  0.1196 -0.0670 -0.0521
24367W        W40441   9.905  11.896  10.556 -0.1977  0.3687  0.0200
24368W        W40442   6.524  10.919   0.123  0.3109  0.2722 -0.1530
24369W        W40443  15.688  17.381   0.103  0.3852 -0.3391 -0.0710
24370W        W40444   1.334  16.569  10.482  0.0602  0.2039 -0.1121
24371W        W40445   3.525  16.009  12.715 -0.0440  0.0530 -0.1093
24372W        W40446   1.809   7.221  12.008  0.0507 -0.0962  0.1068
24373W        W40447   5.257  17.026   2.415 -0.1941 -0.2986 -0.0872
24374W        W40448  10.058   6.452  13.652  0.0786 -0.2281 -0.0235
24375W        W40449   9.190   5.129   2.998 -0.3135  0.2475  0.0549
24376W        W40450   6.003  15.908  10.356  0.1740  0.2070  0.3026
24377W        W40451   5.952   9.246  10.842 -0.2737 -0.0696  0.1030
24378W        W40452   6.608   9.355   0.904  0.4109  0.3239 -0.0443
24379W        W40453   6.356  18.826  11.121  0.0868 -0.3227  0.0131
24380W        W40454  17.622  10.795   1.362 -0.2711 -0.0965 -0.1719
24381W        W40455   8.775   2.793   4.041  0.3622 -0.1856 -0.0748
24382W        W40456   1.591   2.662   1.258 -0.1104 -0.0830  0.2575
24383W        W40457  15.413  18.408  13.066 -0.2483 -0.1621  0.0385
24384W        W40458   4.663   6.911   0.656 -0.0537  0.0119 -0.2927
24385W        W40459   8.162  17.197  11.026 -0.1246  0.2135 -0.5203
24386W        W40460  15.805  10.497  14.727  0.0197  0.0267  0.4194
24387W        W40461   7.740   8.802   4.466  0.0348 -0.0457 -0.0619
24388W        W40462   4.766   7.188   4.087  0.1326 -0.0740 -0.2333
24389W        W40463   1.044  13.366   3.627  0.1715  0.1539 -0.0116
24390W        W40464  14.813  10.504   3.976 -0.5440 -0.3849  0.3437
24391W        W40465   1.751  14.556  12.473 -0.0878  0.2700  0.0200
24392W        W40466   6.831  13.855   3.084  0.1551 -0.1794 -0.2508
24393W        W40467   8.473   4.493  10.839  0.0543  0.1576 -0.0584
24394W        W40468  16.254   7.784  12.116 -0.3425  0.0714 -0.1322
24395W        W40469   1.290   1.745  14.901  0.2933  0.2256  0.0581
24396W        W40470  15.279   7.056   4.842 -0.3398  0.1289 -0.0997
24397W        W40471   4.519   7.022  13.322 -0.0673 -0.0722  0.2217
24398W        W40472   1.159  14.064   4.247 -0.0431 -0.1515 -0.1109
24399W        W40473  18.850   0.620   3.468 -0.3548 -0.0139 -0.4914
24400W        W40474  11.718  18.598   9.677 -0.2166  0.0407 -0.1459
24401W        W40475  12.038  11.844  14.820 -0.0182 -0.0612 -0.1140
24402W        W40476   1.918   7.363   0.048  0.0924 -0.0545  0.2088
24403W        W40477  18.375  15.955  13.870  0.0055 -0.1930  0.3796
24404W        W40478   8.687  17.855   4.479  0.0685 -0.1737 -0.3526
24405W        W40479   1.169   4.522  10.383  0.2280 -0.1326 -0.1346
24406W        W40480   0.876  16.182   0.467  0.1352  0.2439  0.0043
24407W        W40481  17.135  18.054   0.997  0.3705  0.1054  0.2862
24408W        W40482  15.687  19.141  11.610  0.0333 -0.1981  0.0972
24409W        W40483   8.511  12.660   1.635 -0.3075  0.0961 -0.0438
24410W        W40484  10.761  18.108   4.108 -0.3692  0.1008 -0.2093
24411W        W40485  13.309  15.978  11.561 -0.0621 -0.1098  0.1414
24412W        W40486   6.727   0.871   0.897 -0.1727  0.2255  0.0646
24413W        W40487   4.077  14.478   5.222  0.0696  0.1162 -0.0167
24414W        W40488  15.113   7.558  13.951 -0.2480  0.0942 -0.1276
24415W        W40489  12.469  16.192   1.099 -0.1252  0.0181 -0.0521
24416W        W40490  10.114   2.055   4.382 -0.0395  0.2882 -0.1968
24417W        W40491   5.574  14.624  13.936 -0.0597  0.0303  0.4583
24418W        W40492   0.739   9.349  11.075  0.1381  0.0006 -0.2469
24419W        W40493   4.739  14.155   0.566 -0.1879  0.0961 -0.2636
24420W        W40494   0.891   2.358  11.280  0.0328 -0.0108  0.3161
24421W        W40495  12.862  11.833  11.019 -0.0535  0.1917  0.1287
24422W        W40496   2.487   4.188  14.360  0.0656  0.2193  0.0934
24423W        W40497   4.648  18.358   0.153 -0.2437 -0.0818  0.2549
24424W        W40498   5.147  17.001   1.638  0.0168 -0.2615  0.2217
24425W        W40499  17.871   5.846  11.599  0.0308  0.2106 -0.0442
24426W        W40500   2.337  16.936   0.212  0.1455 -0.2213 -0.2450
24427W        W40501   0.926   5.011   2.709 -0.1070  0.3208  0.0753
24428W        W40502  15.015   0.419   2.170 -0.1848  0.3785  0.0804
24429W        W40503  11.367   6.755   0.776  0.0459  0.3108  0.1879
24430W        W40504   4.145  11.167   0.638 -0.2168  0.1399 -0.1533
24431W        W40505   0.741   3.192  12.205 -0.3537 -0.0849 -0.1765
24432W        W40506   0.324  13.871   4.465  0.1387  0.2497  0.6273
24433W        W40507   0.419  17.248  14.536  0.1251 -0.0731 -0.2159
24434W        W40508   5.517   1.825   4.080  0.0905 -0.1047 -0.4151
24435W        W40509   3.613   6.779   4.555  0.1058  0.0690 -0.1182
24436W        W40510   4.587  17.763  10.171 -0.1045 -0.0131  0.2230
24437W        W40511  12.760   2.876   1.454  0.3421  0.0571 -0.1481
24438W        W40512  13.443   9.856  13.655  0.0757  0.1038  0.4151
24439W        W40513  17.220   4.288   2.171 -0.0498  0.2516 -0.1386
24440W        W40514   9.764  11.681   4.345 -0.2153  0.2134  0.2104
24441W        W40515   1.006  15.039  10.533 -0.0072 -0.0043 -0.0635
24442W        W40516  13.378   9.597  12.645  0.0946  0.1250  0.1315
24443W        W40517  14.415  18.137   0.637  0.1143 -0.2283 -0.0161
24444W        W40518  11.947   6.757  11.624  0.1984  0.1015  0.1265
24445W        W40519  10.354   1.188  13.413  0.2916 -0.0006  0.1357
24446W        W40520  14.412  11.618  13.234  0.0031 -0.0530  0.1656
24447W        W40521  16.423  10.648   4.784  0.1812 -0.0849 -0.0122
24448W        W40522   8.140  15.566  14.358 -0.2807  0.2835 -0.0771
24449W        W40523   7.720  16.820  13.207 -0.2202  0.2395  0.0821
24450W        W40524   7.267   3.223  14.845  0.3394  0.2453  0.1167
24451W        W40525   4.552   3.409   3.807 -0.1187  0.6057 -0.1666
24452W        W40526   5.795  11.191   4.200  0.0559  0.1620  0.0077
24453W        W40527   9.863   5.512   0.721  0.3415 -0.1196  0.0196
24454W        W40528   9.039   5.477  10.231 -0.0777 -0.2031  0.4994
24455W        W40529   3.133   1.858  13.583 -0.1201  0.3368  0.0131
24456W        W40530  12.824   9.760   0.497 -0.1179  0.3226  0.2292
24457W        W40531  14.960   5.602   0.528 -0.0868 -0.1789  0.0511
24458W        W40532  10.113  13.416   1.641 -0.3062  0.2838 -0.1983
24459W        W40533  11.856  16.268  13.791 -0.6095 -0.2521 -0.2140
24460W        W40534  12.708   3.500   3.315  0.0068  0.2241 -0.0047
24461W        W40535   8.991  10.111  12.791 -0.2040 -0.2307  0.0103
24462W        W40536  12.980   4.129  11.617  0.2777 -0.1051  0.2907
24463W        W40537   4.699  15.638  10.222 -0.1319 -0.0823 -0.1111
24464W        W40538   0.001   1.122  14.254  0.1160 -0.1188  0.1318
24465W        W40539  14.613  15.920  13.492 -0.4733 -0.0547  0.0050
24466W        W40540   1.569  19.241  12.416 -0.0750  0.2321 -0.0622
24467W        W40541   0.533  18.186  14.604 -0.3164 -0.0305 -0.1670
24468W        W40542  15.136   8.704   2.774  0.2566  0.1952  0.0060
24469W        W40543  15.541   4.606   5.016  0.0024  0.2662 -0.2216
24470W        W40544  12.044  12.172  10.418  0.1177 -0.2723 -0.5803
24471W        W40545   7.435  16.055   0.019  0.0685  0.2273 -0.1215
24472W        W40546   1.676   3.726  14.406  0.3913  0.2862  0.2392
24473W        W40547   7.503   6.486   4.814  0.0957 -0.2387 -0.0715
24474W        W40548  10.163   3.826  13.289  0.0103 -0.1099  0.0785
24475W        W40549   5.582   5.708   4.809 -0.1274 -0.1535  0.0076
24476W        W40550  12.365   3.308   1.761  0.1173 -0.0655 -0.0816
24477W        W40551  14.941  11.637  13.279  0.2006 -0.2015  0.2294
24478W        W40552  17.721  14.502   1.072  0.2697 -0.2174 -0.1465
24479W        W40553  15.483   1.938  10.989 -0.1404  0.1959  0.0023
24480W        W40554   4.922   1.486  11.932 -0.2676 -0.1245  0.0904
24481W        W40555  11.883   7.627  13.602  0.2653 -0.1286 -0.1726
24482W        W40556  13.048  11.951   1.079  0.4141  0.1188  0.0503
24483W        W40557   1.801   5.197  10.596 -0.1309 -0.1667 -0.0167
24484W        W40558   7.889   0.603   3.214  0.1902  0.0540  0.0054
24485W        W40559  12.986   6.302   4.042 -0.0278 -0.2843 -0.0839
24486W        W40560  18.761  10.524   0.828 -0.0967  0.0370  0.0507
24487W        W40561   3.844   7.236   3.837  0.0413  0.0681 -0.1162
24488W        W40562   3.310  17.890   5.046  0.2670 -0.0584  0.0604
24489W        W40563   0.312   4.775   0.123  0.0401  0.0242 -0.2191
24490W        W40564  16.865   1.926  11.797  0.0906 -0.2173  0.1038
24491W        W40565   7.682  13.889  10.710  0.1973  0.0389 -0.0400
24492W        W40566   9.168   4.892   3.936  0.0253 -0.4767  0.0922
24493W        W40567   7.042   3.497   1.359 -0.2157  0.1649  0.3077
24494W        W40568   0.872   1.659  14.170 -0.1795 -0.0293  0.2029
24495W        W40569   9.024   5.814   1.128 -0.2539 -0.2171 -0.4888
24496W        W40570  17.312   1.286   0.196  0.0044 -0.0013  0.0275
24497W        W40571  13.239   8.644   2.141  0.1615 -0.0430  0.0305
24498W        W40572  11.655   6.362   0.589  0.1042 -0.0768 -0.0187
24499W        W40573   3.488   3.083  14.198 -0.0343 -0.2718 -0.0049
24500W        W40574   6.038   7.024  11.841  0.1431 -0.3559 -0.2314
24501W        W40575   2.842  11.277  13.914  0.1718  0.2397  0.2133
24502W        W40576  13.196   9.245  12.339 -0.4331  0.1053  0.0517
24503W        W40577   6.931   3.994  11.236 -0.0488  0.0645  0.0332
24504W        W40578  10.522   0.729   4.431 -0.1016 -0.1531 -0.0581
24505W        W40579  17.627   6.671   1.400 -0.0980 -0.0273 -0.1849
24506W        W40580  19.096  11.284   1.954  0.0380 -0.1357 -0.1373
24507W        W40581   9.316   5.838   5.317 -0.1235 -0.0410 -0.1409
24508W        W40582  18.943   0.348  14.227  0.3375  0.2100  0.0919
24509W        W40583  13.952   4.649  14.920  0.1984  0.4640  0.2063
24510W        W40584   6.030  16.004   1.089  0.1229 -0.2719 -0.1143
24511W        W40585   4.204   1.272   2.832  0.1975 -0.2502 -0.1851
24512W        W40586  12.956   3.877   4.479 -0.1424  0.0670  0.0238
24513W        W40587  10.442  18.494   1.695 -0.0389  0.2169  0.4303
24514W        W40588  14.450   9.771   5.555  0.1348 -0.1605  0.4761
24515W        W40589  15.695  13.029   4.891 -0.3198 -0.0814  0.1520
24516W        W40590  16.901  19.331   1.899  0.0244  0.3193 -0.5447
24517W        W40591   2.444   3.807  13.973 -0.0095 -0.1036 -0.1586
24518W        W40592   5.939   7.830   0.494  0.0684 -0.0728  0.1728
24519W        W40593   4.431  17.077  13.462 -0.1438  0.0250 -0.0847
24520W        W40594  13.073  14.461   4.374 -0.0332  0.1047 -0.1421
24521W        W40595  16.779  15.059  12.262 -0.1115 -0.0832  0.0291
24522W        W40596   7.156  17.243  13.461 -0.2080 -0.1614 -0.1305
24523W        W40597   3.927   9.767  11.839 -0.0189  0.2675  0.0559
24524W        W40598  17.520   9.750   4.599 -0.4436  0.0862  0.0247
24525W        W40599   1.765   6.625   5.116 -0.0372  0.0061 -0.4164
24526W        W40600  11.617   5.938   0.337 -0.2373 -0.0984  0.1841
24527W        W40601   0.543   1.590   4.755  0.1976 -0.0671  0.1466
24528W        W40602   4.107  12.766   2.150 -0.1777 -0.3127  0.1808
24529W        W40603   7.456  15.023   5.130 -0.0163  0.2694 -0.1103
24530W        W40604   7.050  17.062  10.122  0.0363 -0.0509  0.0203
24531W        W40605   4.736  16.596   4.053  0.1912  0.0771  0.0639
24532W        W40606  18.065   9.998   2.290  0.0802  0.3354  0.1130
24533W        W40607   1.482   8.335  13.778 -0.1746 -0.0538 -0.1627
24534W        W40608  15.022  10.235  12.275  0.2829 -0.4729  0.0289
24535W        W40609  14.698  17.167   1.103 -0.0417 -0.0387  0.0107
24536W        W40610  10.639   8.045   4.369  0.0338  0.1309 -0.1933
24537W        W40611   2.356   6.617  13.212  0.2111  0.0077  0.0533
24538W        W40612   7.879  13.129   1.323  0.2735  0.0430  0.1590
24539W        W40613  16.192  18.709  12.677  0.0789  0.1053  0.0984
24540W        W40614   9.853  17.968  10.003 -0.2031  0.0183 -0.1708
24541W        W40615   8.883   2.060  12.473  0.2557 -0.0715  0.0537
24542W        W40616  17.143   5.702  11.782  0.1413  0.0195 -0.0813
24543W        W40617   6.991   1.783  12.975  0.0311 -0.1670  0.0944
24544W        W40618  10.790  11.120   0.554  0.1248 -0.0105  0.0574
24545W        W40619   2.966  14.014  13.503  0.0367 -0.0553  0.1622
24546W        W40620   1.499  11.344   1.041 -0.1853 -0.1203 -0.1296
24547W        W40621  14.557  18.429   2.218 -0.2775  0.2071  0.0603
24548W        W40622  16.124  10.746   1.844  0.0471  0.2297  0.1254
24549W        W40623  15.216  15.145  14.182  0.2804  0.1674  0.0721
24550W        W40624   4.866   3.718   0.451  0.0430  0.1673  0.2367
24551W        W40625   2.883   4.793   1.835  0.0529  0.0978 -0.1700
24552W        W40626  13.629  11.408  10.480  0.0398 -0.2385 -0.3061
24553W        W40627  10.417   0.272   1.788  0.1480  0.1566 -0.2051
24554W        W40628  15.240  10.640   5.372 -0.0337  0.0238 -0.1791
24555W        W40629  15.961   5.477   0.790  0.0710 -0.0021 -0.4443
24556W        W40630  14.631  17.621   3.008  0.1373 -0.0270  0.0946
24557W        W40631   1.453   7.795  13.576 -0.3305  0.0898 -0.1474
24558W        W40632  14.869   0.130   3.171  0.1277 -0.0523 -0.2721
24559W        W40633   9.070   4.578  12.047 -0.1271  0.0776 -0.0236
24560W        W40634  16.940   0.026  10.449  0.0758  0.0777 -0.3297
24561W        W40635   2.955  18.025  14.680 -0.0955  0.2914  0.3683
24562W        W40636   1.369  11.521  11.796 -0.4403  0.0216  0.0813
24563W        W40637   3.385  19.081   5.575  0.3065 -0.0757 -0.0829
24564W        W40638   8.093  10.268   2.676 -0.0345  0.2492  0.0296
24565W        W40639   1.595  18.037   5.305  0.1421  0.2288 -0.1760
24566W        W40640   4.422  13.433  14.995  0.1089 -0.0468  0.2878
24567W        W40641   9.941   1.947  12.449 -0.4319  0.1411 -0.0102
24568W        W40642  16.128   5.552   3.529 -0.1020 -0.0010  0.1921
24569W        W40643   7.215   6.477   2.491  0.0983 -0.5258 -0.0648
24570W        W40644  11.652   6.147  12.721  0.0873 -0.6232 -0.0697
24571W        W40645   2.147   1.319  11.186 -0.2224 -0.1445 -0.0186
24572W        W40646  10.621   1.352  11.473  0.1276 -0.6189 -0.2690
24573W        W40647  10.594   0.308   1.320  0.1868 -0.1043 -0.0251
24574W        W40648   2.284   2.092   3.524 -0.0140 -0.1879  0.0822
24575W        W40649   1.025   7.159  14.050  0.0086 -0.0050 -0.0153
24576W        W40650   8.501   3.681  14.353 -0.0619  0.1586 -0.1246
24577W        W40651  13.808  15.538  12.691  0.0278  0.1125  0.1373
24578W        W40652   6.486   4.938   3.592  0.1195  0.1198  0.1207
24579W        W40653  19.328   0.322   9.731 -0.0852 -0.2935  0.3477
24580W        W40654  16.683  17.502  12.354  0.0842 -0.0045 -0.0987
24581W        W40655   1.275   1.866  14.396 -0.0145  0.0829 -0.0112
24582W        W40656   9.559  18.503   9.516  0.0065 -0.0127  0.5727
24583W        W40657  11.210   3.784   4.605 -0.2540  0.1341  0.1184
24584W        W40658   5.276  16.369   3.878  0.3782 -0.1755  0.0531
24585W        W40659   7.748  13.084   4.362 -0.2526  0.1538 -0.2974
24586W        W40660   4.367  18.519   3.982 -0.1385 -0.1673 -0.2258
24587W        W40661   6.010  18.511  11.500  0.1408 -0.0345  0.0899
24588W        W40662  17.263  16.405  12.584 -0.0222  0.0983  0.1452
24589W        W40663   7.944   6.207  13.113 -0.3287 -0.0785  0.1993
24590W        W40664   6.543  11.828   4.076 -0.2540  0.2155  0.0052
24591W        W40665  15.738  16.396  11.886 -0.5364 -0.1649  0.0244
24592W        W40666  16.933   1.783   0.234 -0.1505  0.2025  0.0556
24593W        W40667   8.008   9.575  14.332 -0.1025  0.4001  0.2239
24594W        W40668  16.904   2.516   3.110 -0.2351 -0.0613  0.1132
24595W        W40669  13.044  17.062   4.009  0.0300  0.0916 -0.1668
24596W        W40670   8.889  17.034   4.517 -0.4108 -0.0486 -0.0251
24597W        W40671  18.572   3.111   4.823  0.0415  0.3793 -0.1024
24598W        W40672  12.434   4.415  12.693 -0.3544 -0.0603  0.3225
24599W        W40673   8.231   8.675  12.739 -0.1342 -0.0471  0.2933
24600W        W40674  14.054  16.508  12.346 -0.0185 -0.0007 -0.6016
24601W        W40675  10.982   7.658   4.197  0.0350 -0.0828  0.0344
24602W        W40676  18.509  10.879  11.603 -0.0552  0.3039 -0.1364
24603W        W40677  14.690   0.328   1.787  0.0051  0.1971  0.0703
24604W        W40678  12.241   1.609  10.857 -0.1001  0.4220 -0.0067
24605W        W40679   4.887   4.133  14.561 -0.1285 -0.2135  0.0291
24606W        W40680  13.522   8.017  12.673  0.1099 -0.1425 -0.1259
24607W        W40681   5.745  14.564   4.791  0.0554 -0.1061 -0.1848
24608W        W40682  18.499  13.951  13.366  0.0375  0.2895 -0.0636
24609W        W40683   9.610   6.775   5.033  0.2411  0.0849 -0.3315
24610W        W40684  11.697  17.155  10.809  0.0076 -0.2083  0.0544
24611W        W40685  10.194  16.131  11.389 -0.0331 -0.0271 -0.0577
24612W        W40686  10.599   3.718  12.074  0.0443 -0.2886 -0.0821
24613W        W40687   0.266  15.173   4.467 -0.0102 -0.2367  0.1277
24614W        W40688   5.723   7.232   1.417  0.2392  0.1792 -0.2910
24615W        W40689   6.097  18.729   1.908 -0.0410  0.2067 -0.1301
24616W        W40690  13.599   3.211  13.628 -0.1265  0.1286 -0.1734
24617W        W40691  16.087  19.127  12.021 -0.0197 -0.1069 -0.2931
24618W        W40692   5.293  11.722  11.314  0.1801 -0.3270  0.0319
24619W        W40693   7.514  12.444   0.004  0.4148  0.0578 -0.2049
24620W        W40694   2.509   0.320   1.780 -0.0602 -0.0888 -0.0065
24621W        W40695   0.691  14.710  10.745  0.1070  0.2413  0.1565
24622W        W40696   6.019  17.924   2.681 -0.1034  0.1043 -0.1301
24623W        W40697  16.038  14.461   2.210 -0.2943  0.2612  0.3229
24624W        W40698   9.824  15.926  13.428  0.0117 -0.0439  0.0859
24625W        W40699   2.909   3.782   2.063  0.2203 -0.0925 -0.1365
24626W        W40700   8.519   2.654  15.003 -0.1368  0.2035  0.4100
24627W        W40701  17.266   6.880  14.863 -0.2005  0.0384  0.1543
24628W        W40702  17.937   2.614   5.198 -0.0489  0.3613  0.2122
24629W        W40703  14.718  17.649  10.786 -0.0167 -0.3558 -0.0959
24630W        W40704   6.458   7.913   3.369 -0.2448  0.2022  0.5540
24631W        W40705   4.255  15.939   1.642 -0.1534 -0.3158 -0.2601
24632W        W40706   9.917   3.326   3.505 -0.2724 -0.1811 -0.5391
24633W        W40707  15.617   6.703   4.645  0.0635  0.3479 -0.0051
24634W        W40708  10.064  19.282   1.835 -0.1394  0.2130 -0.1202
24635W        W40709  12.391   6.802   3.464  0.1008 -0.0198 -0.0219
24636W        W40710  16.939  10.467   4.903  0.1625 -0.0790  0.3137
24637W        W40711   8.864   5.077   2.603 -0.0366 -0.0574 -0.1251
24638W        W40712   6.434  18.408   9.903  0.0412  0.1811  0.2439
24639W        W40713   2.095  12.972  14.811 -0.1688 -0.0671  0.2443
24640W        W40714   4.778  13.962   2.844  0.0763 -0.1385  0.1019
24641W        W40715  14.500   4.976  14.186 -0.3407 -0.2177 -0.0480
24642W        W40716  17.370   0.593  13.841 -0.4868 -0.5585 -0.0371
24643W        W40717  13.298  10.830  11.681  0.0285  0.3351 -0.3702
24644W        W40718   1.166   0.559   1.403  0.3177  0.2527 -0.2725
24645W        W40719  10.091  18.254   0.354 -0.2098  0.1420 -0.1450
24646W        W40720   8.095   8.982   1.208  0.1003  0.2527  0.1106
24647W        W40721  11.014  10.684   3.450  0.0807 -0.2482 -0.0257
24648W        W40722  14.832  19.091  12.514 -0.0155 -0.1684  0.1589
24649W        W40723  18.174   1.705  14.473 -0.0630 -0.1963 -0.0091
24650W        W40724  19.056  14.008  12.170  0.1512 -0.0973  0.1963
24651W        W40725   1.966   5.101   0.869 -0.1981 -0.0691  0.0073
24652W        W40726  16.365  13.180   3.248  0.0205 -0.1832 -0.2962
24653W        W40727  10.988   8.327   3.423 -0.0240  0.0706 -0.0974
24654W        W40728   5.127  11.206  14.618 -0.1655  0.1816 -0.0659
24655W        W40729   5.385  14.298  14.848  0.1166 -0.0102  0.1246
24656W        W40730   9.638   0.816  15.002 -0.0239 -0.1341  0.0691
24657W        W40731  12.582  12.650   9.488 -0.2184  0.0032 -0.0186
24658W        W40732  18.582  10.043   3.240  0.2384 -0.2225 -0.0265
24659W        W40733  18.004   0.882   1.009 -0.0205 -0.1137  0.2481
24660W        W40734   6.733   2.822   9.748 -0.1662 -0.3695 -0.0102
24661W        W40735  15.481  13.781   2.472 -0.2860 -0.1054 -0.3117
24662W        W40736  18.958   6.274   0.709  0.0479 -0.2196 -0.0474
24663W        W40737  14.557  15.823  11.436 -0.4646 -0.0577 -0.3065
24664W        W40738   7.729   1.501   3.330  0.0884  0.1997 -0.0058
24665W        W40739   7.271   2.643   1.973  0.2082 -0.0607 -0.0003
24666W        W40740   3.685   2.309   1.283  0.2446 -0.0038 -0.0692
24667W        W40741   1.228   6.414  10.875  0.0225 -0.1136  0.2102
24668W        W40742  12.138  14.760  14.231  0.0635  0.0084 -0.0654
24669W        W40743   7.675  13.072  12.188 -0.0649 -0.0974  0.2000
24670W        W40744   6.879  17.402  10.970  0.1848 -0.1691 -0.1802
24671W        W40745  10.621  12.416  11.694  0.3016 -0.2565  0.1726
24672W        W40746  18.850   9.419   1.606 -0.1561 -0.0227 -0.0774
24673W        W40747   4.913   3.135   0.020  0.3525  0.0148 -0.1216
24674W        W40748   0.115   5.061   5.585 -0.2091 -0.1504  0.0137
24675W        W40749  18.683  11.733   3.651 -0.0248  0.2003 -0.2977
24676W        W40750   7.827   1.207  13.463 -0.0048  0.0886  0.0278
24677W        W40751   9.877  12.936  11.983 -0.2126 -0.1841 -0.0687
24678W        W40752   4.308  19.070   0.293  0.3110 -0.1873  0.1229
24679W        W40753  16.751  17.650   1.402  0.2756 -0.2044  0.0792
24680W        W40754   7.739   2.447  13.777 -0.3820 -0.0793 -0.1551
24681W        W40755  16.735   6.882   2.922 -0.2737  0.0563  0.3368
24682W        W40756  19.050  11.587  13.405 -0.1147 -0.4176 -0.1948
24683W        W40757   9.779  15.536  13.140 -0.0727 -0.1434 -0.2428
24684W        W40758  18.856  13.558  11.994 -0.3489 -0.1014 -0.1018
24685W        W40759  14.424  18.056   3.826 -0.0124  0.5548  0.0912
24686W        W40760   3.165  15.814   0.755  0.0362 -0.3420  0.2774
24687W        W40761   5.014   4.935   0.508  0.1797 -0.0790 -0.0015
24688W        W40762  17.994   7.457   4.790 -0.5421  0.0439 -0.2765
24689W        W40763   4.274   8.148  10.212  0.0162  0.0243 -0.0185
24690W        W40764  10.672  10.094  13.807  0.1819  0.1744  0.1221
24691W        W40765   6.721   1.895  10.027  0.0444 -0.0362 -0.0384
24692W        W40766   5.032  16.557   4.596 -0.2036  0.1664  0.1694
24693W        W40767  13.858   7.645   2.011  0.0024  0.1682 -0.3653
24694W        W40768  13.269   1.028   3.866 -0.0211 -0.0020 -0.2910
24695W        W40769  16.261   9.702  10.718 -0.1265 -0.4475  0.1874
24696W        W40770   1.896  14.544   1.035  0.1425 -0.1948  0.4169
24697W        W40771  13.608  16.032  10.183 -0.0413 -0.1539  0.3152
24698W        W40772  16.423   1.743  11.139  0.1440  0.0581  0.1037
24699W        W40773   4.568  15.252   3.024  0.1415  0.0657  0.0774
24700W        W40774  13.871  14.200   5.552 -0.0325  0.0753  0.3265
24701W        W40775   8.848  10.910   2.661 -0.1889  0.0033  0.0613
24702W        W40776  17.906  15.574   1.341 -0.0779 -0.1153  0.0414
24703W        W40777  17.718  16.109  10.774  0.4030  0.2418 -0.0806
24704W        W40778   9.650  14.136   1.857 -0.1614  0.0697  0.0096
24705W        W40779   4.036  11.177   0.132  0.3589  0.2303 -0.2020
24706W        W40780   5.487  16.644   0.487 -0.0069  0.1487  0.1285
24707W        W40781   5.710  13.045  10.091 -0.0268  0.2459  0.0965
24708W        W40782  18.192  14.162   2.615 -0.1012  0.0743 -0.0739
24709W        W40783   4.118   0.457  14.532  0.0111 -0.0683  0.0796
24710W        W40784   4.302  13.318  11.847 -0.1741  0.1542 -0.0840
24711W        W40785  10.138   8.221  11.878  0.1270 -0.1330 -0.0259
24712W        W40786   2.212   9.527   1.916 -0.1330 -0.2013 -0.1115
24713W        W40787   4.865   5.879  13.094 -0.1830 -0.1498 -0.2074
24714W        W40788   2.859  13.421  10.639 -0.1165  0.0215 -0.0992
24715W        W40789  13.096  12.077   2.136  0.2404  0.0148  0.2319
24716W        W40790  16.453   0.298  14.805 -0.2518 -0.0105  0.1148
24717W        W40791   2.738   7.925   2.419  0.0750  0.2587 -0.2340
24718W        W40792   4.278   6.105  10.749 -0.2917  0.1600  0.2467
24719W        W40793   8.976  14.190  14.592 -0.0782 -0.3346 -0.3456
24720W        W40794   4.524  19.107  13.724  0.2701  0.1158 -0.0278
24721W        W40795  13.571   0.892   2.446 -0.1319  0.0136 -0.3146
24722W        W40796   8.980   3.749   1.368  0.0564 -0.0253  0.1197
24723W        W40797  19.025   1.331  12.297 -0.2998  0.2656  0.0252
24724W        W40798   4.079  19.056   1.295  0.0615  0.0980  0.0410
24725W        W40799  14.860   8.188  12.267 -0.0842 -0.2367  0.1640
24726W        W40800   6.022   0.709   2.347 -0.0155 -0.2999 -0.0824
24727W        W40801   9.127  11.622  11.089  0.1500  0.0800 -0.0764
24728W        W40802  17.169   7.850   3.414  0.2234  0.2842  0.1935
24729W        W40803  16.077   6.105  10.706  0.2737 -0.3597 -0.4064
24730W        W40804   1.616  17.918  13.747  0.0460 -0.0254 -0.0631
24731W        W40805  11.531   5.696   9.908 -0.0034 -0.3080 -0.0437
24732W        W40806  13.283   5.508   4.509  0.0873  0.0178 -0.1084
24733W        W40807  19.177   5.342   4.946  0.2699 -0.2681  0.0016
24734W        W40808   4.075  11.522   3.193 -0.1989 -0.1413  0.1954
24735W        W40809  15.851   6.030  14.491  0.1522  0.0804  0.2211
24736W        W40810   7.307   6.386   1.881  0.1394  0.0435  0.0488
24737W        W40811  13.126  11.026   2.972  0.0368 -0.1306  0.3154
24738W        W40812  14.624  17.998  14.103 -0.1884 -0.0594 -0.0375
24739W        W40813  12.568   1.511  11.605  0.0238  0.0229 -0.1502
24740W        W40814  17.321   6.683   5.803  0.2493 -0.0453 -0.1683
24741W        W40815   8.109   3.301   3.816  0.1001 -0.3592 -0.1272
24742W        W40816  18.678   5.599  10.794 -0.1467  0.0553  0.2190
24743W        W40817   9.992   6.920   4.133  0.1179 -0.1260  0.0987
24744W        W40818  10.034  14.632   1.952 -0.1154 -0.0963 -0.2376
24745W        W40819  10.173  10.644   4.844  0.5281  0.2109 -0.7122
24746W        W40820  13.565  12.850   1.735 -0.2448 -0.2832  0.3187
24747W        W40821   8.244   2.029  11.479 -0.2715 -0.0581 -0.4468
24748W        W40822   1.590  12.324  12.766 -0.1033 -0.0946  0.3627
24749W        W40823   7.735   8.034  14.927  0.0469 -0.1106 -0.0877
24750W        W40824  18.890  13.863   2.941  0.1638  0.0762 -0.1108
24751W        W40825   9.524   5.511   3.991 -0.1577  0.2790  0.0524
24752W        W40826  11.467  11.496  14.747  0.1188 -0.0773  0.1067
24753W        W40827  18.233   4.058  14.363  0.0916  0.0784  0.1464
24754W        W40828  13.882  10.924   2.166 -0.1749 -0.0966 -0.0904
24755W        W40829  17.966  15.684  13.175 -0.1816  0.1396 -0.0546
24756W        W40830  14.248   3.722  12.488  0.0660 -0.2264 -0.0723
24757W        W40831  11.759  13.027   0.640  0.3169  0.4233 -0.3832
24758W        W40832   0.495   0.963  11.924 -0.2664 -0.1220  0.4705
24759W        W40833   5.346  10.741  12.174 -0.0907 -0.1795 -0.1935
24760W        W40834  16.041  17.594   2.448 -0.0205 -0.1214  0.0292
24761W        W40835   3.787  12.694   4.516 -0.1542  0.2809 -0.2650
24762W        W40836   3.874   5.997  14.593 -0.5648 -0.1513 -0.0531
24763W        W40837   3.043  13.615  12.423 -0.2492  0.0257 -0.1591
24764W        W40838   4.284  10.278  13.814 -0.1254  0.0998  0.0487
24765W        W40839   8.900   9.939  11.887  0.2604 -0.2088 -0.0109
24766W        W40840  11.260   5.714   1.066 -0.3236 -0.1011  0.0060
24767W        W40841   9.267  13.404   1.822 -0.0941  0.0593  0.0090
24768W        W40842   7.570  12.294   3.975 -0.2441 -0.1026  0.1515
24769W        W40843   3.579   2.298  11.993 -0.0191  0.4931 -0.1681
24770W        W40844  16.092   3.828   2.264  0.0507  0.1341  0.1519
24771W        W40845   2.681  16.892   0.668 -0.0065  0.0568  0.0390
24772W        W40846  10.988  14.509   1.423 -0.1498  0.0195  0.0945
24773W        W40847   1.569  16.599  12.695 -0.3968  0.2345 -0.0552
24774W        W40848  13.984   6.571   5.168  0.0355  0.3188 -0.1767
24775W        W40849   2.202  12.923   4.816 -0.0975 -0.0337  0.0491
24776W        W40850  12.817   7.014   4.418  0.0567 -0.7021  0.1536
24777W        W40851  16.793   8.743  11.968  0.1729  0.1965  0.0898
24778W        W40852   0.263   6.083  12.217 -0.1118 -0.0644 -0.2378
24779W        W40853  19.282   9.494  13.882 -0.2460  0.2458 -0.2315
24780W        W40854   8.473   7.326  11.560  0.1877 -0.1813 -0.0520
24781W        W40855   5.154  16.197  10.531 -0.1578  0.0601  0.1159
24782W        W40856   5.203   8.821  13.260  0.0707  0.0636  0.0038
24783W        W40857   8.955   4.151   3.878 -0.3532 -0.0314  0.1207
24784W        W40858  13.121  17.745  10.789  0.1327 -0.2675  0.1599
24785W        W40859  10.087   0.284  12.787 -0.2361  0.0714  0.3447
24786W        W40860  16.302   0.275   0.973 -0.0471  0.0616 -0.2416
24787W        W40861  18.626  16.791   3.217 -0.1554  0.1436  0.1229
24788W        W40862   6.696  16.074   5.289  0.1652  0.1557  0.2606
24789W        W40863   4.848  16.388   0.032  0.0657  0.2187  0.0028
24790W        W40864  15.693  17.458   3.577  0.1258 -0.1220 -0.1126
24791W        W40865  10.732  18.916   1.773  0.3063  0.2137  0.1038
24792W        W40866   5.201   0.912   2.265 -0.1531  0.0263  0.3125
24793W        W40867  16.918  12.436   0.642  0.2839 -0.1009 -0.1426
24794W        W40868  14.631   8.022   5.360  0.1036 -0.1154  0.1283
24795W        W40869   0.298  17.302  12.513  0.1611  0.2098  0.0435
24796W        W40870  17.620  11.711   1.428 -0.0110  0.1176 -0.0181
24797W        W40871   1.001  18.517   3.408 -0.3130  0.2393 -0.0130
24798W        W40872   3.626   2.958   2.565 -0.0677 -0.3281  0.2231
24799W        W40873   9.246  18.767   1.887 -0.3375  0.0166  0.2672
24800W        W40874   2.882  17.408  11.877  0.1230 -0.0153 -0.1372
24801W        W40875  10.985  13.713  13.499 -0.1349  0.0894 -0.4437
24802W        W40876   9.065  14.655   0.332  0.0646 -0.1667 -0.0301
24803W        W40877  14.375   5.442   4.638  0.2713  0.6435 -0.1924
24804W        W40878  10.328   2.092  12.109 -0.0859 -0.1279  0.0250
24805W        W40879  13.993   7.700  13.399  0.0259 -0.1653 -0.1442
24806W        W40880   9.029   1.811   3.033  0.0456  0.0268  0.5990
24807W        W40881  12.761  11.800   4.110  0.0460 -0.0918  0.0830
24808W        W40882   5.103  13.423  11.125 -0.0856 -0.0133 -0.3942
24809W        W40883  18.239  11.792   4.500  0.0572  0.0610 -0.3923
24810W        W40884  18.851  17.688   1.130  0.0300  0.1778 -0.3673
24811W        W40885  16.471   5.747  13.739 -0.2746  0.1352 -0.3544
24812W        W40886   4.500  10.917   6.161 -0.1104 -0.2266  0.1803
24813W        W40887   5.653   0.764   0.535  0.1427  0.0882  0.1743
24814W        W40888  10.710  12.353   3.770  0.1033  0.2424  0.1091
24815W        W40889   6.155   9.286   4.766  0.0277  0.2821 -0.1820
24816W        W40890  11.064  11.112  11.144  0.1110  0.0970 -0.0636
24817W        W40891   8.144   4.918   4.994  0.0381 -0.0087 -0.2264
24818W        W40892  13.197  11.852   1.579 -0.2058 -0.0112  0.0742
24819W        W40893  10.039   4.816  11.899  0.0715 -0.2209  0.0117
24820W        W40894  11.777  14.651   0.356 -0.0562 -0.0169  0.3792
24821W        W40895  11.055   6.980   3.339 -0.0521 -0.3227 -0.1298
24822W        W40896  17.383   2.862  14.555 -0.1946 -0.0847  0.0076
24823W        W40897  18.199   7.275  13.921 -0.0844  0.0657  0.0718
24824W        W40898  11.185   5.890  13.345  0.1580 -0.1248  0.1384
24825W        W40899   7.796   6.234   1.693  0.1961 -0.0842 -0.1294
24826W        W40900   6.102  18.447   0.089 -0.1828  0.0262  0.1225
24827W        W40901  12.538   5.178   1.920 -0.0824  0.3734  0.0730
24828W        W40902  11.554  19.239   3.826 -0.1696  0.2030  0.2819
24829W        W40903  14.808   4.819  13.797 -0.1282  0.3403 -0.4231
24830W        W40904  16.848   6.031  12.108 -0.0558  0.0643  0.1650
24831W        W40905   7.583   0.168  11.436 -0.4185 -0.0873 -0.1547
24832W        W40906  16.609  10.616   4.147 -0.3011 -0.1478  0.1048
24833W        W40907  15.355  19.152   0.324  0.0594 -0.0079  0.1328
24834W        W40908  12.519  12.601   4.431 -0.1688 -0.3700  0.0002
24835W        W40909   6.651  16.618  11.343 -0.1346  0.2493  0.0057
24836W        W40910   3.334  10.625   0.865  0.0720  0.0623  0.0612
24837W        W40911   0.473  19.029   3.998  0.1904 -0.2297  0.0720
24838W        W40912   9.675   4.713  10.845  0.0847  0.0412 -0.0115
24839W        W40913  11.479  13.987   3.216 -0.1092 -0.0402 -0.2380
24840W        W40914   1.874   5.499   0.522  0.1307  0.2910 -0.3239
24841W        W40915   7.187  11.393   3.515 -0.0525 -0.2288  0.0822
24842W        W40916   6.707  11.628   1.651  0.2113  0.0712 -0.1128
24843W        W40917  10.274  16.472   3.300 -0.3863  0.1870  0.0556
24844W        W40918  17.973  11.895   5.035  0.1401 -0.0100 -0.0412
24845W        W40919  14.256   2.805  12.503 -0.1828 -0.1084  0.0954
24846W        W40920  17.979  15.781  14.302 -0.4205 -0.0203 -0.1054
24847W        W40921   7.631   2.100   0.182 -0.0396  0.3368  0.1255
24848W        W40922  14.921   8.877   3.942  0.1018 -0.3189  0.0014
24849W        W40923   3.048  15.335   4.784  0.0369 -0.1549  0.2154
24850W        W40924   4.197  15.768  13.116  0.1287  0.2493  0.1459
24851W        W40925  11.906  15.183   1.317  0.0368  0.2434 -0.0847
24852W        W40926  14.275  15.835  12.802  0.1160  0.0551  0.0922
24853W        W40927  13.079  12.879   0.371  0.0581  0.2888  0.1824
24854W        W40928  13.012   0.811  11.113  0.1298  0.3489  0.0098
24855W        W40929   1.799  11.798   1.705  0.0705  0.1466 -0.2788
24856W        W40930   7.197  10.969  11.163  0.0867  0.0418 -0.1099
24857W        W40931   6.263  10.293  10.359 -0.5087 -0.1153 -0.2205
24858W        W40932   7.808  15.834  12.839 -0.0791 -0.0345 -0.0040
24859W        W40933  10.288   5.974  14.048 -0.3022 -0.0027 -0.0830
24860W        W40934  10.938   5.025   1.468  0.0339  0.0915 -0.0032
24861W        W40935   3.692  15.964   0.492 -0.2594 -0.0182  0.2243
24862W        W40936  15.700   8.058   3.786 -0.0076 -0.1397 -0.2174
24863W        W40937   4.307   7.852   4.501  0.2289 -0.3851 -0.2645
24864W        W40938  10.242   1.315  10.376 -0.0353 -0.3507  0.4245
24865W        W40939   6.235   6.528  10.447  0.1971  0.1352 -0.2977
24866W        W40940   3.386   1.670   9.521 -0.1929  0.0704 -0.0736
24867W        W40941   9.651  10.418  13.525  0.3551  0.0369 -0.2940
24868W        W40942  14.535   9.057  13.319 -0.0416  0.0039 -0.2440
24869W        W40943  11.308  18.350   0.963 -0.0195 -0.0715 -0.0939
24870W        W40944  10.573   5.650   0.685  0.1376 -0.5947  0.0503
24871W        W40945  18.030   3.395   3.887 -0.3761  0.2487  0.1660
24872W        W40946   5.132   7.644  10.293 -0.0453  0.1432  0.2273
24873W        W40947   4.845  11.051   5.697  0.1755 -0.1222  0.1115
24874W        W40948  17.099   8.344  14.250 -0.1955  0.1560  0.0313
24875W        W40949  15.441   8.585  14.964  0.1618 -0.0575  0.4769
24876W        W40950  13.702   2.476   5.332  0.0763  0.0766 -0.1867
24877W        W40951   0.155  13.528   2.447 -0.3469  0.0905 -0.0660
24878W        W40952  11.207   6.136   0.660 -0.0932 -0.0673  0.2406
24879W        W40953   6.612   2.110   3.297  0.0411 -0.0086 -0.0566
24880W        W40954   9.411   7.148   4.783 -0.0049  0.0738  0.3586
24881W        W40955  14.825  14.909  14.457 -0.0544 -0.3310  0.0121
24882W        W40956  15.250  10.803  12.570  0.1482 -0.0791  0.1357
24883W        W40957  19.257   4.831  13.164 -0.0707  0.1108  0.1284
24884W        W40958  13.838  13.148  14.916 -0.0223  0.4234 -0.0254
24885W        W40959  16.315   4.685  14.043  0.0315 -0.0948 -0.3453
24886W        W40960   7.305  18.355   2.626 -0.2052  0.0769 -0.0313
24887W        W40961   2.032   3.943  14.161 -0.2105 -0.2458  0.0576
24888W        W40962   8.198   2.474   3.223  0.0636  0.0746  0.2015
24889W        W40963   1.227   3.183  14.986  0.1414  0.0417 -0.0147
24890W        W40964  11.606   3.710   3.671 -0.0877  0.4519 -0.1790
24891W        W40965  16.764  12.193  14.538  0.0218 -0.1367 -0.1988
24892W        W40966   2.112   7.759  14.268  0.0397  0.0309  0.0200
24893W        W40967  11.248   6.267  12.483  0.2070  0.0860 -0.0418
24894W        W40968   7.446  13.954   4.420  0.3813 -0.0048 -0.1351
24895W        W40969  13.966  15.015  13.339  0.0004 -0.1830  0.0189
24896W        W40970   4.986   2.410  13.446 -0.0361  0.1058  0.4286
24897W        W40971   6.473  12.565  11.769 -0.2476 -0.1417  0.6881
24898W        W40972   6.049  11.274  11.776 -0.4321 -0.0563 -0.1920
24899W        W40973   7.884   9.890   1.890 -0.1795  0.1317  0.3390
24900W        W40974  18.072  15.582   5.480 -0.2813  0.4103  0.3581
24901W        W40975   2.422   3.083   2.529 -0.1014  0.0260 -0.0825
24902W        W40976  15.651   3.895   4.131  0.0815 -0.0516 -0.1418
24903W        W40977  13.012   5.051   4.166 -0.0758  0.1787  0.0739
24904W        W40978  11.832   9.705   1.028  0.1368 -0.1933  0.0401
24905W        W40979   7.802   4.027   2.746 -0.0518  0.1247 -0.2410
24906W        W40980  13.431   7.261   0.790  0.3023 -0.2124 -0.0806
24907W        W40981   7.941  15.263   2.878 -0.1393  0.0198  0.2334
24908W        W40982  10.490   3.496  10.390  0.0823  0.0854  0.0971
24909W        W40983   6.760  16.289   1.964  0.0619 -0.1277 -0.0740
24910W        W40984   2.904   7.258  12.014  0.2173 -0.0871 -0.2979
24911W        W40985  16.020   4.529   1.385  0.0670 -0.1115 -0.1899
24912W        W40986   7.059  15.275   1.780  0.3321  0.0668  0.0061
24913W        W40987  10.415  10.356  11.942 -0.1282 -0.1990 -0.1302
24914W        W40988  12.473   7.925  11.760  0.0126  0.1714 -0.1030
24915W        W40989  14.604   7.663   0.198 -0.3447 -0.2682  0.1403
24916W        W40990   0.558   8.607  10.203  0.2633  0.2924 -0.3200
24917W        W40991  12.939  18.039   3.324 -0.1056 -0.3035  0.0927
24918W        W40992  14.078   5.097  12.959 -0.2186 -0.1089  0.2770
24919W        W40993   0.123   9.283   2.052 -0.2265 -0.0173  0.0404
24920W        W40994   4.284   4.857  14.485  0.2078  0.0010 -0.0316
24921W        W40995  16.030  12.277  11.326 -0.5849  0.2251 -0.3354
24922W        W40996  12.699   1.822   2.962 -0.0288 -0.1714  0.0166
24923W        W40997  16.933  17.932  10.679 -0.4228  0.3266  0.1396
24924W        W40998   0.715   3.810   3.969 -0.2254  0.0385 -0.1476
24925W        W40999  11.957   7.498   3.006  0.0326  0.1064 -0.3592
24926W        W41000   8.177  18.047   2.389  0.3016 -0.1635 -0.2897
24927W        W41001   3.131   8.666   5.305 -0.2115 -0.0679 -0.1078
24928W        W41002   7.735   7.934   2.889  0.0162  0.1128 -0.0548
24929W        W41003   4.636  17.005   1.687 -0.1458  0.2757 -0.0257
24930W        W41004  16.585   2.578  10.768  0.2664  0.0747  0.2288
24931W        W41005  10.675   8.521   4.512  0.1450  0.1079  0.1200
24932W        W41006   9.921   5.865   4.032 -0.2071 -0.3548  0.0513
24933W        W41007   0.271   3.570  12.288 -0.1122 -0.1357 -0.0289
24934W        W41008  12.323   5.802   2.396  0.4365 -0.1700  0.2367
24935W        W41009   2.774   9.352  12.696 -0.0408  0.0559  0.0434
24936W        W41010   1.101   4.848   5.356  0.0301 -0.1846 -0.2751
24937W        W41011  15.621   1.814   3.384 -0.2246 -0.3073 -0.0507
24938W        W41012  18.783  10.035   5.177  0.0533 -0.1787 -0.6583
24939W        W41013  17.922   5.111  13.959 -0.1311  0.6624  0.0696
24940W        W41014  10.958   1.874  10.038 -0.3507 -0.0443  0.0700
24941W        W41015   4.563   7.210   2.903  0.0426 -0.3781 -0.0926
24942W        W41016  16.887   6.031  14.088  0.0777  0.1944 -0.1753
24943W        W41017  16.826  19.094   3.380  0.3499  0.0881  0.0258
24944W        W41018   2.008   4.104   3.809  0.0850  0.2876 -0.0941
24945W        W41019   7.090  16.732   1.780 -0.3276 -0.3069  0.1409
24946W        W41020  12.250   6.720  13.264  0.2939  0.0111  0.0344
24947W        W41021  14.827  14.711  10.410 -0.1594 -0.0371 -0.0857
24948W        W41022   8.499  14.012   0.289 -0.2783  0.0308 -0.0789
24949W        W41023   6.380  19.278   0.493  0.2687  0.1991 -0.0572
24950W        W41024  10.902   4.639  11.181  0.1038  0.0200 -0.0687
24951W        W41025   8.031  17.812   9.451  0.1010  0.0800  0.1077
24952W        W41026  16.719   5.993  11.132  0.0761  0.2292 -0.1507
24953W        W41027  11.693   2.956  15.002  0.0839  0.2619 -0.0327
24954W        W41028  17.864  18.331  13.851 -0.5493  0.1750  0.0504
24955W        W41029   4.224   9.591   1.576  0.1465 -0.0290  0.0866
24956W        W41030   7.549  16.562   1.547  0.2495 -0.4410 -0.1282
24957W        W41031  14.630   9.357  13.773 -0.5644 -0.2115  0.0751
24958W        W41032   8.645   8.235   2.653 -0.1179 -0.1410  0.0309
24959W        W41033  16.392   0.716   2.276  0.0602 -0.1597 -0.7168
24960W        W41034  19.052   6.644  11.523  0.0668  0.1589 -0.2935
24961W        W41035  13.304   6.744  11.945  0.0546  0.2319  0.0133
24962W        W41036   3.921   9.830  12.734 -0.2359  0.0299  0.4687
24963W        W41037   9.803   3.573   3.919  0.4064  0.1692  0.5364
24964W        W41038   2.760   1.730  10.011  0.0658 -0.0702 -0.1471
24965W        W41039  16.141  17.336  14.874 -0.3610  0.2744  0.1080
24966W        W41040  16.627  13.119  10.910 -0.0163  0.0882  0.0783
24967W        W41041  17.362  18.858   5.579  0.1812 -0.0063  0.3360
24968W        W41042  11.053  10.855   4.672 -0.2672  0.1268 -0.0495
24969W        W41043   9.582   0.211  11.337 -0.3234  0.0029  0.1052
24970W        W41044   4.795  12.090  13.388 -0.1444 -0.1600 -0.1417
24971W        W41045  12.759   9.790   1.395 -0.0986  0.1197  0.1863
24972W        W41046  17.840   6.542   0.519  0.0784  0.0963  0.0584
24973W        W41047  16.122  14.099  11.771  0.0008 -0.3670  0.2436
24974W        W41048  12.059  11.921  12.744  0.0284 -0.4017 -0.3353
24975W        W41049   5.897   5.228  13.846 -0.0068  0.2039 -0.0384
24976W        W41050  17.269  19.051   3.812  0.2428  0.0216  0.0885
24977W        W41051   9.479  13.772  12.583  0.1358 -0.1608 -0.1417
24978W        W41052  12.703   1.428   9.950 -0.1464 -0.1083  0.1504
24979W        W41053  15.883  17.112  12.722  0.0060  0.1491  0.2027
24980W        W41054   3.493  15.928  13.651  0.3210  0.0121 -0.1391
24981W        W41055  11.261  10.576   0.660 -0.3104 -0.0790  0.2538
24982W        W41056   5.359   2.914  10.397  0.2147 -0.1206 -0.2378
24983W        W41057   2.213  13.406  11.351 -0.0689 -0.3167  0.1420
24984W        W41058  16.744   4.199   4.232  0.1099  0.1228  0.0161
24985W        W41059   9.843   9.516  13.899  0.1413 -0.0081  0.4847
24986W        W41060  16.965   9.526  13.541  0.3490 -0.3928  0.0843
24987W        W41061   8.536   2.402   3.632  0.0422 -0.0548 -0.2538
24988W        W41062   6.051  15.191   1.596 -0.1477 -0.0118  0.2004
24989W        W41063  11.044  11.360   4.675 -0.1134 -0.0500 -0.1150
24990W        W41064   4.110  10.268   1.995  0.1852 -0.1605 -0.2732
24991W        W41065  13.219   6.685   4.266 -0.0604  0.0400  0.2683
24992W        W41066  11.729  11.748   4.001 -0.3058  0.0089  0.4571
24993W        W41067   6.231   2.255  10.860 -0.2010 -0.3299 -0.0455
24994W        W41068  13.343  15.231   0.072 -0.2151 -0.3320 -0.2039
24995W        W41069   7.167  11.298   4.336  0.1073 -0.0018 -0.1640
24996W        W41070   4.328  17.771  11.104  0.2211 -0.1331  0.4061
24997W        W41071   9.522   8.931   1.585  0.0246 -0.3297 -0.1007
24998W        W41072  11.304   0.761  12.244  0.0590  0.0904 -0.3736
24999W        W41073  14.496   3.344  12.266  0.3122  0.4493  0.1639
25000W        W41074   3.522   6.616  11.816 -0.2500  0.0353 -0.0383
25001W        W41075  10.229   2.065   1.956  0.1787  0.0582  0.0886
25002W        W41076  12.598   4.886  10.998  0.1539  0.0683  0.0759
25003W        W41077  16.105  12.104  13.735 -0.1505 -0.1840  0.0270
25004W        W41078  18.383  17.520   0.944  0.0204  0.2592 -0.2603
25005W        W41079   8.212  17.248  14.632  0.0837  0.1527  0.1672
25006W        W41080  11.048  12.558  12.120 -0.2636  0.1795  0.0615
25007W        W41081   8.960  11.916   5.395 -0.0534 -0.3357 -0.1575
25008W        W41082   6.529   5.729  10.399  0.2289  0.4130 -0.1145
25009W        W41083   6.537  13.086  12.750 -0.3153  0.2878  0.1152
25010W        W41084   8.181   6.465   0.915 -0.2280  0.0153 -0.0463
25011W        W41085  18.593  13.392   4.743 -0.0171  0.0245  0.0523
25012W        W41086  18.001   1.655  11.955  0.0836 -0.0267  0.2710
25013W        W41087  16.860   7.226   1.430  0.2247 -0.2444  0.1885
25014W        W41088   4.868  11.623   0.817  0.0565  0.0288  0.1485
25015W        W41089   0.132  18.439   2.739  0.3415  0.2430  0.1965
25016W        W41090   0.473   4.067  12.426  0.1150 -0.0960 -0.0705
25017W        W41091  18.190  12.983  11.544 -0.4048  0.1307 -0.0053
25018W        W41092   1.005   7.000   2.831  0.0002  0.2711 -0.5255
25019W        W41093  18.327  14.462  11.585 -0.2944 -0.1107  0.2878
25020W        W41094   7.407  16.293   0.962 -0.0090 -0.4699  0.0179
25021W        W41095  16.642  11.600  11.950  0.1446 -0.1281  0.0785
25022W        W41096   0.777  15.256  13.893 -0.1760 -0.2114 -0.0739
25023W        W41097   7.372  16.358   3.495  0.0564 -0.1662  0.2082
25024W        W41098   2.894  10.446  11.119 -0.1939  0.0812 -0.0121
25025W        W41099  12.227   1.977  10.360  0.0680 -0.1588  0.2775
25026W        W41100   6.327   0.801   3.155  0.2120  0.0019 -0.2321
25027W        W41101   3.411   9.424  14.450 -0.2448 -0.0570 -0.0839
25028W        W41102   2.308   7.915  12.174 -0.1653  0.1578  0.4755
25029W        W41103  16.577  12.592   4.940  0.0673  0.0986 -0.1384
25030W        W41104  13.672  18.235  10.232 -0.1183 -0.2081  0.0781
25031W        W41105  19.170   2.648   1.676  0.1300  0.1011 -0.0096
25032W        W41106   7.345   0.023  12.760 -0.0126 -0.0558  0.5126
25033W        W41107  18.905  16.012   2.195 -0.2042  0.2224  0.1879
25034W        W41108  17.593   3.287  14.847 -0.0509  0.4486 -0.0402
25035W        W41109   8.228   1.984   3.880  0.5787  0.3056 -0.1144
25036W        W41110  16.134   8.306  14.434 -0.1926 -0.3199  0.5060
25037W        W41111   7.488   0.051   0.579 -0.1685 -0.2227 -0.0119
25038W        W41112  17.818   0.688  11.768  0.2930 -0.1571 -0.5328
25039W        W41113  16.475  17.598   4.181  0.0157 -0.0138 -0.1056
25040W        W41114   0.496  10.121   2.246 -0.3249  0.2732  0.5118
25041W        W41115  10.668   0.599  10.121  0.1150 -0.3012 -0.1346
25042W        W41116   4.938   0.964   4.047  0.1293 -0.3844  0.0009
25043W        W41117   9.147   1.888   0.023  0.1690  0.0266  0.3512
25044W        W41118   8.915   1.027  13.920  0.4055  0.3273 -0.3565
25045W        W41119  15.332   7.671   2.367  0.0465  0.2226  0.0766
25046W        W41120   7.306  12.658  11.518 -0.2087 -0.0976  0.0864
25047W        W41121   2.874   2.381   9.272  0.0045 -0.1096  0.0658
25048W        W41122  17.476   3.394   4.124  0.1564  0.0726 -0.1322
25049W        W41123  18.479   8.266   4.498 -0.1739  0.2382 -0.1209
25050W        W41124   5.016  12.629   4.626 -0.0217  0.0095  0.0202
25051W        W41125  14.112  17.326   4.296 -0.0909  0.1270 -0.4337
25052W        W41126   7.991   8.836  12.203  0.2566 -0.4352 -0.0710
25053W        W41127  18.453  15.978   3.663  0.3894  0.1524  0.3867
25054W        W41128  15.214  19.276   2.828 -0.3212  0.2082 -0.1128
25055W        W41129  17.192   9.835   5.394  0.3710 -0.1570 -0.1006
25056W        W41130   6.329  12.462  10.709 -0.4155 -0.0078  0.0495
25057W        W41131   8.410   0.693   3.286 -0.1035 -0.2574  0.0214
25058W        W41132   2.301  15.940   0.172 -0.3317  0.4066 -0.0779
25059W        W41133  15.063  12.959  13.412 -0.0582  0.0689  0.0858
25060W        W41134   3.216   2.055  14.087  0.2601  0.2114  0.2370
25061W        W41135  18.077   5.795   4.177 -0.0032 -0.0512  0.0034
25062W        W41136   7.944  19.130   2.279  0.2023 -0.0779 -0.0992
25063W        W41137  14.152   2.693   1.502  0.0006 -0.1579 -0.1021
25064W        W41138   2.940  17.807  13.298  0.0367  0.0475 -0.0814
25065W        W41139  15.790   7.396   5.479  0.0937 -0.0023 -0.1537
25066W        W41140   6.942  19.127   9.681 -0.1769  0.0716  0.0420
25067W        W41141  17.644   0.706  12.770 -0.3055  0.0668 -0.0014
25068W        W41142  14.919   1.979  13.179 -0.1456 -0.1962 -0.0414
25069W        W41143   8.782  15.139   0.453  0.0003 -0.0265  0.0435
25070W        W41144   0.615   9.060   0.593 -0.1350  0.1324 -0.1410
25071W        W41145   8.238  14.915   0.968  0.1930  0.2253  0.1527
25072W        W41146   7.666   3.203  12.959 -0.1055 -0.0149 -0.2256
25073W        W41147   1.565   6.994   5.375 -0.2112 -0.0062 -0.0736
25074W        W41148   4.011  11.717  13.280  0.2207  0.1850  0.0816
25075W        W41149  18.185  13.589  13.190  0.1841  0.0463  0.0983
25076W        W41150   5.014   8.214   4.544  0.1226  0.3143  0.0010
25077W        W41151   7.098  14.317   9.548  0.0571  0.0210 -0.1349
25078W        W41152  11.928   5.538   4.663 -0.0302 -0.1596  0.0665
25079W        W41153   7.502   2.658  11.536  0.1283 -0.0653 -0.1524
25080W        W41154  11.479  13.902  12.282 -0.0523 -0.0866  0.0039
25081W        W41155   0.107  11.556   2.262  0.3430  0.0799 -0.0122
25082W        W41156  16.348   3.705   5.638 -0.0504 -0.0502 -0.1786
25083W        W41157  13.963   9.895   4.684 -0.2885  0.3081  0.0257
25084W        W41158   4.282   4.740   3.402  0.0120  0.2460  0.0211
25085W        W41159  11.933   9.466  12.643 -0.0319 -0.3161 -0.0703
25086W        W41160   7.765  14.283   2.500  0.0843  0.1504 -0.0948
25087W        W41161  16.407   1.089   5.324  0.1794  0.0276  0.1146
25088W        W41162  13.916   6.864   0.151  0.0040  0.1540 -0.1281
25089W        W41163  13.301  13.219  14.561  0.0630 -0.0184 -0.0008
25090W        W41164   4.838   4.683  11.864 -0.0046  0.1129 -0.1659
25091W        W41165   4.702  14.554   4.874  0.0670 -0.1333  0.1111
25092W        W41166  12.778   8.286   1.592  0.1489 -0.1511 -0.0957
25093W        W41167   4.106  18.082   2.638 -0.2593  0.3140 -0.0286
25094W        W41168  11.605  11.642   3.411 -0.0680  0.1870  0.3171
25095W        W41169   4.185   3.338   3.414  0.1712  0.0334  0.0762
25096W        W41170  17.259   3.333  10.872  0.0790 -0.0272  0.1275
25097W        W41171   4.796   4.425   4.164 -0.1671 -0.0885 -0.0626
25098W        W41172  13.534  15.761  13.680  0.2452  0.4948 -0.1986
25099W        W41173  17.720   1.084  13.991  0.3589  0.1490 -0.2676
25100W        W41174  11.758  16.238   0.634 -0.1794 -0.1695 -0.3496
25101W        W41175  18.750  10.900   2.032 -0.0848 -0.1111 -0.0776
25102W        W41176   6.777  18.799  12.855 -0.0044  0.1062  0.1490
25103W        W41177  15.789  13.132  12.097 -0.1254 -0.2368 -0.0956
25104W        W41178   2.633   9.671   5.306  0.0798 -0.0747  0.2050
25105W        W41179  10.327   9.652  13.776 -0.4211  0.0994  0.0294
25106W        W41180  17.754   2.405  14.807  0.3057 -0.0198 -0.0796
25107W        W41181   7.587   2.728   0.789  0.1958 -0.1475 -0.1544
25108W        W41182   1.480   5.526  13.772 -0.1067 -0.2655  0.1381
25109W        W41183   3.546   8.827   5.684 -0.3259  0.0458  0.2323
25110W        W41184   4.219  14.867   1.611  0.0691 -0.0325  0.1524
25111W        W41185   2.584  13.020  10.441 -0.3317 -0.1982 -0.0140
25112W        W41186  15.520  12.981  12.501 -0.3896  0.2714 -0.1620
25113W        W41187  11.616  18.782  13.916 -0.1947 -0.0022 -0.1132
25114W        W41188   6.676   1.268   0.473 -0.0187 -0.1352  0.0930
25115W        W41189  17.699   4.138  14.318 -0.5123  0.2490  0.2755
25116W        W41190   7.369   8.206   1.757 -0.2798 -0.1116 -0.1080
25117W        W41191   1.470  10.419   2.047  0.2576 -0.0116 -0.1249
25118W        W41192  13.017   7.436  14.141  0.0829 -0.1501 -0.1536
25119W        W41193  17.938  10.872   4.764  0.2842  0.0914 -0.1216
25120W        W41194   0.341   0.261  11.285  0.0232 -0.1702 -0.2513
25121W        W41195   5.517  14.816   0.648  0.2530  0.2497  0.2288
25122W        W41196  11.810  18.269   0.329  0.2498  0.2754 -0.1945
25123W        W41197  12.436   0.023   2.073  0.1744 -0.1522  0.1789
25124W        W41198   6.834   2.027  13.851 -0.2160  0.0292  0.1519
25125W        W41199   0.298   9.985   0.874  0.0315  0.4206 -0.4246
25126W        W41200   2.695  16.722  12.599 -0.1674  0.1584 -0.0661
25127W        W41201   1.930  15.988  11.679 -0.3612  0.1011  0.1606
25128W        W41202  10.420  14.339  11.344 -0.1061  0.0872 -0.0581
25129W        W41203   9.774  19.019  10.068  0.2022 -0.0769  0.0983
25130W        W41204   9.475  18.416  13.421 -0.1403 -0.1205 -0.0922
25131W        W41205   6.396  18.571   0.657  0.4784  0.2415 -0.0344
25132W        W41206   8.606  12.174   0.136  0.2233 -0.1896 -0.3390
25133W        W41207   7.089  14.607  10.357  0.0298  0.2316  0.2780
25134W        W41208   7.627  12.592   1.199 -0.2093 -0.1365  0.1173
25135W        W41209   7.233   6.597   3.703 -0.2323 -0.2979  0.0956
25136W        W41210   1.886  10.749  14.081  0.3115 -0.0102 -0.1423
25137W        W41211   9.404  10.994   5.378 -0.3408 -0.1991 -0.0125
25138W        W41212   1.804   5.420   1.876  0.0114 -0.0497 -0.3923
25139W        W41213  16.713  14.444   0.110  0.1850 -0.0196  0.1241
25140W        W41214   5.507  12.922   3.458  0.2584 -0.2162 -0.2046
25141W        W41215   6.618   0.976   2.376  0.1529 -0.1236  0.0739
25142W        W41216  13.303  16.234   4.107 -0.0581  0.2254  0.1921
25143W        W41217   4.942   3.105   3.726 -0.2395 -0.0495 -0.3401
25144W        W41218  16.051  11.774   4.192  0.0333  0.1995  0.1690
25145W        W41219   6.094   9.720  13.078  0.1558 -0.0704 -0.3546
25146W        W41220   3.996   7.545   0.256 -0.0216  0.0834  0.1709
25147W        W41221  14.165   9.329   3.247 -0.1458  0.1769  0.1837
25148W        W41222  12.016   3.588   3.943 -0.4077  0.4295 -0.1167
25149W        W41223   3.342  10.159  10.346 -0.0622 -0.1566 -0.2265
25150W        W41224   0.431   8.143  11.703  0.2079  0.0953  0.3005
25151W        W41225   5.593   3.114  12.970  0.0329 -0.0603  0.0194
25152W        W41226   5.746   9.573   1.209  0.1861  0.1621  0.1672
25153W        W41227  17.075   1.493   9.856 -0.0439 -0.0355 -0.2903
25154W        W41228   7.099   0.093   0.943 -0.0031  0.4301 -0.2508
25155W        W41229   6.847  13.168  14.311  0.3819 -0.1999  0.0682
25156W        W41230   9.123   2.648   1.062  0.0669  0.2601  0.1850
25157W        W41231   9.884   2.988   2.681 -0.0387  0.5143 -0.0071
25158W        W41232   6.343   6.709   4.578  0.2271  0.0789 -0.1292
25159W        W41233  11.608  12.564  13.164 -0.3983  0.1422 -0.1376
25160W        W41234   1.744   6.126   0.701 -0.1070  0.0853  0.0676
25161W        W41235   0.569  13.939   0.727 -0.0132 -0.3799 -0.1817
25162W        W41236  18.802   8.728   3.348  0.1930  0.1547  0.0059
25163W        W41237   0.191  18.483  14.105 -0.0068  0.0751  0.0628
25164W        W41238   5.756   6.843  13.185 -0.1393 -0.1817 -0.0073
25165W        W41239  15.787   2.134   1.131 -0.3227  0.1043 -0.3439
25166W        W41240   0.126   5.236   3.223  0.2407  0.2949 -0.1155
25167W        W41241  11.121  16.186   0.706  0.0718 -0.1906 -0.2815
25168W        W41242  11.001   6.439   3.361  0.1332 -0.0706  0.2276
25169W        W41243  11.825  17.901   1.626  0.1704 -0.1442 -0.2596
25170W        W41244   0.767  17.814   0.879 -0.0185 -0.3417 -0.1211
25171W        W41245   5.284  15.387   4.918  0.1011  0.1016 -0.1216
25172W        W41246   8.905   4.382  12.509  0.3787  0.3575  0.0701
25173W        W41247  10.757  11.866   1.538  0.4199  0.1569 -0.0714
25174W        W41248   3.831   5.605   3.765 -0.0291  0.1362 -0.0588
25175W        W41249  12.559   0.504   4.187  0.0765  0.0278  0.1856
25176W        W41250  15.305   5.749   3.498  0.0993 -0.0780 -0.2030
25177W        W41251  14.815  11.268  12.113  0.0294 -0.1981 -0.1442
25178W        W41252   7.643  14.791  12.395 -0.1530 -0.1919 -0.0559
25179W        W41253  11.170   5.965  14.421  0.2895 -0.4051  0.1175
25180W        W41254   9.010   5.245  13.023 -0.3468 -0.1192 -0.0367
25181W        W41255   1.248   8.523  11.219  0.0045 -0.1190 -0.0890
25182W        W41256  17.512   2.728   2.425 -0.4124  0.2063 -0.1304
25183W        W41257   9.485   0.241  14.299 -0.0632 -0.0866 -0.1320
25184W        W41258  15.849  11.669  10.834 -0.0102  0.0409  0.0939
25185W        W41259  15.680   9.999  11.140  0.0969  0.1238 -0.0267
25186W        W41260   8.966  15.636   9.821  0.0794 -0.1683 -0.0675
25187W        W41261   9.212   8.189   1.647  0.2712  0.2927 -0.1822
25188W        W41262   5.192   9.936   2.400 -0.0846  0.0995  0.1042
25189W        W41263  14.634   9.989   2.691 -0.1923  0.0773 -0.3021
25190W        W41264   1.622   9.435   3.780 -0.1419 -0.3899 -0.1729
25191W        W41265  16.802  14.847  10.474 -0.0720  0.0769 -0.0143
25192W        W41266  14.994   4.322  13.612  0.1222  0.3596 -0.2705
25193W        W41267  11.062   4.150   2.449 -0.3917  0.1216  0.0302
25194W        W41268  18.737   1.092   5.399 -0.1747 -0.0889 -0.5992
25195W        W41269  14.691  17.201  13.024 -0.1221 -0.1503  0.0202
25196W        W41270  18.343   9.186  14.849  0.2035  0.0136  0.0914
25197W        W41271   3.525  13.909   1.578 -0.0874  0.0675 -0.1853
25198W        W41272   4.941   1.127  10.359  0.0095  0.0135  0.1272
25199W        W41273   2.245   3.076   0.183  0.2372  0.0100  0.3841
25200W        W41274   4.267  10.517   0.464  0.1962  0.2215 -0.0417
25201W        W41275   3.076  18.926   1.492  0.0864  0.0972 -0.2047
25202W        W41276   5.776   0.206  14.588 -0.2865 -0.2625  0.0781
25203W        W41277   7.245   0.392   0.242  0.2930 -0.0377  0.1473
25204W        W41278   9.192  15.225  11.465  0.0299  0.1179 -0.1186
25205W        W41279  16.304   5.173  12.588 -0.0064  0.0511  0.0423
25206W        W41280   8.155   1.412   5.061 -0.0620  0.2052  0.3629
25207W        W41281   5.146   2.702   0.056  0.1358  0.1636 -0.1516
25208W        W41282   7.868  18.385   1.335 -0.0197  0.1638  0.2195
25209W        W41283  10.782   4.374   4.481 -0.1199 -0.0306  0.0031
25210W        W41284  16.774  10.762   3.647 -0.1862 -0.0409  0.0397
25211W        W41285  12.469   7.206  11.016 -0.0600 -0.0860  0.2224
25212W        W41286   7.627  18.576   2.898 -0.5245  0.0712  0.0366
25213W        W41287   1.401   9.918  11.661 -0.0678  0.2881 -0.3083
25214W        W41288   9.522   8.328   1.087  0.2616  0.4057 -0.0164
25215W        W41289  12.661   6.623  10.263 -0.0701  0.2448 -0.2353
25216W        W41290   5.366  16.529   2.146 -0.0018  0.1924 -0.3879
25217W        W41291  16.892   2.336  14.840 -0.2870 -0.0073  0.2270
25218W        W41292   4.811  15.284  14.217  0.3797  0.1716 -0.0368
25219W        W41293   5.810   2.505  14.341 -0.1698 -0.0426  0.1029
25220W        W41294   2.297   7.329   2.342 -0.0315 -0.2086 -0.0906
25221W        W41295   4.346  11.675  11.878  0.1175 -0.2440  0.2232
25222W        W41296  12.616  12.012   3.659  0.5162 -0.0714 -0.0220
25223W        W41297   5.846  13.990   1.848 -0.0747 -0.1869 -0.0583
25224W        W41298  19.058   0.532   2.644  0.0708  0.2075 -0.1648
25225W        W41299  12.861  17.769   1.642  0.3728  0.2906 -0.1433
25226W        W41300  19.250  12.894  14.365  0.1910  0.0013  0.1664
25227W        W41301   1.380  18.160  10.639  0.3694 -0.2620 -0.2644
25228W        W41302  10.698  16.134   4.143 -0.5178  0.1178 -0.2284
25229W        W41303  19.021   2.909  10.953 -0.2193 -0.2315 -0.7724
25230W        W41304   5.642   8.056   3.893  0.0793 -0.1469 -0.2054
25231W        W41305  14.715   9.096   2.043 -0.0279 -0.3359  0.2070
25232W        W41306   6.558   7.208  12.524 -0.0204 -0.1532 -0.2407
25233W        W41307   7.463   5.252  14.848  0.3632 -0.2380 -0.0313
25234W        W41308  10.997  16.558   5.034 -0.2031 -0.0191  0.2128
25235W        W41309   0.184  16.035   2.809  0.3545 -0.0653  0.0320
25236W        W41310   2.454   0.156   0.072  0.1813 -0.0258  0.1184
25237W        W41311   4.602  18.721  11.353 -0.2604 -0.2943 -0.1184
25238W        W41312   6.508  19.239  11.373 -0.3337  0.2362  0.0980
25239W        W41313  17.154   7.320  14.719  0.2624 -0.3858  0.1593
25240W        W41314  14.924   6.412   4.090 -0.0708 -0.2071 -0.3153
25241W        W41315  16.578  13.171   5.159 -0.0205 -0.0190  0.5385
25242W        W41316   3.458  13.799  12.641  0.2378 -0.1190  0.4438
25243W        W41317  12.251   7.614   4.845 -0.2297 -0.2962  0.0043
25244W        W41318  12.471  12.468  13.770 -0.0205 -0.4652 -0.3281
25245W        W41319  12.698  17.660   2.866  0.0917  0.0783  0.3017
25246W        W41320   5.209   9.585  11.197 -0.0279  0.1345  0.0027
25247W        W41321   2.165   6.230  11.930  0.0369  0.3180  0.3087
25248W        W41322  18.559  18.890  14.782 -0.0611 -0.1147 -0.0050
25249W        W41323   0.392  18.097  10.860 -0.0190  0.0995 -0.0972
25250W        W41324   6.942  11.868   4.470  0.2110  0.2056  0.4801
25251W        W41325   5.409   4.998  10.803 -0.3662  0.0133  0.2247
25252W        W41326   9.123   0.236   1.667  0.0971 -0.1205  0.2704
25253W        W41327   7.820  17.297  12.507 -0.4081 -0.3686  0.1231
25254W        W41328  13.911  11.725   3.192 -0.0252 -0.5855  0.0052
25255W        W41329   8.552  14.194  11.217  0.2341  0.0915  0.0007
25256W        W41330  12.232  18.908   0.142 -0.3497  0.2805 -0.1137
25257W        W41331   7.489   2.022   1.229 -0.2349 -0.1825 -0.1285
25258W        W41332  13.371  18.354  12.902  0.1487 -0.0996  0.0343
25259W        W41333   0.257  12.728   3.479  0.1627  0.1918 -0.2329
25260W        W41334   4.043   8.902  13.970  0.0181 -0.1986 -0.2927
25261W        W41335   6.651  12.236   3.568  0.1418  0.1218  0.3191
25262W        W41336   1.375   7.213   3.711 -0.0381 -0.2287 -0.0003
25263W        W41337   1.302   8.131  10.846 -0.2125 -0.3685 -0.1566
25264W        W41338   2.899  13.254  14.022 -0.2566 -0.1007  0.0185
25265W        W41339  10.279  12.203  13.208  0.1543 -0.1498 -0.0057
25266W        W41340   8.915  11.900  12.722 -0.3256  0.1273  0.1615
25267W        W41341   8.690   1.433   5.029 -0.1228  0.1320 -0.0777
25268W        W41342  12.803   3.226  10.355 -0.0186 -0.2353 -0.3156
25269W        W41343   8.009  15.732   2.906  0.0644  0.3506  0.1575
25270W        W41344   5.369   8.120  12.209  0.0763  0.0470 -0.4866
25271W        W41345   3.884   6.124   3.587  0.0274  0.1020 -0.0210
25272W        W41346   5.039   1.499   1.109 -0.0301  0.2738  0.2259
25273W        W41347  16.335   9.265   5.765  0.0116  0.0425 -0.1894
25274W        W41348   9.991   4.726  13.416  0.3060  0.0416  0.1942
25275W        W41349  11.665   3.262  13.667  0.0309  0.0539 -0.2259
25276W        W41350   0.566   9.091   1.604 -0.1214 -0.2078 -0.0783
25277W        W41351   0.082  19.252   1.377 -0.3886 -0.2185  0.1564
25278W        W41352   6.000   1.100  10.766  0.1084  0.0241  0.2226
25279W        W41353   2.205   6.315  14.882  0.2230 -0.0560 -0.1466
25280W        W41354   2.351   8.211   2.276 -0.0002 -0.0183 -0.3201
25281W        W41355  10.865   9.001  14.053 -0.1010 -0.2170  0.1199
25282W        W41356   8.357  15.277   9.063 -0.2175  0.2745 -0.0742
25283W        W41357   8.198   8.505   0.595 -0.0174  0.0219 -0.1507
25284W        W41358   5.291  16.894  12.001  0.2069  0.1127 -0.3835
25285W        W41359   0.774   5.934  13.267  0.0679  0.0415 -0.4057
25286W        W41360  19.054   0.014   4.275 -0.0923 -0.4850 -0.3657
25287W        W41361   2.464   2.557   3.737  0.0323 -0.0697  0.0404
25288W        W41362   3.433   2.809   1.360 -0.0752 -0.2003  0.2476
25289W        W41363  16.225   1.232   0.231  0.1418 -0.3024  0.0277
25290W        W41364   0.273  14.442  13.473 -0.2912  0.1125  0.0604
25291W        W41365  19.127  16.941   4.153 -0.0301  0.4123  0.1991
25292W        W41366  18.269  18.274   0.665 -0.0001  0.2259 -0.1399
25293W        W41367   2.885   9.681  13.057 -0.0828 -0.0198  0.1148
25294W        W41368  19.285  16.087  13.111 -0.0277  0.0214  0.0100
25295W        W41369   0.039  14.429  11.365 -0.1326  0.1376 -0.0656
25296W        W41370   2.466   6.037   2.177  0.1023  0.1282  0.2696
25297W        W41371  16.846  13.671   1.247  0.1993 -0.1227  0.3808
25298W        W41372   0.169   1.285  12.104 -0.0127 -0.0302 -0.0765
25299W        W41373   8.249   3.175  12.466  0.2432  0.5379  0.0991
25300W        W41374  18.977  13.885   0.274 -0.0981 -0.3525  0.0863
25301W        W41375   3.403   5.985   3.308 -0.2168 -0.0229  0.1952
25302W        W41376  15.001   8.059  13.687  0.2219 -0.1902  0.1322
25303W        W41377  14.222  18.213  14.436  0.1665 -0.2377  0.1877
25304W        W41378   4.119   1.818  12.549 -0.1255 -0.1942 -0.2199
25305W        W41379   0.628   9.594  13.435  0.2600  0.0045 -0.0241
25306W        W41380  12.348   7.569   2.724 -0.2870  0.0547 -0.1214
25307W        W41381  10.802  14.351  12.669  0.1538  0.1562  0.2449
25308W        W41382   5.439   9.297   4.507 -0.1557  0.0799  0.1361
25309W        W41383  16.468   5.763   2.680 -0.1583  0.2416 -0.0770
25310W        W41384   7.803   1.887  12.285 -0.1315 -0.0712  0.1649
25311W        W41385   5.245  19.175   9.928 -0.1584 -0.0040 -0.2271
25312W        W41386   0.923   5.583  12.908 -0.0996  0.1431  0.0233
25313W        W41387   6.163   3.766  14.754 -0.3654 -0.0932  0.0098
25314W        W41388   4.118  11.756   5.768 -0.2581  0.0429 -0.0137
25315W        W41389  15.634   5.778  11.461  0.0469  0.0093  0.0637
25316W        W41390   7.413  19.004  13.646 -0.1414 -0.2909 -0.3040
25317W        W41391   6.511  18.215   9.350  0.0030 -0.0936  0.0530
25318W        W41392   6.088  13.397  12.536 -0.1144 -0.0925  0.1664
25319W        W41393   4.630  18.456  10.447  0.0840  0.1311 -0.0245
25320W        W41394  16.308  13.644   4.307 -0.0850  0.3066  0.0194
25321W        W41395  14.990  11.136   1.457  0.0161 -0.0068 -0.1184
25322W        W41396   8.179  11.380   3.966 -0.2736  0.2751 -0.1915
25323W        W41397  18.170  14.106  14.790  0.3133 -0.3222  0.4135
25324W        W41398  17.867  10.254   5.418 -0.1362  0.0579  0.2440
25325W        W41399  13.601  17.593   4.370 -0.0917  0.2716  0.1939
25326W        W41400  13.762  10.056   2.227 -0.1104 -0.1302  0.1693
25327W        W41401   7.265   6.862   4.983 -0.3845 -0.0933  0.0985
25328W        W41402   7.255   0.144  11.879  0.0154  0.2634 -0.1422
25329W        W41403  19.249  16.465   2.744 -0.2829  0.3145  0.1170
25330W        W41404  12.301   3.505  11.357 -0.1019  0.0533 -0.0173
25331W        W41405  14.787  16.123  14.040 -0.1264 -0.3788  0.2556
25332W        W41406   5.235  15.325  11.047 -0.0086  0.1844  0.0833
25333W        W41407  14.747  16.633  10.904  0.1415  0.3153 -0.1832
25334W        W41408   3.067  17.561  14.485  0.2383 -0.1633  0.2848
25335W        W41409  11.025  16.671  12.730 -0.0791 -0.1463  0.0797
25336W        W41410  10.546  19.100  12.913 -0.3846 -0.1356  0.1778
25337W        W41411   3.472  12.516  13.646  0.3782 -0.1517  0.1931
25338W        W41412   6.712   9.562  11.524  0.0679 -0.1247  0.0310
25339W        W41413   9.530  18.716   0.036  0.2333 -0.0124 -0.4074
25340W        W41414  15.118   3.843  13.657  0.3847 -0.1431 -0.2587
25341W        W41415  12.141   5.881  13.996 -0.0040 -0.3107  0.3423
25342W        W41416   6.825  11.353  11.284  0.0650  0.0954 -0.0021
25343W        W41417   3.502   1.538   3.350 -0.0366 -0.0910 -0.2903
25344W        W41418  16.433  14.591  11.187  0.1633  0.3691 -0.0430
25345W        W41419  11.850  18.497  12.800 -0.1438 -0.2798  0.2676
25346W        W41420  18.530  10.283   2.085  0.1244 -0.1721  0.2194
25347W        W41421  15.701   1.938  13.575 -0.0920  0.1132  0.0312
25348W        W41422  17.098  19.277  14.196 -0.4156 -0.0062 -0.1276
25349W        W41423   3.749   0.079  14.656  0.4775  0.0345 -0.2733
25350W        W41424   7.870  18.502  11.767 -0.0835 -0.1247 -0.1333
25351W        W41425  14.606  12.010  14.876 -0.0714 -0.0097  0.2302
25352W        W41426   7.119  11.109  13.883  0.2179  0.1030  0.0502
25353W        W41427   0.581   7.410   3.054 -0.3087  0.1346  0.0757
25354W        W41428  15.195  10.720   2.331  0.0747 -0.0514  0.0248
25355W        W41429   5.566  12.038   3.976  0.0111 -0.1509 -0.1688
25356W        W41430  12.475   7.431  13.862  0.0654  0.3379 -0.2411
25357W        W41431   2.976  19.169   3.342 -0.1276  0.3516  0.1490
25358W        W41432   4.163   5.591   2.022  0.3787  0.3347  0.1390
25359W        W41433   7.099  10.776  10.375  0.0787 -0.1414  0.0409
25360W        W41434  10.326   8.218  11.447  0.1322  0.2125 -0.0448
25361W        W41435   4.918   5.026  11.424 -0.0462  0.0363 -0.3588
25362W        W41436   7.009  11.023  11.652 -0.2096 -0.0708 -0.0194
25363W        W41437   0.572   3.274  10.072 -0.0785  0.5475  0.2456
25364W        W41438   1.026  13.755  10.790 -0.0816  0.0554 -0.2307
25365W        W41439  17.336  17.209   1.646  0.2141  0.0627 -0.1495
25366W        W41440  17.728   6.786  14.667 -0.0303  0.1551 -0.2244
25367W        W41441   2.383  13.581   2.127  0.0411 -0.2399  0.0132
25368W        W41442   1.599   0.686   2.272 -0.0686  0.1106  0.1754
25369W        W41443  14.406  10.392   4.191 -0.1797  0.0998 -0.2980
25370W        W41444  11.668   1.440   4.094 -0.2087  0.0683  0.0109
25371W        W41445   8.435  17.462  11.339  0.0624  0.2566  0.1715
25372W        W41446   9.880  15.056   4.308  0.0166 -0.1632 -0.1539
25373W        W41447   8.247   9.588  12.842 -0.0368 -0.0109 -0.0113
25374W        W41448   0.346  11.533  13.414  0.0026  0.0973  0.0133
25375W        W41449   7.528   3.692  12.254  0.0359 -0.2027 -0.0512
25376W        W41450   0.395  16.608   0.087  0.0962  0.4366  0.0186
25377W        W41451   5.667  14.073   4.908 -0.0772  0.4108  0.0142
25378W        W41452   6.913  14.118   4.275 -0.1981  0.1366  0.2529
25379W        W41453   2.841  17.651   0.620  0.3435  0.1905 -0.0021
25380W        W41454  11.759   8.692  14.347 -0.0085  0.3101  0.0375
25381W        W41455  10.335   3.947  10.363  0.0655  0.3657 -0.1549
25382W        W41456   8.078  18.299  11.326 -0.0082 -0.1991 -0.2068
25383W        W41457   2.075   0.022   3.806 -0.0499  0.2678  0.1439
25384W        W41458  14.111   7.556   4.889  0.0079 -0.0088 -0.1033
25385W        W41459  17.050   2.569   4.624 -0.0642  0.1876  0.0705
25386W        W41460   1.807   7.187  14.591 -0.5048  0.0958 -0.2965
25387W        W41461   2.105   8.040   0.043  0.4145 -0.3390 -0.1388
25388W        W41462  17.964   6.853  14.227  0.0868 -0.1909 -0.0961
25389W        W41463  15.460  14.273  14.187  0.2863  0.1410  0.2414
25390W        W41464   8.289   7.725  12.078  0.2509 -0.0527 -0.0335
25391W        W41465   1.008   6.773  12.194  0.2082 -0.2978 -0.1304
25392W        W41466   5.603  10.002   2.686 -0.0446 -0.4023  0.0786
25393W        W41467   4.765  18.851   9.115  0.0787 -0.1050  0.1646
25394W        W41468   6.040  15.985  11.290  0.4087 -0.0871  0.1091
25395W        W41469   1.585  13.712  12.864 -0.1270 -0.0274  0.1865
25396W        W41470  15.284   5.375   2.150 -0.4544  0.1007 -0.1661
25397W        W41471  12.909  17.170  10.720  0.2205  0.1040 -0.1313
25398W        W41472  18.158   0.496   2.775  0.4209 -0.3064  0.1053
25399W        W41473   4.484   8.423  14.790 -0.1419 -0.0269  0.2280
25400W        W41474  19.193  13.758  14.647 -0.1684 -0.1802  0.4214
25401W        W41475   6.866   5.163   3.871 -0.3716  0.2854  0.1524
25402W        W41476  13.532   7.870  13.249  0.0020  0.0485 -0.0969
25403W        W41477  16.727   6.367   1.787 -0.1552 -0.3972 -0.1482
25404W        W41478  18.803   8.884   1.547 -0.2167  0.1621  0.0382
25405W        W41479  18.317   2.319  12.980 -0.1293  0.1908 -0.2446
25406W        W41480   3.304   0.254   3.021 -0.3500 -0.1099 -0.0845
25407W        W41481   1.286   5.935  13.332  0.3345 -0.2318 -0.0419
25408W        W41482  15.939  14.990   0.362  0.0036  0.0520  0.0745
25409W        W41483  13.587   5.381  11.602  0.2133  0.2175 -0.2576
25410W        W41484  18.907   3.539  14.091  0.0578  0.1121  0.0873
25411W        W41485   3.592  12.184  11.630 -0.1243  0.0510  0.1568
25412W        W41486  17.522  14.392  13.212  0.2088  0.0618  0.2514
25413W        W41487   0.983   6.289  12.236  0.5561  0.0733  0.1930
25414W        W41488  13.656   7.148  14.795 -0.0768  0.2504 -0.2458
25415W        W41489   0.051  15.777   0.462  0.0486  0.2228  0.2411
25416W        W41490  10.526  12.456  12.866  0.3536  0.1641 -0.2263
25417W        W41491   3.719   7.003  11.426 -0.0609  0.1853  0.0455
25418W        W41492   5.001   5.129   4.547 -0.1580 -0.1921 -0.0760
25419W        W41493   8.912   4.442   4.680  0.1857 -0.2657  0.0111
25420W        W41494   2.393   1.288   2.422  0.1014  0.0465 -0.0247
25421W        W41495  12.779  14.183  11.752  0.1830 -0.0239  0.1120
25422W        W41496  11.311  18.154   2.609 -0.0830  0.2446 -0.1803
25423W        W41497   8.011  10.921  14.000 -0.0370  0.2079 -0.4143
25424W        W41498  15.507   8.425   4.065 -0.1319 -0.2669 -0.4471
25425W        W41499   4.171   3.114   0.898 -0.0271  0.2657  0.0175
25426W        W41500  12.546   6.196   0.450  0.3997  0.0431 -0.2872
25427W        W41501  16.679  13.585   0.319  0.3071  0.0995 -0.2891
25428W        W41502   2.328   3.349   1.358 -0.2261 -0.0141  0.2702
25429W        W41503  10.336   8.747   3.315  0.1070  0.0544 -0.2495
25430W        W41504  13.829  11.206  13.991 -0.1286 -0.1727  0.1274
25431W        W41505   8.984   8.757  12.777 -0.0401 -0.1061  0.1297
25432W        W41506   9.997   3.158   1.395 -0.1508 -0.2708 -0.0911
25433W        W41507  18.941   1.388   3.000  0.0890  0.1690  0.1572
25434W        W41508  14.701   7.177   0.019  0.0230  0.1107  0.2987
25435W        W41509  10.573  16.233  14.502 -0.3725 -0.2868  0.0917
25436W        W41510  13.914  15.016   1.543  0.1246 -0.2349 -0.1172
25437W        W41511  17.400   1.328   4.512  0.5407 -0.5854  0.0662
25438W        W41512  14.139   7.946   0.947  0.0175  0.1762 -0.0235
25439W        W41513  13.968  15.178   9.571 -0.0276 -0.3656 -0.1825
25440W        W41514  17.770   4.646   3.974  0.2307  0.2846 -0.0616
25441W        W41515   4.798  14.131  11.884  0.0113 -0.0851  0.0947
25442W        W41516   6.536   2.053  12.201 -0.2493  0.1768 -0.2155
25443W        W41517  11.276  11.770   2.352 -0.0269 -0.0959 -0.0796
25444W        W41518  11.826   2.808   3.259  0.0099  0.0364  0.5820
25445W        W41519   5.161  14.956   0.264  0.0980 -0.2171 -0.0118
25446W        W41520  12.099   8.676  12.205  0.3553 -0.0117  0.2988
25447W        W41521  10.718   4.861   1.913 -0.0522 -0.1784 -0.0172
25448W        W41522   0.595   2.257   0.099 -0.0267  0.1261 -0.2835
25449W        W41523   0.948   5.102   1.747  0.2483 -0.0777 -0.0993
25450W        W41524   0.274   9.837  12.153 -0.0011  0.3166 -0.0263
25451W        W41525   3.928  15.201   3.389  0.0752  0.0349 -0.0900
25452W        W41526   6.115   4.653   2.579 -0.1741 -0.2346  0.0279
25453W        W41527   3.020   8.500   4.381 -0.4358  0.2577  0.0736
25454W        W41528   8.559   2.838   3.290  0.1409  0.2158 -0.0332
25455W        W41529  16.769  14.299   0.861 -0.1393 -0.0092 -0.0710
25456W        W41530  11.263   1.119  11.647 -0.1151 -0.1074 -0.0838
25457W        W41531  18.031  17.744  11.634  0.2863 -0.0127 -0.0351
25458W        W41532   4.049  12.571   5.594 -0.1029  0.3118  0.0480
25459W        W41533   3.687   9.179   3.202  0.1930 -0.0174 -0.0117
25460W        W41534  10.245  11.960   2.408 -0.0718  0.3298  0.1359
25461W        W41535   6.106   2.667  13.800  0.0185  0.0816  0.0279
25462W        W41536   0.530  11.119  14.376  0.0183  0.3330 -0.4591
25463W        W41537  12.575   8.095  13.230 -0.0307 -0.0051 -0.0902
25464W        W41538  11.378   0.117   3.050  0.1451 -0.1889  0.0665
25465W        W41539   4.717   1.074   0.980  0.1134 -0.0050  0.0558
25466W        W41540  10.672  16.694   4.063 -0.0891  0.1672 -0.0488
25467W        W41541   0.403  18.828   2.651  0.1807  0.1517  0.0196
25468W        W41542   2.950  19.159  14.967  0.0344 -0.1259  0.2398
25469W        W41543   9.565   0.446  13.690  0.0096 -0.0006  0.2320
25470W        W41544  12.426   2.104  13.468  0.2439  0.4246 -0.2780
25471W        W41545   1.956  11.559   4.568  0.0113 -0.2733 -0.2882
25472W        W41546   0.272  13.101   3.928 -0.0105 -0.2009  0.1587
25473W        W41547  14.311   2.835   3.314 -0.2464  0.3197 -0.1975
25474W        W41548   9.843   9.935  14.105 -0.1672 -0.0004  0.5352
25475W        W41549   1.256  13.616   2.549 -0.3666  0.1000 -0.2525
25476W        W41550   3.879  17.660  10.836  0.3001 -0.0265 -0.3737
25477W        W41551   4.022  11.300   5.666 -0.0360  0.1886 -0.1217
25478W        W41552  15.600  18.179   1.641  0.1660 -0.2448  0.3044
25479W        W41553  16.328   0.341  11.239 -0.1333  0.0572  0.0042
25480W        W41554  10.678  14.405   9.101  0.1392  0.1164 -0.2764
25481W        W41555  14.196   5.329   2.838  0.1501 -0.0898  0.0328
25482W        W41556   8.745   2.002   1.177 -0.0207  0.2158 -0.2537
25483W        W41557   3.692   6.752  13.641 -0.0191 -0.1270  0.0720
25484W        W41558  18.118  18.915  10.588  0.0255 -0.0814  0.0307
25485W        W41559  15.151   1.350   1.045 -0.1530 -0.2189  0.0931
25486W        W41560  13.724   4.774   5.205 -0.1698  0.0002  0.1124
25487W        W41561   3.925  14.984   4.033  0.3435  0.2834  0.0615
25488W        W41562   5.495  16.456  13.575 -0.0031 -0.0745  0.3448
25489W        W41563   7.263   2.187   3.301 -0.3437  0.2776 -0.1120
25490W        W41564   6.972   6.989   1.701  0.3856  0.1808 -0.1101
25491W        W41565  14.028   8.703   0.069  0.1266 -0.2828  0.0867
25492W        W41566   9.122   1.995  11.264 -0.1184  0.0306  0.0670
25493W        W41567   2.846  16.145   1.775  0.1034 -0.1363  0.0522
25494W        W41568   1.090  11.215  14.242 -0.1820 -0.0621 -0.1313
25495W        W41569  10.663   0.476  10.625 -0.1447 -0.3045  0.0341
25496W        W41570   5.726   4.335  14.529  0.1042  0.1425  0.0298
25497W        W41571  16.411   5.357   4.278 -0.0798  0.2630 -0.0745
25498W        W41572   0.061  14.905  10.649 -0.1457  0.0164  0.0397
25499W        W41573  17.156  12.670   2.900  0.2052 -0.3582  0.0240
25500W        W41574  16.637  11.286  14.737  0.2281 -0.0793  0.0975
25501W        W41575   1.529   3.469   2.193 -0.3642  0.2454  0.0982
25502W        W41576  16.932  13.182  13.945  0.2097  0.1490 -0.1023
25503W        W41577   4.307   4.569   2.819 -0.1736  0.3351  0.1789
25504W        W41578   5.325  14.549  13.491  0.2343  0.4304  0.0132
25505W        W41579   2.370  18.050  11.380 -0.0867 -0.0938 -0.0702
25506W        W41580   7.165  17.623   3.779  0.1436  0.0748 -0.0582
25507W        W41581   8.831   5.588   2.574  0.1145 -0.3388 -0.2126
25508W        W41582  12.791   2.899   4.636 -0.3428  0.0296  0.2159
25509W        W41583   6.320  10.283  11.719  0.0599 -0.2215 -0.3369
25510W        W41584   3.352   7.366   3.806 -0.0413 -0.0690 -0.0176
25511W        W41585   1.732   6.491  14.068 -0.1542 -0.1491  0.2458
25512W        W41586   1.992   8.391   1.188  0.2717 -0.0444  0.2169
25513W        W41587   9.931  18.070   3.723 -0.0355  0.0745  0.0860
25514W        W41588   9.367   6.967   1.112  0.4118  0.0025  0.0816
25515W        W41589  10.005   5.241   9.495  0.1332  0.5531 -0.3079
25516W        W41590   4.878   9.141  10.593 -0.0243  0.0306 -0.3197
25517W        W41591  18.086  11.348   4.926  0.1278  0.3579  0.1583
25518W        W41592   2.434   5.011  11.057 -0.1162  0.0517  0.0358
25519W        W41593   5.062  18.054  12.362  0.0938  0.1688 -0.1059
25520W        W41594   8.189   7.848   0.576 -0.0537  0.0448 -0.0784
25521W        W41595  14.183   6.974  14.098 -0.2105  0.1219  0.1568
25522W        W41596  15.703   9.232  14.723 -0.1431 -0.1014  0.1763
25523W        W41597  13.473  16.866  14.510  0.2719 -0.0915  0.0298
25524W        W41598  15.451   4.794  14.476  0.1887 -0.0156 -0.1060
25525W        W41599  16.140  16.534  14.466  0.0591  0.1388 -0.0424
25526W        W41600  15.181  18.043   5.344 -0.1096 -0.1074  0.0215
25527W        W41601   3.550   2.316  13.111  0.3031  0.1434 -0.2463
25528W        W41602  19.184  16.764   1.507 -0.0038  0.1958 -0.0657
25529W        W41603   6.875  17.441  10.366  0.2176  0.0982 -0.4456
25530W        W41604   3.208   1.993   1.033  0.0634 -0.3391 -0.0996
25531W        W41605   5.888  15.069   2.404  0.0042 -0.0856  0.1920
25532W        W41606   6.320  10.611  10.768 -0.2553 -0.0045 -0.1900
25533W        W41607   8.613   7.716  10.309 -0.0856  0.0240  0.4344
25534W        W41608  13.088  16.762   0.599 -0.4570  0.1393  0.3177
25535W        W41609   2.585   2.654   4.673 -0.2818  0.0700 -0.4893
25536W        W41610  10.846  12.838  10.492 -0.1349  0.2278  0.1484
25537W        W41611  11.334  18.173  11.696  0.2312  0.0555  0.2129
25538W        W41612   8.336  16.904  14.265  0.0370 -0.1834 -0.2550
25539W        W41613   0.169  11.638   1.674  0.0863 -0.0552 -0.0359
25540W        W41614  11.224  18.807  11.772  0.1632 -0.0280  0.0132
25541W        W41615   0.310  10.197   1.305  0.0205 -0.1158  0.1427
25542W        W41616  12.257   1.572   0.148 -0.0703  0.1471 -0.0709
25543W        W41617  10.965   4.763   3.769 -0.1654 -0.0549  0.1505
25544W        W41618  12.187   4.980   1.492  0.2094  0.0463  0.2320
25545W        W41619  16.383   7.480  12.552  0.0613  0.2729  0.1298
25546W        W41620   4.306  11.092   1.588  0.1897 -0.1068  0.0227
25547W        W41621  12.886   6.985  10.846 -0.2018 -0.3312 -0.0155
25548W        W41622  17.017   2.148  14.284  0.3349  0.1280 -0.0471
25549W        W41623   1.969  19.165  12.981 -0.1297 -0.0271  0.0633
25550W        W41624   4.171  13.494  11.175  0.2545 -0.0222  0.1558
25551W        W41625   2.755   1.884   3.104 -0.0976  0.0478  0.1028
25552W        W41626   3.580   7.862  12.801  0.2041 -0.2443 -0.4032
25553W        W41627   9.554   9.239   3.205  0.2082 -0.3769  0.2611
25554W        W41628   0.421   0.526   3.717  0.0026  0.2311  0.3922
25555W        W41629  15.263   2.078   4.371  0.2099  0.1461 -0.4978
25556W        W41630  13.667  11.721   2.663 -0.1827  0.2912 -0.2614
25557W        W41631   1.275  17.979   2.885 -0.0700 -0.2662 -0.2148
25558W        W41632   8.131   7.414  14.574 -0.3480  0.0608  0.1780
25559W        W41633   2.441   9.602  10.943 -0.0574 -0.0187  0.0118
25560W        W41634   9.700  15.289   0.342 -0.0101  0.1322  0.2037
25561W        W41635   0.699   8.743   6.052  0.1779 -0.0827 -0.3203
25562W        W41636  17.429  17.992   1.828  0.1079 -0.2935  0.0269
25563W        W41637   2.691   2.013   1.149  0.5576 -0.0213 -0.3231
25564W        W41638   4.649   3.844  12.234  0.2235  0.0441  0.0015
25565W        W41639   8.759  13.978  12.937 -0.1015 -0.0104 -0.0251
25566W        W41640  17.068   0.239   9.409 -0.1395 -0.1654 -0.1006
25567W        W41641  12.017  15.836  12.716  0.1416 -0.1830 -0.0057
25568W        W41642  18.571  10.498   3.558  0.0751 -0.0789 -0.1957
25569W        W41643  18.011  13.119   1.900  0.0215 -0.1289 -0.0851
25570W        W41644   7.139   3.211   9.703 -0.1157 -0.1342 -0.0950
25571W        W41645  18.341   6.574   0.899  0.4174  0.2361  0.0920
25572W        W41646   5.515  16.820  12.886 -0.1844 -0.1674 -0.0360
25573W        W41647   5.571   3.015  12.424  0.0944  0.1212  0.0174
25574W        W41648   7.184  10.213   4.357 -0.1015 -0.5341  0.0294
25575W        W41649   8.736   4.015  10.931 -0.3158 -0.1720 -0.2599
25576W        W41650   7.343  11.363  11.417 -0.1904  0.2400  0.1444
25577W        W41651   6.462  16.910  11.683 -0.2402 -0.2203  0.2066
25578W        W41652  10.070  10.066  12.317 -0.2557  0.0697 -0.2155
25579W        W41653   9.983  10.447  11.573 -0.2353  0.1797 -0.0663
25580W        W41654   0.718  16.474   0.837  0.0796  0.1376 -0.0113
25581W        W41655  14.496   2.204   2.616  0.1566 -0.0896  0.2572
25582W        W41656  16.168  16.008  11.901  0.2778  0.1269  0.1240
25583W        W41657   2.332   7.134   2.779 -0.1748  0.5079 -0.0886
25584W        W41658   4.161   3.362   0.493  0.1056  0.2868  0.5174
25585W        W41659  16.394   4.947  13.657  0.2285  0.0125 -0.1956
25586W        W41660   6.512   3.555   0.329 -0.0755 -0.1019  0.0749
25587W        W41661  16.132  18.273  12.957  0.2598 -0.0924 -0.0566
25588W        W41662   3.885  15.710   3.405 -0.3310 -0.1139 -0.2976
25589W        W41663  17.125  16.022   3.636  0.1713  0.2206  0.0646
25590W        W41664  18.720  11.993   2.697 -0.0613 -0.2062 -0.2031
25591W        W41665  16.241   1.299   1.052 -0.2074  0.2006  0.2208
25592W        W41666   4.990  14.351   2.470  0.1096  0.1410 -0.1383
25593W        W41667  17.673   7.892  13.857  0.1586 -0.1667 -0.0779
25594W        W41668  10.710  10.787   2.545 -0.0819 -0.0947 -0.0288
25595W        W41669   7.314   7.367   5.051  0.0458 -0.1108 -0.1420
25596W        W41670   6.136  16.102   2.041 -0.0275 -0.2060  0.1443
25597W        W41671   2.507  18.405  10.172 -0.0992  0.1360 -0.2831
25598W        W41672   5.320  10.876   5.081 -0.4299 -0.1824  0.2359
25599W        W41673  14.180  16.154   2.122 -0.2732 -0.1061  0.0019
25600W        W41674   9.903  13.906  10.235 -0.3129 -0.3647  0.0597
25601W        W41675  11.631  18.542  11.645  0.0464  0.1420  0.0132
25602W        W41676   0.985   7.707  13.557  0.1672 -0.3148  0.1355
25603W        W41677  11.932  19.123   9.793 -0.0806 -0.0512  0.1391
25604W        W41678   4.688   2.609  12.147  0.1403  0.1534  0.0550
25605W        W41679   6.029   2.787  14.710 -0.1390 -0.1124  0.0848
25606W        W41680  16.917  16.227   2.460 -0.2794  0.1308 -0.2533
25607W        W41681   5.186  18.647   1.764  0.1284  0.0741  0.0252
25608W        W41682   1.993   2.268  12.779 -0.0276  0.1124  0.1516
25609W        W41683  16.858  14.127  13.972 -0.3062  0.1025  0.0898
25610W        W41684   2.375  16.350   4.970  0.1622 -0.0016  0.0558
25611W        W41685  16.197   2.553   2.484 -0.0900  0.3160 -0.0370
25612W        W41686   4.786   6.375   2.319  0.0710  0.0228  0.1855
25613W        W41687  15.222   5.647   4.008  0.1504 -0.2126  0.1629
25614W        W41688   5.157   3.390  13.968  0.1833  0.3388  0.2239
25615W        W41689   9.165   2.268   1.428 -0.0156 -0.1083 -0.1007
25616W        W41690  11.253   1.766   2.749 -0.0772  0.1916 -0.3895
25617W        W41691   0.385  12.563   2.007  0.0500  0.1382  0.2753
25618W        W41692  10.720  10.347  10.641  0.1618 -0.1616  0.2064
25619W        W41693   4.715   8.650  13.289  0.0171  0.0990 -0.0054
25620W        W41694   9.502  13.601  10.382  0.3153 -0.0463  0.1350
25621W        W41695   1.440  10.813   3.756  0.0847 -0.0123  0.0546
25622W        W41696   7.994   5.856   1.959 -0.3255  0.0942 -0.1497
25623W        W41697  16.044   2.107  11.839 -0.4455  0.1361  0.0407
25624W        W41698  12.248   7.514  14.789  0.0549  0.2053  0.1979
25625W        W41699  17.698  13.304   0.307  0.0909 -0.1577  0.1849
25626W        W41700  10.864   8.924   9.417  0.1775 -0.0005 -0.2891
25627W        W41701  12.341  11.362  10.749 -0.3266 -0.3437  0.0965
25628W        W41702   0.076   7.262  12.056 -0.1860 -0.0932  0.0677
25629W        W41703   7.387   4.465   0.954 -0.3008  0.0285 -0.1094
25630W        W41704   1.251   3.070   2.016  0.0275 -0.0349 -0.0847
25631W        W41705   4.449   6.872   4.823 -0.1554 -0.1894  0.2680
25632W        W41706   2.656   9.401   1.058  0.0844 -0.2735 -0.2323
25633W        W41707  14.772  15.551  13.815  0.3143 -0.2846 -0.1364
25634W        W41708   7.659  13.106  10.136  0.3684 -0.1177 -0.4041
25635W        W41709  17.246  16.598  11.407  0.4605 -0.0790  0.0038
25636W        W41710  17.499  11.376   3.230  0.0585  0.3490  0.0177
25637W        W41711  16.753  17.025   4.608 -0.1325 -0.3524 -0.2016
25638W        W41712   2.077  10.166  11.636 -0.0093 -0.0117 -0.1723
25639W        W41713   8.423  18.621   2.230  0.2936 -0.0358 -0.1189
25640W        W41714   9.572   2.609  14.651  0.2060 -0.0686 -0.1000
25641W        W41715  13.035   1.516  10.784 -0.0118 -0.1567 -0.4022
25642W        W41716   5.655   5.984  12.692  0.0889  0.1600  0.0415
25643W        W41717   7.893   9.484  13.350 -0.0673 -0.0895 -0.1012
25644W        W41718   9.457  17.297   3.213 -0.1509  0.0785  0.0059
25645W        W41719   4.298   4.430   4.242 -0.3654 -0.0834  0.3775
25646W        W41720  12.388   1.505  12.588 -0.2017  0.1706  0.1270
25647W        W41721  19.332   6.298   4.998  0.4041  0.0333 -0.0684
25648W        W41722   5.541  15.154   3.290 -0.2638 -0.2592 -0.1144
25649W        W41723   9.149   5.385  14.488  0.1002 -0.0632  0.2624
25650W        W41724   9.059  19.061   2.690 -0.1240  0.3333 -0.1314
25651W        W41725  11.684  17.392   1.837 -0.1403  0.2711  0.2083
25652W        W41726  16.748   7.091  13.862 -0.1065 -0.2475  0.1103
25653W        W41727  13.609  12.764   2.437 -0.1878 -0.0329 -0.1128
25654W        W41728   9.580   3.579  14.062  0.3472  0.1751  0.1205
25655W        W41729  12.727   2.877   3.645  0.1851  0.2365 -0.3247
25656W        W41730   6.222  15.805  14.403  0.0087  0.0117  0.5187
25657W        W41731   8.608   4.792  11.905  0.2532 -0.1071 -0.0726
25658W        W41732   4.989  12.697   1.597  0.1032  0.1409 -0.1094
25659W        W41733  19.083  18.578   3.043 -0.1781 -0.1055  0.1818
25660W        W41734   3.048   9.868  13.858 -0.0392 -0.0116  0.2363
25661W        W41735   5.342   7.852   4.283 -0.1400  0.0121 -0.0301
25662W        W41736  13.434   9.777   0.051 -0.0506  0.2690  0.0569
25663W        W41737   2.606   4.264  12.551  0.1514  0.0203  0.1179
25664W        W41738  13.312  14.041   3.686  0.1977  0.0804  0.1601
25665W        W41739   5.514  14.934  11.818 -0.3071 -0.0870 -0.4563
25666W        W41740   6.682   6.525   0.982  0.1295 -0.1380 -0.0486
25667W        W41741   4.724  15.573  10.866  0.0931 -0.0381  0.0984
25668W        W41742   7.871  12.840   3.573 -0.0582  0.0318 -0.1791
25669W        W41743  14.754   8.414  14.363  0.1716  0.2066  0.1982
25670W        W41744   8.246   4.317  14.463  0.0915  0.0737 -0.0485
25671W        W41745  15.465  16.309  14.072  0.0056 -0.1670  0.2112
25672W        W41746   5.445  17.404   2.068  0.2421  0.0215  0.0617
25673W        W41747   6.115   6.636   0.157  0.0773  0.1881 -0.2849
25674W        W41748   6.080   5.140  14.456 -0.0243  0.1773  0.0688
25675W        W41749   0.831   3.236   4.784 -0.0624  0.2305 -0.1542
25676W        W41750  16.670   7.841   1.934 -0.0044  0.0538 -0.0166
25677W        W41751  12.051  17.425   9.964 -0.0329 -0.0534  0.2441
25678W        W41752   6.409   7.728  13.952 -0.2162  0.0396  0.1302
25679W        W41753   8.745  19.258   1.127 -0.1120 -0.2734  0.0418
25680W        W41754  16.112  18.651   4.340  0.1547 -0.0169 -0.1097
25681W        W41755   7.694  10.450  14.210 -0.1151  0.1672 -0.0537
25682W        W41756   6.967   1.426  11.672  0.1059 -0.0569  0.1636
25683W        W41757   5.299  18.716   0.961 -0.0949 -0.1078 -0.1939
25684W        W41758   0.401   1.600  11.745 -0.0606  0.0512  0.1276
25685W        W41759  12.337  11.428   9.925  0.0537  0.1161 -0.2096
25686W        W41760   4.202  19.228   2.666  0.0248 -0.4649  0.0884
25687W        W41761   5.430  13.985   0.897  0.0924  0.3006 -0.0308
25688W        W41762  19.182  12.008   3.671 -0.0310 -0.6093 -0.3945
25689W        W41763  10.509   1.447   1.165  0.0605  0.0074  0.0237
25690W        W41764   2.583  14.449   0.217 -0.0245 -0.0057  0.0163
25691W        W41765   1.316   7.657   1.585  0.3609  0.0417  0.4785
25692W        W41766   4.959  17.243   3.875  0.2759  0.0791  0.1069
25693W        W41767  15.175   3.543   1.253 -0.2159 -0.2371  0.2015
25694W        W41768   0.979   8.497   1.513 -0.2609 -0.0182 -0.1050
25695W        W41769   5.480  13.992  12.406  0.0795 -0.2737 -0.1045
25696W        W41770   3.884   4.519  10.767  0.0563  0.2189  0.0242
25697W        W41771  11.843   6.813   2.019  0.2799  0.1294 -0.0435
25698W        W41772   4.632  19.209  11.575 -0.2271  0.0656  0.1701
25699W        W41773  18.770   2.478  12.898 -0.1268  0.2067  0.3019
25700W        W41774  14.894   2.897   3.157  0.3561 -0.0980  0.0066
25701W        W41775   2.851  15.151   9.385 -0.0306 -0.1101  0.0453
25702W        W41776   3.220  12.482   1.768 -0.1189 -0.0578 -0.1018
25703W        W41777  14.259  10.820   1.377  0.0150  0.0568  0.0749
25704W        W41778   4.806  15.721  11.870  0.1341 -0.0841 -0.1805
25705W        W41779   9.961   4.400   8.639 -0.0217 -0.0311 -0.1829
25706W        W41780   8.939  10.532   4.354  0.1526 -0.2057  0.2361
25707W        W41781   3.289  10.636  12.622  0.3123  0.1701 -0.0808
25708W        W41782  16.421   4.098  10.383 -0.0408 -0.1253  0.2661
25709W        W41783  12.931  18.450  10.276 -0.2214  0.1440  0.0172
25710W        W41784   9.649  18.479   0.477 -0.0041 -0.1121  0.2306
25711W        W41785   0.052   0.419   4.571  0.2544  0.1057 -0.0147
25712W        W41786  15.105  17.686   2.479  0.1484  0.1206  0.2882
25713W        W41787   0.823  17.863   3.695 -0.2731 -0.0936 -0.1220
25714W        W41788  15.657   5.616   2.574  0.1180  0.2128 -0.0600
25715W        W41789   8.119   2.190   0.967 -0.0880 -0.1286 -0.1733
25716W        W41790  12.419  15.620   1.956 -0.0966  0.0061  0.0035
25717W        W41791  12.221  18.681   9.952  0.3222  0.1295  0.1153
25718W        W41792   0.138  14.309   0.891  0.3128  0.1748 -0.0206
25719W        W41793   2.255   2.064   2.327 -0.1235 -0.0332  0.2684
25720W        W41794   2.541   1.555  10.451  0.0312 -0.0996  0.0383
25721W        W41795   8.118   7.813   5.051 -0.0208 -0.1019 -0.0956
25722W        W41796   1.004  17.244  14.137  0.0294  0.0841 -0.4447
25723W        W41797   9.799   8.662  12.456  0.3222 -0.1181 -0.0709
25724W        W41798  18.076  12.674   4.207 -0.0647  0.1375  0.2494
25725W        W41799   7.601   8.016  13.511  0.0387  0.2709  0.2209
25726W        W41800  17.636  16.292  14.805 -0.1802 -0.2026 -0.1113
25727W        W41801  15.911   3.510   0.436 -0.2133 -0.1812  0.0410
25728W        W41802   4.658   3.264   0.558 -0.1180  0.2186 -0.2512
25729W        W41803   4.649  16.022  10.651  0.0004  0.4393 -0.0617
25730W        W41804  15.685  15.129  13.606  0.1504  0.2121  0.0185
25731W        W41805   4.928   4.143   0.125 -0.2971  0.1706 -0.1943
25732W        W41806  19.339   7.118   0.348 -0.1212  0.1382 -0.0554
25733W        W41807  11.539   9.836  14.360 -0.1748  0.2121  0.0016
25734W        W41808  15.606  14.727  10.585 -0.1526 -0.4262 -0.1139
25735W        W41809  11.692   4.458  11.805 -0.2267  0.3317  0.1473
25736W        W41810  17.960  11.393  13.257  0.0607 -0.0599 -0.0450
25737W        W41811  11.017  14.046   2.914  0.0253  0.1224 -0.0866
25738W        W41812  17.737   2.164  13.722 -0.0695  0.1563  0.5053
25739W        W41813   7.328  10.273  14.835  0.1696 -0.0636 -0.2146
25740W        W41814  18.875   8.888   0.332  0.0270 -0.0931  0.3412
25741W        W41815  10.612   2.488  12.347  0.3883 -0.0324 -0.4079
25742W        W41816   6.163   4.311  10.663 -0.1448  0.0939  0.1361
25743W        W41817   3.578   0.475   2.632  0.1694 -0.2795  0.0749
25744W        W41818   4.782   0.120  13.303  0.0639 -0.1556 -0.2824
25745W        W41819  13.209  10.573  13.894  0.2751 -0.1920  0.2132
25746W        W41820   1.793   8.772  13.970 -0.2767  0.2305 -0.2760
25747W        W41821   3.048   3.304   5.026  0.0540 -0.2589  0.1961
25748W        W41822   1.902  18.136  10.599  0.0729 -0.1958 -0.3003
25749W        W41823  17.809   8.188   0.463 -0.0455  0.1386  0.1432
25750W        W41824   2.349  18.896   0.735  0.2682 -0.2990  0.4359
25751W        W41825   7.332   9.839   9.578  0.1866  0.1492  0.2277
25752W        W41826  11.967   7.001   2.998  0.1041  0.1871 -0.0003
25753W        W41827   0.492   5.207   3.617  0.2257 -0.1550  0.0710
25754W        W41828   2.495  19.040   2.821 -0.1731  0.1729  0.0491
25755W        W41829   4.272  14.875  13.634  0.0293  0.0995 -0.2443
25756W        W41830   5.472   1.764  13.724  0.2548  0.0866 -0.0170
25757W        W41831   7.114   8.053  13.880  0.3899  0.1323 -0.0886
25758W        W41832  12.235   7.708   1.159 -0.0157 -0.0096  0.3515
25759W        W41833  13.461  15.646   0.775  0.2917  0.0671  0.1597
25760W        W41834  14.910  11.326  11.215  0.3078 -0.1176  0.0313
25761W        W41835   3.046  14.817   0.566 -0.1041  0.0502 -0.1480
25762W        W41836   4.692   5.752   4.944  0.1945  0.2471  0.0284
25763W        W41837  17.340  17.449   3.648 -0.0890 -0.2885  0.1640
25764W        W41838   3.183   5.008   5.196  0.1997 -0.3415  0.1091
25765W        W41839   6.138   9.701   0.861  0.0703  0.1862  0.1536
25766W        W41840   7.299   2.620   3.087 -0.2463 -0.0549  0.0452
25767W        W41841  12.554  11.738  12.755 -0.1607 -0.0005 -0.5049
25768W        W41842  18.256  17.105   3.208  0.0446 -0.0289 -0.1091
25769W        W41843   2.540  14.694   4.100 -0.1315  0.1481 -0.3635
25770W        W41844   5.806   8.696   3.265 -0.0178  0.2096  0.3495
25771W        W41845  18.029   6.530   0.015 -0.0016  0.3653  0.0467
25772W        W41846  15.576   9.002  12.727 -0.2769  0.1915  0.0151
25773W        W41847   5.083   7.133  11.237 -0.0423 -0.0680  0.1555
25774W        W41848   2.630   2.464  11.659 -0.4433  0.3765 -0.1320
25775W        W41849   1.166   5.038  11.760  0.0202  0.0301 -0.0368
25776W        W41850  19.320  15.764   2.109  0.0589  0.3123  0.1418
25777W        W41851  10.610  18.018  14.088 -0.0412  0.1255  0.1022
25778W        W41852   4.947   7.270   2.583 -0.0144 -0.2039  0.2111
25779W        W41853   7.472   4.311  12.395  0.0371  0.5478  0.5176
25780W        W41854  14.909   8.398   1.151  0.1214  0.0652  0.0602
25781W        W41855  18.109  17.411   0.252 -0.2919 -0.4047  0.0793
25782W        W41856   9.623  10.921  13.639 -0.1791 -0.2324 -0.0170
25783W        W41857  12.576  10.240  13.289  0.0071 -0.4572  0.0231
25784W        W41858  14.617   2.741   1.337 -0.0324  0.1228 -0.1162
25785W        W41859   0.175   4.548  11.385 -0.1679 -0.1039  0.1172
25786W        W41860   6.926   0.863  12.799  0.1131  0.2824  0.0445
25787W        W41861  11.418   4.439  12.295  0.0352  0.1343  0.0067
25788W        W41862   3.440   4.558   5.168 -0.1361  0.2338  0.0264
25789W        W41863   6.443  14.208   2.216  0.3416  0.2055 -0.1416
25790W        W41864  10.452   6.230   4.944 -0.1417 -0.0930 -0.0365
25791W        W41865   2.589   9.981  12.372  0.2603  0.1105 -0.3060
25792W        W41866  11.663   4.786   9.600 -0.2740  0.0928  0.1573
25793W        W41867  17.893   8.225   5.304  0.0577  0.0936  0.1585
25794W        W41868   5.131  10.002  10.888  0.0706 -0.0519 -0.0113
25795W        W41869   2.476  12.516  12.575 -0.3989 -0.2465  0.2275
25796W        W41870   4.643  12.857   4.831 -0.0544  0.3955 -0.0471
25797W        W41871  14.569  17.037   4.353 -0.1907 -0.2236 -0.3237
25798W        W41872   0.645   4.815  14.780 -0.1347  0.2497  0.0144
25799W        W41873  12.397  13.404   4.712  0.1388 -0.0622  0.0694
25800W        W41874   1.946   6.817  14.926 -0.2530  0.0143  0.3696
25801W        W41875  17.645  19.200   5.085  0.0999  0.0588  0.2667
25802W        W41876   0.320  19.022   1.012 -0.0416  0.2199 -0.2111
25803W        W41877  18.042  12.326   3.816  0.0321 -0.0246 -0.0203
25804W        W41878  13.146   0.243  12.962 -0.1396 -0.0372  0.2075
25805W        W41879  18.458   5.057   3.371 -0.0957 -0.1040 -0.1208
25806W        W41880  13.752   6.700   4.348  0.2954 -0.2645  0.2205
25807W        W41881  17.829   1.675  13.782  0.2381  0.0530 -0.3278
25808W        W41882   6.606   5.294   1.057  0.1182 -0.0840 -0.0152
25809W        W41883  12.503   7.830   4.171  0.2485 -0.2523  0.2191
25810W        W41884  10.184  17.276   5.129 -0.0958  0.0679 -0.0085
25811W        W41885  12.150  13.494  12.070 -0.1307 -0.1555 -0.1572
25812W        W41886   5.292   9.467   5.744  0.1374  0.0923  0.1255
25813W        W41887   4.851  18.977   2.427 -0.2881 -0.4538  0.0496
25814W        W41888  12.643   0.628  11.844  0.3118  0.1973  0.2348
25815W        W41889  15.064  13.116   2.717  0.2226  0.1475  0.3178
25816W        W41890  13.194  11.395  11.102 -0.4942  0.0600 -0.1964
25817W        W41891   2.669   7.645  14.466 -0.0371 -0.0251 -0.1539
25818W        W41892  13.571  14.259   2.547 -0.2038  0.2645 -0.0737
25819W        W41893   7.755  11.192   2.569  0.0096  0.3078  0.1014
25820W        W41894   5.095  12.121   1.456 -0.2015  0.1259  0.0455
25821W        W41895   6.958   0.272   2.137 -0.2109 -0.1546  0.4095
25822W        W41896  13.975  10.976  12.360  0.0815  0.3326  0.0783
25823W        W41897  12.647   3.332  13.110 -0.0183  0.1719  0.5300
25824W        W41898  19.191   7.237  10.728 -0.6105 -0.4264 -0.1552
25825W        W41899  12.164  10.580   0.603 -0.0376 -0.1251  0.4190
25826W        W41900  10.510  15.121   1.831 -0.2143 -0.0074  0.0250
25827W        W41901  13.434  10.250   4.120  0.2005  0.2525 -0.1441
25828W        W41902   6.972   3.566  14.902  0.3942  0.2247 -0.2105
25829W        W41903  15.398   8.766   3.720 -0.3059 -0.2232  0.3746
25830W        W41904   0.201  19.338   2.759  0.2701  0.2838  0.1996
25831W        W41905   5.481  12.822   2.913 -0.3806 -0.0729  0.3581
25832W        W41906   9.599   9.999   0.773 -0.1188  0.1468 -0.0824
25833W        W41907  17.745   6.954  11.644  0.0548 -0.0878  0.0135
25834W        W41908  14.020  15.337   5.286  0.0785 -0.0481  0.3095
25835W        W41909   0.791  15.244  11.636 -0.3572 -0.1547  0.0320
25836W        W41910  11.332   2.228   0.681  0.3357 -0.0622  0.1686
25837W        W41911  13.785  16.787   1.295  0.2856  0.0086  0.1510
25838W        W41912   3.178   6.418  12.826  0.0364  0.1611 -0.3432
25839W        W41913   4.788   0.281  11.802 -0.0134 -0.0314  0.3499
25840W        W41914   9.401  16.377  10.879 -0.0767  0.0803 -0.4439
25841W        W41915  15.049   9.487   1.921  0.1568  0.3718  0.0167
25842W        W41916  13.930  10.763  11.534 -0.1143  0.1004  0.1156
25843W        W41917   2.789  12.970   2.207  0.0617 -0.0020 -0.0692
25844W        W41918  17.639   8.649  14.521 -0.3194 -0.3489  0.0855
25845W        W41919  17.662  19.219   4.120 -0.0539  0.2523 -0.1949
25846W        W41920  10.733  10.640  11.075 -0.2122  0.2973  0.3076
25847W        W41921  12.459  18.766   4.731  0.1604  0.0196 -0.2475
25848W        W41922  14.076  12.072   0.908 -0.1032  0.0904  0.1497
25849W        W41923  14.441   5.257  10.747  0.0039  0.1271 -0.3221
25850W        W41924   3.845  11.234  14.231 -0.0638 -0.0623 -0.3784
25851W        W41925   6.075  18.433  10.944 -0.0752  0.2086 -0.2423
25852W        W41926  13.940  17.302  10.410  0.2832  0.1243  0.0246
25853W        W41927   2.061   4.716   2.980 -0.1169 -0.3308 -0.1637
25854W        W41928  13.560  19.214  13.692 -0.0006  0.2467 -0.2113
25855W        W41929  17.527  17.772   2.990  0.1571  0.1132 -0.0966
25856W        W41930  16.434  12.072   3.420 -0.1075 -0.1832  0.1836
25857W        W41931   7.224  14.914   2.858 -0.0797 -0.0240 -0.0830
25858W        W41932  18.645   7.765  13.308  0.3457 -0.0916  0.1229
25859W        W41933  15.777  19.185  13.254  0.0681 -0.1051 -0.2005
25860W        W41934   2.355  16.549   2.961  0.0726  0.2741  0.0103
25861W        W41935   9.981   5.482  13.596 -0.0311  0.1721 -0.0399
25862W        W41936  17.495   1.919  11.981 -0.4186 -0.0866 -0.1203
25863W        W41937   1.859   9.246  13.098  0.0879 -0.1166  0.1002
25864W        W41938  16.545  14.313   2.581 -0.0466  0.1872  0.2316
25865W        W41939  15.174  11.656  11.667 -0.0004  0.0708  0.0490
25866W        W41940  15.395  14.722  12.196 -0.2448  0.0170 -0.1260
25867W        W41941  14.421   6.157  13.416  0.1096  0.1607  0.1315
25868W        W41942  16.515   5.925   1.655  0.0584 -0.0753 -0.1178
25869W        W41943  15.245   4.726   2.619 -0.0675  0.2071  0.0354
25870W        W41944   1.324   5.880   3.379  0.0079  0.1116  0.3988
25871W        W41945   4.582   6.232   4.077  0.1106 -0.0191  0.2731
25872W        W41946  16.531  16.504   5.711  0.1971  0.3382 -0.0182
25873W        W41947   1.270  12.445  10.965 -0.1233  0.0459  0.3508
25874W        W41948  12.438  19.137   2.568 -0.1309  0.0750 -0.2818
25875W        W41949  10.545  12.974  10.103 -0.2750  0.1567 -0.0233
25876W        W41950   4.509   9.896   3.932 -0.0583 -0.2168 -0.0091
25877W        W41951  12.643   3.031  12.517 -0.1373 -0.0839  0.1753
25878W        W41952  11.854   1.254  10.903  0.0728 -0.0757 -0.0401
25879W        W41953   8.561  10.447   2.653  0.2657  0.1627 -0.0667
25880W        W41954   1.592  14.906  13.400 -0.3448 -0.1742 -0.1331
25881W        W41955   0.806  10.012   0.114  0.2095 -0.0900 -0.3721
25882W        W41956   8.496  15.466  12.486  0.0513 -0.0342 -0.2418
25883W        W41957   0.273   8.316  14.453 -0.1301  0.0301 -0.0885
25884W        W41958   5.288  11.036   0.108 -0.2266 -0.0482  0.0562
25885W        W41959   7.863  11.279  10.314  0.0377  0.0222 -0.0446
25886W        W41960   8.596   3.479   1.040  0.2514  0.1136  0.1157
25887W        W41961  11.136   8.300   4.373  0.1221 -0.2634 -0.3685
25888W        W41962  12.739   9.107   5.164  0.3502  0.0258 -0.2850
25889W        W41963  15.505  14.436  13.680  0.1488  0.0177 -0.1053
25890W        W41964  10.241  18.991  13.359  0.1208 -0.0342 -0.1132
25891W        W41965   1.258   9.626  14.215  0.1091 -0.0102 -0.1654
25892W        W41966   9.356  19.053  14.212  0.1246 -0.0481  0.1105
25893W        W41967   7.727   2.160  11.658  0.2654 -0.1428  0.0196
25894W        W41968  13.258  17.360   2.983  0.1278 -0.0141  0.1052
25895W        W41969  15.259  10.243   3.994  0.0950  0.1417 -0.1205
25896W        W41970   7.294   4.892  11.419 -0.3809  0.3477 -0.1858
25897W        W41971   8.508  17.064  10.072  0.3450  0.1668  0.1657
25898W        W41972  13.992   3.534   4.018  0.3572 -0.2254  0.0528
25899W        W41973   0.144   7.460   5.187  0.1844 -0.2290 -0.0730
25900W        W41974  11.197   6.730   4.358 -0.0070  0.2395 -0.2406
25901W        W41975   7.636   4.002   0.130  0.1288  0.4252  0.3542
25902W        W41976  14.712  12.113   5.757  0.2048  0.0183  0.2195
25903W        W41977  10.400   7.124  13.307 -0.1732 -0.1539  0.2312
25904W        W41978   8.769   2.261   0.232  0.0455  0.1288 -0.1648
25905W        W41979  12.870  11.243   2.270  0.2820 -0.0972 -0.2576
25906W        W41980  16.928  17.066   2.967  0.1799  0.1555  0.2151
25907W        W41981   4.020   7.471   4.300 -0.0019  0.0637  0.2605
25908W        W41982   8.205   8.623   0.095  0.2938  0.1681 -0.2094
25909W        W41983   7.736   1.853  12.754  0.0136  0.1595 -0.1528
25910W        W41984   9.927  18.879   2.822  0.1334  0.2794  0.0129
25911W        W41985   6.575   1.016  13.097 -0.2653 -0.0009 -0.1774
25912W        W41986  12.759  18.565  14.136 -0.2877 -0.3336  0.0764
25913W        W41987   2.363   8.643   1.602 -0.0706 -0.0687  0.3600
25914W        W41988   1.838  10.732   5.815 -0.0860  0.0673 -0.1326
25915W        W41989   5.847   5.683   2.583 -0.0266  0.2302 -0.1295
25916W        W41990   7.137   5.128  10.462 -0.0448 -0.1100  0.0983
25917W        W41991   8.357  15.036  12.250 -0.1036 -0.1243  0.3539
25918W        W41992  15.054  19.283  12.959 -0.1747 -0.1744 -0.2701
25919W        W41993  15.659  19.145   2.508 -0.0929  0.1189 -0.1804
25920W        W41994   4.492   7.424   0.273 -0.1171  0.2558 -0.2881
25921W        W41995   3.141  17.037  12.753  0.2631  0.2051  0.1044
25922W        W41996   2.303   1.679   2.044 -0.2001 -0.1698 -0.5912
25923W        W41997   9.383   8.797   0.987  0.0425  0.2469 -0.0942
25924W        W41998  12.259   2.521  10.345  0.1927  0.2436 -0.2040
25925W        W41999   5.462   5.505   9.601 -0.2468  0.1525 -0.0681
25926W        W42000   8.506   2.349   5.093  0.0943  0.0459 -0.1868
25927W        W42001   6.705  10.485  10.451  0.3031  0.1143 -0.2208
25928W        W42002   8.596  18.339   4.268  0.2416  0.1196  0.0248
25929W        W42003   4.098  10.504   1.133  0.1299 -0.2248 -0.3429
25930W        W42004   0.084  18.951  10.939  0.0699  0.0993 -0.0978
25931W        W42005  17.820   4.721  14.836  0.1568  0.2484 -0.6389
25932W        W42006   3.624   2.451  14.052  0.0613  0.1182  0.1007
25933W        W42007  17.857   2.514  11.229  0.2307 -0.1098  0.0683
25934W        W42008   0.166   9.535   2.946 -0.2092  0.1121  0.0418
25935W        W42009   8.920  15.680  14.725  0.0517 -0.2334  0.2168
25936W        W42010  10.216  17.669   4.756  0.3344  0.2432 -0.2519
25937W        W42011   8.000   6.594   4.887  0.0829 -0.0715  0.2447
25938W        W42012   4.252   7.925   9.673 -0.1325 -0.3432  0.2365
25939W        W42013  14.180  16.372   0.248 -0.1335 -0.0288 -0.0523
25940W        W42014  16.515   6.066   3.210 -0.1369 -0.0378  0.0931
25941W        W42015   1.452  16.074   2.101 -0.0382 -0.0133 -0.1413
25942W        W42016   0.602  10.580   4.129 -0.3011 -0.0763 -0.0967
25943W        W42017   2.833   8.365  12.616  0.0729  0.2846 -0.3325
25944W        W42018   3.734  14.998   2.859  0.0615 -0.1570 -0.2871
25945W        W42019  14.597  14.938   3.353  0.0892 -0.0934  0.2203
25946W        W42020   6.783   9.002  14.439  0.0687  0.0563  0.0196
25947W        W42021  13.431  18.269   2.545 -0.1411  0.4379 -0.1963
25948W        W42022  10.541   1.168   0.260 -0.1066  0.1959  0.3065
25949W        W42023  11.578  11.691  13.150 -0.0141 -0.1139 -0.0177
25950W        W42024   6.981  14.385   3.028  0.1046 -0.0929  0.0552
25951W        W42025   6.791   1.379   4.206  0.2942 -0.0676 -0.1847
25952W        W42026  13.167   0.138   4.877 -0.2138 -0.1360 -0.2374
25953W        W42027  16.217  10.707  12.246  0.4562 -0.2148 -0.1551
25954W        W42028  11.324   9.264  15.004  0.3075  0.0041  0.0373
25955W        W42029  10.208  19.149  13.882  0.1182 -0.0247 -0.0260
25956W        W42030   1.936  18.544   2.211  0.1574  0.1527  0.0713
25957W        W42031   6.307   1.003   1.812 -0.1390  0.0255 -0.2981
25958W        W42032  12.755   1.179   4.534  0.2288  0.1148 -0.0947
25959W        W42033  12.890   8.509  13.955  0.0647  0.0548  0.1670
25960W        W42034   5.788   4.453   4.950 -0.0780 -0.2321  0.2411
25961W        W42035  11.241   7.296  11.455  0.2473  0.1163 -0.0512
25962W        W42036   7.028   8.567  13.776 -0.0782  0.0432  0.2253
25963W        W42037   4.373  15.034  14.763  0.1505  0.3050 -0.0266
25964W        W42038  13.510  15.801   2.129 -0.2418 -0.1838 -0.0955
25965W        W42039  10.826   9.454   3.322 -0.2603 -0.1660  0.1262
25966W        W42040   9.826  10.294   4.108 -0.1890 -0.0824 -0.1442
25967W        W42041   2.319  19.126   4.174  0.2525 -0.2859 -0.0969
25968W        W42042  10.414  13.121  13.012  0.1319 -0.3445  0.1135
25969W        W42043  12.630   4.132   5.324  0.0511  0.2608 -0.0446
25970W        W42044  10.815   8.449   9.060 -0.2434 -0.0187  0.1270
25971W        W42045  13.830  11.226   1.363 -0.1739 -0.0979 -0.1055
25972W        W42046  18.817   2.351   1.913 -0.3634  0.2265  0.0643
25973W        W42047  11.714   5.171   1.030  0.2791  0.1055 -0.2052
25974W        W42048   1.477   8.191   1.776 -0.0913 -0.0650 -0.0408
25975W        W42049  10.994  14.517   2.091 -0.2242 -0.1424 -0.3006
25976W        W42050  16.837  13.756  12.763  0.2934  0.5033 -0.1146
25977W        W42051  13.023  15.238   1.866  0.1467  0.1189 -0.0880
25978W        W42052  10.181   2.747   4.442 -0.0993 -0.0509 -0.3312
25979W        W42053  15.770   5.790   1.137 -0.3352  0.0941 -0.0042
25980W        W42054   7.572   7.694  11.113 -0.1903 -0.1785  0.0207
25981W        W42055  16.584   3.909  12.243  0.0406  0.0084 -0.1710
25982W        W42056  11.494  16.932   1.855 -0.1539 -0.0381 -0.1384
25983W        W42057  10.697   5.910  13.172  0.1644  0.1860  0.2592
25984W        W42058  17.379  16.124  13.519 -0.0108  0.2012 -0.3299
25985W        W42059   9.111  17.641   0.864 -0.0156 -0.1668  0.0749
25986W        W42060   2.782   5.286   2.650  0.0020  0.0361 -0.0452
25987W        W42061   4.213  16.496  13.275  0.1692 -0.0929 -0.2698
25988W        W42062   8.048   0.576  12.143  0.1576 -0.0071 -0.1353
25989W        W42063   2.093   9.246  12.655 -0.2834  0.0877  0.0518
25990W        W42064   3.232  18.866  12.593 -0.1079 -0.1844 -0.1426
25991W        W42065  16.490   3.725   1.572  0.2602 -0.1160 -0.1779
25992W        W42066  17.897  18.934  11.127  0.2619 -0.0255  0.2953
25993W        W42067  15.962  16.336   3.614 -0.1276 -0.2367 -0.0233
25994W        W42068  10.842   8.888   0.577 -0.1196 -0.3570 -0.2989
25995W        W42069  12.604   5.621   0.076  0.1719 -0.2610  0.2803
25996W        W42070  10.514  15.924   0.518  0.0877  0.0507 -0.1243
25997W        W42071   8.346   0.560   1.532  0.0095 -0.3071 -0.1460
25998W        W42072   4.887  18.119   9.937 -0.0111 -0.0122 -0.1516
25999W        W42073   1.524   5.162   4.515  0.1937 -0.1362 -0.4499
26000W        W42074   2.841   4.286   1.232  0.1926 -0.1045 -0.2007
26001W        W42075  19.017  12.415  14.204 -0.2204 -0.2262 -0.2562
26002W        W42076  12.500  18.794   0.776 -0.0254  0.3060  0.0485
26003W        W42077   5.834   5.499   1.416  0.6837  0.0309 -0.3458
26004W        W42078  19.304   0.503   0.435  0.1916  0.1283  0.0028
26005W        W42079   5.268  12.733   0.643  0.0898  0.3179 -0.3504
26006W        W42080   6.776   9.859   1.947  0.2277 -0.1198 -0.0098
26007W        W42081   9.791   3.505   1.865  0.0596 -0.0846  0.3225
26008W        W42082   5.711  13.166   2.508  0.1126 -0.2958  0.0442
26009W        W42083  18.039  10.988   1.118 -0.1675  0.0848  0.0692
26010W        W42084   2.956   6.447  12.356  0.2662  0.0208  0.1429
26011W        W42085  18.947  17.471  11.969  0.1454  0.0723  0.1395
26012W        W42086  18.415  12.192   1.358  0.1057  0.0161 -0.0082
26013W        W42087   0.133   0.650   2.852 -0.1882  0.1508  0.2406
26014W        W42088   9.830  12.113  13.065  0.2121  0.3790  0.2667
26015W        W42089   6.752   6.684   4.966  0.0908  0.2105  0.0134
26016W        W42090  17.531  17.036   0.736  0.0606 -0.1095 -0.0682
26017W        W42091   0.845   7.455  14.415  0.0560 -0.3497 -0.0496
26018W        W42092  13.482   7.734  14.119 -0.0074  0.4908 -0.2441
26019W        W42093  12.611   0.952   0.385  0.0021 -0.1097 -0.4147
26020W        W42094  13.119  11.482  13.940  0.1261 -0.0469 -0.1104
26021W        W42095   8.711  16.291  13.765  0.2038 -0.1691  0.0584
26022W        W42096   8.991   7.921   3.112 -0.1634 -0.0337  0.0119
26023W        W42097  16.074  17.714   3.942  0.0517  0.0534  0.1139
26024W        W42098  14.289   0.417  11.679  0.2617 -0.0642  0.1215
26025W        W42099  14.684   1.708   2.385 -0.0470 -0.0078  0.0648
26026W        W42100  12.116  12.692  10.787  0.4253  0.1173  0.1602
26027W        W42101  15.347   3.703   2.703 -0.1286  0.0040  0.0349
26028W        W42102   7.112   8.729  10.901  0.2566 -0.0668 -0.1812
26029W        W42103  10.062  13.323  10.095  0.3906 -0.1671  0.0106
26030W        W42104   2.479  15.218   4.902 -0.1299 -0.1466  0.3563
26031W        W42105   9.938  11.247   3.481  0.1372  0.2772  0.2034
26032W        W42106  12.547  15.195   2.207 -0.1663 -0.1511  0.0749
26033W        W42107  13.549  13.045  11.906 -0.1850 -0.2878 -0.4197
26034W        W42108  15.480  18.464   3.363  0.0032 -0.3267 -0.3435
26035W        W42109  10.549  15.966   1.413  0.0993 -0.2250 -0.1443
26036W        W42110   6.578   4.343   4.324 -0.0135  0.1707  0.2365
26037W        W42111   0.681   0.140  12.188 -0.3933 -0.3869  0.0436
26038W        W42112  17.295   4.016   3.431  0.0878  0.2656 -0.0395
26039W        W42113   4.054   8.651   3.429  0.0000  0.0977 -0.1126
26040W        W42114   0.645  11.447   0.316  0.0526  0.1366  0.3995
26041W        W42115   4.483   8.207  10.759  0.1566 -0.0409  0.2251
26042W        W42116  15.440  15.793  14.949  0.1913 -0.1011 -0.0800
26043W        W42117  13.650   2.805   1.550 -0.0144  0.1375 -0.4054
26044W        W42118   3.241   0.910  14.686 -0.0009 -0.0400  0.1583
26045W        W42119   8.448   9.485  10.962 -0.1166  0.2175 -0.2629
26046W        W42120   6.068   3.686   1.135  0.1400  0.2488 -0.1845
26047W        W42121   6.347  11.832   2.678  0.0288  0.2161  0.0415
26048W        W42122   7.752  10.949   0.917 -0.2902  0.2278  0.2142
26049W        W42123  18.647  18.459  11.133 -0.4115  0.2524 -0.0652
26050W        W42124   8.042  14.724  11.923 -0.0238 -0.2994 -0.2422
26051W        W42125   4.076   2.225  10.521  0.0690 -0.1655  0.3878
26052W        W42126  12.811   0.795  14.486  0.1931  0.1762 -0.1463
26053W        W42127  14.289  11.022   2.790  0.1646  0.1822 -0.0118
26054W        W42128   3.612   3.763   2.760 -0.0267  0.0063 -0.2847
26055W        W42129  15.060  16.083   3.478  0.1245 -0.0499 -0.1753
26056W        W42130   8.382  16.810  11.225 -0.1130  0.1492  0.1530
26057W        W42131   1.443   2.707  14.929  0.3313  0.1469  0.1867
26058W        W42132   6.484  18.810  14.426  0.1058  0.1391 -0.1110
26059W        W42133  16.563  14.335  11.694  0.1322 -0.2768  0.0968
26060W        W42134  17.946  10.709  13.515  0.1471  0.1396 -0.0950
26061W        W42135   7.515   9.131  10.856  0.0679  0.1274  0.0539
26062W        W42136  15.057   1.737  12.328 -0.0605  0.1650 -0.0996
26063W        W42137  16.939   9.296   1.543 -0.2233 -0.1051  0.1205
26064W        W42138  17.523  16.164   3.852  0.1555 -0.2694  0.0427
26065W        W42139  11.012  13.618   9.978 -0.2191  0.5983 -0.1516
26066W        W42140   8.104   2.841  12.948 -0.3797 -0.2026  0.4034
26067W        W42141  14.274   0.075  14.493  0.0773  0.1739 -0.2400
26068W        W42142  14.967  17.544  11.772 -0.0693 -0.1490  0.1230
26069W        W42143  16.298  13.524  11.027 -0.0860  0.0639  0.1556
26070W        W42144   9.047   4.433  14.969 -0.1694  0.0927 -0.0241
26071W        W42145   0.491  18.800   3.547  0.1126 -0.2890  0.1650
26072W        W42146  13.418   9.954  10.657  0.3720 -0.1549  0.2657
26073W        W42147   5.746  10.033   1.979 -0.1377  0.0978 -0.0558
26074W        W42148  11.507   9.837  10.802 -0.3593 -0.1421 -0.2073
26075W        W42149   7.610  18.754  10.115 -0.1441 -0.3765 -0.1720
26076W        W42150  14.111  11.510  10.537  0.0068 -0.0108  0.0017
26077W        W42151   9.252   7.475   0.834  0.0979 -0.0236 -0.1075
26078W        W42152   7.052  17.807   4.251  0.1123  0.2849  0.1350
26079W        W42153   9.382  16.438   4.340 -0.3366 -0.0862  0.3573
26080W        W42154  18.558  16.435  13.861  0.2649 -0.1055  0.3556
26081W        W42155  10.096   2.897   5.108 -0.4267  0.3613 -0.1229
26082W        W42156   4.152  18.952   0.758 -0.2945 -0.2083 -0.1458
26083W        W42157  13.802  10.752  13.734 -0.1110 -0.0094  0.0136
26084W        W42158   9.195   8.762  13.277  0.2212 -0.1037  0.1286
26085W        W42159  12.580  11.122   1.289 -0.0947 -0.1912  0.0916
26086W        W42160   3.190  11.901  12.444 -0.0495  0.0234  0.0302
26087W        W42161   5.069  18.114   2.435 -0.0570 -0.0337  0.1439
26088W        W42162   9.798  10.862  11.333  0.1489  0.4168 -0.0772
26089W        W42163  18.498   7.315   3.502 -0.2802 -0.0543  0.2014
26090W        W42164   6.011  15.247  11.706  0.0842 -0.0719 -0.3954
26091W        W42165  15.558  14.174   5.096 -0.1306 -0.3707  0.1289
26092W        W42166  15.039   9.654   2.718  0.2386 -0.3079 -0.1538
26093W        W42167  17.267   4.391   1.641  0.0263 -0.4104 -0.0063
26094W        W42168  17.292  11.177   6.143  0.0249 -0.2141 -0.0952
26095W        W42169   0.321  10.437  11.583  0.0305 -0.2933 -0.4359
26096W        W42170   6.109  17.012   2.201  0.0078 -0.0271 -0.2267
26097W        W42171   2.112   5.971  13.224 -0.2554 -0.0109  0.0055
26098W        W42172   3.191   3.291  11.270  0.0270 -0.0689  0.2334
26099W        W42173   2.602   9.016   4.820 -0.0510  0.0119 -0.0166
26100W        W42174   2.255  14.330   3.904 -0.0437 -0.4113 -0.0610
26101W        W42175  11.135   6.537   0.316 -0.0335  0.3187  0.0373
26102W        W42176  18.639  14.774  13.387  0.1487 -0.3209 -0.2530
26103W        W42177   4.117  15.348   2.909  0.1074 -0.3248  0.1376
26104W        W42178  12.802  18.238   1.415  0.0907 -0.3886 -0.2290
26105W        W42179   7.165  15.833   4.056  0.5076 -0.0654  0.1355
26106W        W42180  16.049   2.271  13.748  0.3675 -0.2276  0.2087
26107W        W42181  18.198   3.333  12.765 -0.1552 -0.1361 -0.4640
26108W        W42182  16.193  18.191   4.037 -0.1566 -0.0560  0.1382
26109W        W42183  16.229  18.517   1.204  0.1791  0.0157 -0.2348
26110W        W42184   6.366   7.746  11.628  0.1527 -0.1447 -0.3418
26111W        W42185   0.603  10.632  13.517 -0.1793 -0.0826  0.0361
26112W        W42186   5.036  11.543  10.599 -0.1578  0.2570  0.0589
26113W        W42187  10.216   1.647   3.075 -0.2852  0.3888 -0.1611
26114W        W42188  16.339  16.795   2.039 -0.3949 -0.0956  0.3762
26115W        W42189  14.061  10.907  14.365 -0.1785  0.1252  0.5049
26116W        W42190   0.802  10.889  13.891  0.3130 -0.1243 -0.0653
26117W        W42191  13.541   6.290  11.714 -0.6311  0.3061  0.0146
26118W        W42192   4.528   4.733   9.365  0.1910  0.0119 -0.0060
26119W        W42193   5.100  18.544   2.772 -0.0095  0.0754 -0.2138
26120W        W42194  16.447   4.840   0.121  0.2662 -0.1870  0.3038
26121W        W42195   6.351   0.170   8.691 -0.3465  0.3054  0.0129
26122W        W42196  10.853   7.845   1.608 -0.0327 -0.1689  0.1879
26123W        W42197  13.003  13.963  13.160 -0.0428  0.0626 -0.0291
26124W        W42198  10.304  15.943   1.948 -0.1565  0.0126 -0.1045
26125W        W42199  14.571   4.645   4.454  0.0072 -0.0546 -0.1140
26126W        W42200   7.665  11.564  10.637  0.3724 -0.0681 -0.0266
26127W        W42201  13.369  15.310  14.590 -0.0398 -0.0022 -0.1019
26128W        W42202   6.161  13.407  13.617  0.0467 -0.2796  0.2145
26129W        W42203   0.927   3.198   3.371  0.2882  0.1321  0.1370
26130W        W42204   7.373  16.331   1.996  0.1450  0.5825  0.2348
26131W        W42205  16.868  15.509  12.046  0.1213 -0.1668 -0.1754
26132W        W42206  10.663  12.395  12.385  0.0396  0.5589  0.2254
26133W        W42207   3.736   0.478   4.357  0.0462  0.4559 -0.1471
26134W        W42208   2.485   8.949   1.225  0.1031 -0.1816  0.1946
26135W        W42209   3.658   5.400  10.253 -0.1497 -0.0782 -0.5574
26136W        W42210  10.120   5.121   2.948  0.1013  0.1020 -0.3280
26137W        W42211  13.443  16.129  13.995 -0.0116 -0.1503  0.1858
26138W        W42212   7.914   2.553  10.708  0.3178 -0.3006 -0.1735
26139W        W42213   0.512  15.461  12.111  0.2144  0.2914  0.0422
26140W        W42214   7.954  13.544  13.915 -0.3526  0.1111 -0.1298
26141W        W42215   4.864  12.706   5.455 -0.0744  0.2200  0.2115
26142W        W42216   3.372   0.088   0.032 -0.0942 -0.0755 -0.1703
26143W        W42217  13.498   1.736  13.659 -0.1228 -0.1733  0.0988
26144W        W42218  18.905  12.968  14.823 -0.1419  0.2217 -0.1629
26145W        W42219   7.435   9.672  10.472 -0.1567 -0.2884 -0.1875
26146W        W42220  12.631  11.767  14.163  0.2817  0.0740  0.2743
26147W        W42221  17.323  15.221   3.230 -0.2052  0.1246  0.1220
26148W        W42222   1.982  17.092  14.099  0.0378 -0.4081 -0.0613
26149W        W42223  17.514   9.415   5.589 -0.0616 -0.2343 -0.2754
26150W        W42224   6.440   3.862  12.164 -0.0918 -0.1657  0.2836
26151W        W42225  14.671   5.191   2.815 -0.5616 -0.0092  0.0964
26152W        W42226  10.929   9.159   5.189 -0.0294 -0.1384 -0.1564
26153W        W42227   4.975  10.488  12.456  0.0486 -0.0066 -0.0994
26154W        W42228   9.732   8.761   9.618  0.2757  0.2592 -0.0057
26155W        W42229   1.994   3.116  10.291  0.0596  0.1081 -0.2098
26156W        W42230   3.946  16.636   0.104 -0.2602 -0.0058 -0.1089
26157W        W42231   3.622   9.554  14.928  0.1368 -0.2420  0.2552
26158W        W42232  12.497  12.158  11.719  0.2425  0.1368 -0.1633
26159W        W42233  15.388   4.633   4.182  0.0763  0.1384 -0.0841
26160W        W42234  18.423   8.384  12.656 -0.2629  0.1773 -0.1394
26161W        W42235  19.021   9.308   4.277  0.1875  0.2867 -0.0529
26162W        W42236   0.952   4.791  13.954  0.0096 -0.2171  0.2084
26163W        W42237   3.163  17.607   1.100 -0.0361  0.2059  0.2706
26164W        W42238  18.849   5.706   4.703 -0.3371 -0.0033 -0.0188
26165W        W42239  11.329   9.616   2.195 -0.1215  0.3470  0.1606
26166W        W42240   7.651  17.776   9.789  0.2106  0.2064 -0.0219
26167W        W42241  16.259  13.495   5.663 -0.0651  0.1823  0.0069
26168W        W42242  18.629  18.185   3.995  0.0394 -0.0872 -0.0661
26169W        W42243   4.340  19.258  14.424  0.3433 -0.0754 -0.0507
26170W        W42244   7.691  13.422  10.537  0.0969 -0.1922 -0.1195
26171W        W42245  17.649  14.321   0.391 -0.2262  0.2006  0.1461
26172W        W42246   5.689   9.341   1.636  0.0195  0.1241 -0.2157
26173W        W42247  14.977  11.028   3.111  0.0375  0.2528 -0.3756
26174W        W42248   8.070   5.690  11.905 -0.1327 -0.2587 -0.0935
26175W        W42249   1.093   6.032   0.179 -0.0993 -0.1885  0.0010
26176W        W42250  12.246   8.074   4.561 -0.1383 -0.0015  0.2185
26177W        W42251  17.844  16.805  14.800 -0.2544  0.3672  0.0205
26178W        W42252   4.852   5.463   1.290 -0.1010  0.0619 -0.0099
26179W        W42253  19.265  18.763  13.736  0.1663  0.0890 -0.0457
26180W        W42254   0.492  11.037  14.915  0.0405  0.1213  0.0686
26181W        W42255  12.018   3.182  14.636  0.2154 -0.0041 -0.1586
26182W        W42256   6.205   8.111   0.162 -0.5171  0.3761 -0.0008
26183W        W42257  12.992  18.960  10.694 -0.1547  0.0264  0.0501
26184W        W42258   8.335  14.710   3.671  0.1760  0.1010  0.1967
26185W        W42259  18.475   0.525  11.131 -0.1746  0.1995 -0.3737
26186W        W42260   1.046  12.140   3.832  0.0980 -0.3100 -0.0302
26187W        W42261   1.629  17.916   4.196  0.4014 -0.0111  0.2089
26188W        W42262   9.709   1.823  11.426  0.3300  0.2220 -0.0283
26189W        W42263   8.042  16.718  12.037  0.0129 -0.1517 -0.2525
26190W        W42264   1.147   2.956  11.917  0.1116 -0.2317  0.1385
26191W        W42265  10.864  13.656   2.078 -0.3227 -0.1163 -0.1009
26192W        W42266   5.567  11.518  12.045 -0.0354  0.2308 -0.2972
26193W        W42267   9.727  12.987   3.866  0.2228 -0.1971  0.0883
26194W        W42268   4.917   0.082   3.901 -0.2392  0.1059 -0.1331
26195W        W42269   5.586  17.966   2.347  0.1948  0.4580 -0.1444
26196W        W42270   7.647   1.348  10.009 -0.1774 -0.2278  0.1236
26197W        W42271   5.237  15.082   5.331 -0.2809  0.0535 -0.1480
26198W        W42272  14.536  15.744  11.932  0.0594  0.3174 -0.1833
26199W        W42273  17.911  10.378   1.955  0.2356  0.3205 -0.1235
26200W        W42274   1.740   7.413   1.324  0.3934 -0.2795  0.2627
26201W        W42275   2.018  14.359  13.679 -0.1361  0.2069 -0.1633
26202W        W42276  13.020  18.660  14.537  0.3605 -0.4732 -0.2607
26203W        W42277   9.152   7.526   3.630 -0.2280 -0.0226  0.0359
26204W        W42278  13.018  14.530  11.387 -0.2400 -0.1615 -0.2687
26205W        W42279  12.121  14.932  14.740  0.0685 -0.2224  0.0928
26206W        W42280  12.493  17.506   1.270  0.0867 -0.1272  0.4739
26207W        W42281   4.152   5.982   1.685 -0.3027 -0.2390 -0.0683
26208W        W42282  18.059   6.176  12.354 -0.0786  0.0832 -0.3452
26209W        W42283   1.963   4.287   2.221 -0.0505 -0.4042  0.0534
26210W        W42284  12.814   2.887  11.727 -0.1454  0.2806 -0.2013
26211W        W42285  17.826  18.850   0.892 -0.1072 -0.3244  0.1803
26212W        W42286   4.554  11.913   2.059 -0.0251  0.0886 -0.3459
26213W        W42287  10.908  17.630  13.828 -0.1412 -0.1643  0.0515
26214W        W42288  11.322   4.660   0.076 -0.1525  0.1881  0.3423
26215W        W42289   6.720   3.787   4.457  0.1159  0.3241 -0.1438
26216W        W42290  15.856   6.815   3.607  0.2447  0.0579  0.2434
26217W        W42291  15.541   3.345   4.772  0.1711  0.2959 -0.0098
26218W        W42292   5.820   6.525   4.497 -0.4315 -0.1536 -0.0227
26219W        W42293  18.759  17.559  14.999 -0.2473 -0.1647 -0.0836
26220W        W42294   8.118   3.320  13.137  0.3242 -0.1349 -0.1702
26221W        W42295  16.452   7.562   1.178  0.1691  0.1824 -0.1770
26222W        W42296  16.772   6.633   9.630 -0.1056  0.0259  0.5516
26223W        W42297   3.730   4.706   1.340  0.0962 -0.1271  0.1681
26224W        W42298   7.415  12.191   0.595 -0.0893 -0.1228 -0.2215
26225W        W42299  11.251   8.951   3.815 -0.0321  0.0180 -0.0725
26226W        W42300   3.067  14.300   0.365 -0.1711 -0.0472 -0.0691
26227W        W42301  14.106  17.415   0.324 -0.1336  0.2996 -0.2297
26228W        W42302  15.012   4.683  13.295  0.0253 -0.0841  0.0497
26229W        W42303   7.701   1.246  12.325 -0.3924 -0.3242 -0.0963
26230W        W42304  19.075   9.104   4.768 -0.2248  0.3637  0.0309
26231W        W42305  12.892   1.786   2.495 -0.2322 -0.1605  0.0574
26232W        W42306   1.605   2.622   4.420  0.2325  0.1817  0.1759
26233W        W42307  14.169  18.825   4.137 -0.0569  0.2700 -0.0785
26234W        W42308  14.943  18.336   0.602 -0.1111 -0.1826  0.0746
26235W        W42309   1.629   4.362   5.196 -0.3145  0.3770 -0.3370
26236W        W42310   9.598   5.184  12.036 -0.0587  0.2085  0.0315
26237W        W42311   2.324  11.955   4.544  0.2865 -0.1697 -0.1168
26238W        W42312   1.238   2.774   4.157  0.0566  0.0904 -0.0302
26239W        W42313  18.612   1.303  14.257  0.1300  0.1389  0.2491
26240W        W42314   0.343  13.337   3.494  0.2677 -0.0547  0.2967
26241W        W42315  15.525   6.517   1.777  0.0088 -0.0931 -0.1397
26242W        W42316  14.554   8.205  13.493  0.1111  0.2622  0.1324
26243W        W42317   6.345   3.852  10.754  0.1554 -0.2035  0.0322
26244W        W42318  14.756   8.827   3.190 -0.2505 -0.4363 -0.1339
26245W        W42319   3.957   4.089  11.044 -0.1085 -0.0118  0.0372
26246W        W42320   5.823  18.272  14.574  0.1782  0.2157  0.2169
26247W        W42321  17.738   6.400   4.471 -0.1847 -0.0001 -0.3111
26248W        W42322  12.580   5.835   0.811  0.2175  0.2447 -0.3437
26249W        W42323   9.520   8.746  12.875  0.0828 -0.0039  0.1793
26250W        W42324   2.123   3.662  12.199  0.0150 -0.2108  0.3421
26251W        W42325   8.619  17.577   9.934 -0.1049  0.0351 -0.1487
26252W        W42326   3.780   9.055   3.702 -0.1112 -0.0867  0.0014
26253W        W42327   8.029   5.653   0.386  0.0463  0.1766 -0.2593
26254W        W42328  18.162  19.256  14.962 -0.0643  0.0948 -0.0521
26255W        W42329  18.723   7.546   2.518  0.0084  0.2110 -0.2750
26256W        W42330  18.724   3.384  11.976  0.1008  0.0916  0.4992
26257W        W42331   3.999  14.650   3.643 -0.0962  0.1218  0.2414
26258W        W42332   7.515   2.588  12.956 -0.2200 -0.1763 -0.2429
26259W        W42333  16.849   0.239   1.018  0.3910 -0.0265  0.2104
26260W        W42334  10.751   3.743   3.455  0.0457  0.1474 -0.1196
26261W        W42335   4.226  16.550  12.236 -0.0418  0.2678 -0.2606
26262W        W42336   9.989  13.585  12.117 -0.0646 -0.0849  0.1531
26263W        W42337  14.438   5.211   3.784  0.0634 -0.0035  0.0384
26264W        W42338   7.840  17.620  10.643  0.3089  0.1571  0.0003
26265W        W42339   7.973  14.215   9.911 -0.2717  0.1965  0.0470
26266W        W42340   4.697  10.119   0.492  0.2329 -0.1687  0.0921
26267W        W42341  17.715   6.515  11.246 -0.0809 -0.0169 -0.0726
26268W        W42342   9.116   1.833  12.051 -0.1686  0.0270  0.2742
26269W        W42343  14.696   9.399   5.241 -0.0336 -0.0175  0.0533
26270W        W42344  11.782  19.138   5.085  0.0491 -0.0751 -0.2452
26271W        W42345   2.527   5.967  13.923 -0.0989 -0.3097  0.3676
26272W        W42346   8.048  18.774  12.781 -0.1543  0.4113 -0.0624
26273W        W42347   0.453   9.727   5.120 -0.0808  0.0876  0.2754
26274W        W42348  12.266  13.006   1.026 -0.1947 -0.2979 -0.1924
26275W        W42349   6.689  13.981   1.816  0.1182 -0.1875 -0.3770
26276W        W42350   7.436   7.197   0.306 -0.0548  0.0004 -0.1386
26277W        W42351  15.944  11.349   5.190 -0.2276  0.1501  0.2111
26278W        W42352   0.953  11.873   0.352 -0.1960  0.2332 -0.0207
26279W        W42353   9.305   0.157   1.079 -0.4084 -0.4553  0.4224
26280W        W42354   2.139  10.650  12.311 -0.1056 -0.0672  0.2319
26281W        W42355   8.120   5.980  11.370 -0.0402  0.2114  0.2262
26282W        W42356   4.121   1.280   3.408  0.0603 -0.1465  0.1732
26283W        W42357   6.671   8.722   3.000 -0.3237 -0.0856  0.1960
26284W        W42358   7.679  12.970  13.136  0.2062 -0.2494 -0.0434
26285W        W42359   1.934   0.547  12.996 -0.1511  0.0654 -0.3799
26286W        W42360  14.549   4.428  14.016  0.1467  0.1876  0.4125
26287W        W42361   4.527  13.152  13.191 -0.0470  0.0863 -0.0158
26288W        W42362  12.727   5.941  14.697  0.2139 -0.0935  0.0304
26289W        W42363  10.830  15.087   0.293  0.2405  0.0457  0.2748
26290W        W42364  12.485  10.850   4.875 -0.3517 -0.2272  0.0806
26291W        W42365   9.753   8.355  11.563  0.1688  0.2351 -0.2432
26292W        W42366   8.698  17.602   4.927 -0.1258 -0.1125  0.0279
26293W        W42367   6.304  18.208   3.839 -0.3223 -0.2606  0.2899
26294W        W42368   9.241   6.453  12.166 -0.1354  0.1577 -0.2983
26295W        W42369   3.592   5.644   0.991  0.0562 -0.0706  0.1974
26296W        W42370  14.661  15.435   3.528  0.3027 -0.1146  0.1215
26297W        W42371  17.285  15.328  13.014  0.2163  0.0939  0.0289
26298W        W42372  16.953  11.532   5.943  0.0455  0.2708 -0.1018
26299W        W42373  12.730   8.836   4.043  0.0026 -0.1294  0.0341
26300W        W42374  15.941  14.359  10.423 -0.0767  0.1561 -0.4124
26301W        W42375   5.333   7.624   4.757 -0.0178 -0.0460  0.0861
26302W        W42376  18.912   9.718  12.955 -0.0814 -0.1883  0.2778
26303W        W42377  19.269   5.947   4.679 -0.2563  0.2369 -0.1973
26304W        W42378   3.676  10.231   1.117 -0.1600  0.0453 -0.0577
26305W        W42379   7.800   5.029   5.566 -0.0106 -0.3590 -0.1344
26306W        W42380  18.871  12.373  13.241  0.0316 -0.1035 -0.0436
26307W        W42381   4.904   5.303  13.759  0.0666 -0.2610 -0.0386
26308W        W42382   2.719  11.148   2.511  0.0338  0.0065  0.0890
26309W        W42383  14.501  16.862   3.849  0.4229  0.2634 -0.1442
26310W        W42384   3.235   0.852  13.448  0.1206 -0.1955  0.1896
26311W        W42385   2.317   4.098   1.916  0.1218  0.1001  0.1867
26312W        W42386  12.854  13.687  10.435  0.0298 -0.3845  0.1370
26313W        W42387  15.912   3.219  10.391 -0.3071  0.3440 -0.0128
26314W        W42388   9.764   1.504   5.162 -0.3369 -0.0859  0.3803
26315W        W42389   0.949  14.659  13.871  0.0134  0.3288  0.0718
26316W        W42390  11.987  15.462  13.346 -0.4012  0.0973  0.4472
26317W        W42391  15.796   3.222   5.266 -0.0285 -0.2054  0.2353
26318W        W42392   1.329   2.466   3.808 -0.2980 -0.0679  0.0201
26319W        W42393   8.245  18.600   0.602 -0.2401  0.1166  0.1497
26320W        W42394   1.019   6.083  13.816  0.0877 -0.4893 -0.1674
26321W        W42395   0.720  11.123   1.297  0.3996 -0.1401 -0.1033
26322W        W42396  15.468   9.402   2.786  0.1010 -0.1696 -0.0578
26323W        W42397   9.264   6.453  14.245 -0.0422 -0.0656 -0.0529
26324W        W42398   8.503   2.359  12.186 -0.1861 -0.1431  0.0258
26325W        W42399   0.161   4.346   0.526 -0.0714 -0.1014  0.1848
26326W        W42400   0.307   5.885   4.321 -0.1031 -0.1311 -0.1026
26327W        W42401  10.492  16.265  10.979 -0.0898 -0.1512 -0.1230
26328W        W42402   5.898  14.791   1.903  0.2025 -0.3637  0.0980
26329W        W42403  12.513  11.528   5.434 -0.0640 -0.1666  0.0337
26330W        W42404   8.159  18.009   1.260 -0.0297  0.3529  0.0350
26331W        W42405  13.094  14.479  13.302  0.1979 -0.0546  0.1308
26332W        W42406   4.258  10.221  11.795 -0.1843 -0.0146 -0.1579
26333W        W42407  18.695   6.014  11.932  0.1767  0.1085 -0.0477
26334W        W42408  16.319  15.099   1.922 -0.0318  0.1975  0.1478
26335W        W42409  11.881  17.307  13.748 -0.0153 -0.0663 -0.0410
26336W        W42410  14.118   4.379   2.431 -0.0494  0.0774 -0.1029
26337W        W42411   4.259   9.650  10.924 -0.0844  0.1761  0.0692
26338W        W42412  10.037   4.568  12.363 -0.1816 -0.2815 -0.0652
26339W        W42413   8.231  10.055  13.180 -0.1771 -0.0539  0.1463
26340W        W42414   4.792   8.148   0.059  0.3480 -0.2666 -0.0433
26341W        W42415   4.867  10.860   4.471 -0.3422  0.0945 -0.0079
26342W        W42416   7.357   5.010   3.905 -0.0089  0.1455 -0.0060
26343W        W42417   9.021  10.189  11.292  0.1184  0.0391 -0.0705
26344W        W42418   9.986  17.720   1.923 -0.1149 -0.0415 -0.3067
26345W        W42419   0.068  15.244   2.242  0.2717 -0.0558 -0.0641
26346W        W42420   1.940  13.286  12.978 -0.3839  0.1463 -0.0685
26347W        W42421  18.460   4.954   4.454  0.0445  0.2245  0.2179
26348W        W42422   4.466  11.288   9.352 -0.0457  0.4201 -0.6117
26349W        W42423   2.904   0.404   4.551 -0.0885  0.3799 -0.2641
26350W        W42424  12.235   0.316  13.384 -0.2024  0.0695  0.5747
26351W        W42425  17.490  13.181   4.422 -0.3205  0.1769 -0.0748
26352W        W42426   2.760  14.781  14.261 -0.1223  0.0798  0.0865
26353W        W42427   0.230   6.587   3.329  0.0617  0.0091 -0.2843
26354W        W42428  16.647  11.345  12.945  0.0538 -0.2832 -0.1278
26355W        W42429  12.939   8.151  12.574 -0.1680  0.0403  0.1959
26356W        W42430   7.584  16.252  12.278  0.1089  0.0872  0.0031
26357W        W42431   7.400  17.625  11.625  0.3350  0.0543 -0.0222
26358W        W42432   5.525   6.913  14.006 -0.0364 -0.3808 -0.2644
26359W        W42433   1.807   1.174  12.235  0.1359 -0.1302  0.4410
26360W        W42434  17.400   3.577  14.503  0.0261 -0.2135 -0.0521
26361W        W42435  10.919   6.590   0.724  0.0467  0.1020  0.2315
26362W        W42436  17.433   9.446  11.945  0.2351 -0.1947  0.1090
26363W        W42437   2.995   5.944   0.178 -0.0602 -0.1539 -0.0937
26364W        W42438   8.001  12.310   3.098  0.1694 -0.0454  0.0906
26365W        W42439   8.178   0.474  12.799 -0.2019 -0.2698  0.1691
26366W        W42440   6.195   3.979  13.916  0.0542  0.0307  0.2875
26367W        W42441   8.726   2.541  12.903  0.0404  0.1495 -0.2517
26368W        W42442  11.194  12.335   5.121 -0.0777 -0.1731 -0.4932
26369W        W42443  16.885  10.132   2.082  0.0642  0.1095  0.0135
26370W        W42444  15.637  11.582  11.621  0.2481 -0.1089  0.0567
26371W        W42445  19.171  12.510   3.406 -0.1059  0.1129 -0.2098
26372W        W42446   2.818  13.936  10.571 -0.0655 -0.2364  0.3964
26373W        W42447  19.122  15.296   3.606 -0.1192  0.0520  0.5126
26374W        W42448   9.759   3.597   2.709  0.1216  0.1692 -0.2147
26375W        W42449  11.409   6.622   3.481  0.0911 -0.1574  0.0420
26376W        W42450   8.644   0.105   1.608 -0.1771  0.1266 -0.0252
26377W        W42451   7.504   9.367   3.238 -0.0387  0.1006  0.1890
26378W        W42452  12.780  10.554  14.326  0.2964 -0.1493 -0.0579
26379W        W42453  10.854  15.973   5.111 -0.1595  0.0444 -0.0673
26380W        W42454  11.867  14.008   0.182 -0.0509  0.0992  0.0842
26381W        W42455  18.255   6.285   2.514 -0.0770 -0.0684 -0.2023
26382W        W42456   7.236   7.969   2.465 -0.3584 -0.0176 -0.1138
26383W        W42457  13.218  18.818   1.971 -0.0933  0.0347 -0.0868
26384W        W42458   8.317  11.938   3.298  0.0595 -0.0743  0.3762
26385W        W42459  11.780   4.489   4.335 -0.1240  0.2612 -0.4528
26386W        W42460   5.114   3.030   2.340 -0.0010  0.1459  0.0472
26387W        W42461   3.425  12.824  10.008 -0.1161 -0.3201  0.1198
26388W        W42462  17.371  12.750  13.911  0.2998  0.2896 -0.1334
26389W        W42463  10.002   4.576   5.691 -0.0518 -0.0867  0.0546
26390W        W42464  14.259   6.101   1.465  0.2797 -0.1651  0.3559
26391W        W42465  13.560  10.023  14.452 -0.0915 -0.3464 -0.3274
26392W        W42466  17.674  10.446  12.064  0.2811  0.1029 -0.0810
26393W        W42467   6.841  13.992   0.801 -0.0547 -0.0568  0.0436
26394W        W42468   9.547  16.536   2.460  0.3641 -0.2227  0.1712
26395W        W42469  15.714   5.053  13.278 -0.1372 -0.4618 -0.2209
26396W        W42470   7.322   7.582   2.106  0.0770 -0.2455  0.2380
26397W        W42471   6.639   7.637  12.790 -0.0344  0.5978 -0.2284
26398W        W42472   5.531   2.179  13.523  0.0956 -0.0498 -0.0143
26399W        W42473   0.341   2.468  11.933 -0.0059  0.1393  0.1231
26400W        W42474   0.701   4.858  12.081  0.0726  0.2337  0.1793
26401W        W42475  12.645  12.039   0.362 -0.0713  0.3646  0.1947
26402W        W42476   5.327   8.673  10.585 -0.0781 -0.1745 -0.0995
26403W        W42477   3.427  10.594  14.996  0.1672 -0.1387  0.0325
26404W        W42478   9.110   6.940   0.563  0.1200  0.0225  0.1170
26405W        W42479   5.869   7.739  13.762 -0.0426 -0.0492  0.1032
26406W        W42480   4.671  13.755  13.184 -0.0417 -0.1408 -0.2770
26407W        W42481   1.883   5.554  14.221  0.1958  0.1604  0.1321
26408W        W42482  11.720   4.391   0.056 -0.2615 -0.0088  0.0459
26409W        W42483  11.595  11.769  12.658 -0.1672  0.3825 -0.0967
26410W        W42484  11.120  13.623  10.545 -0.2255 -0.0114 -0.0428
26411W        W42485   5.597  15.606   2.371 -0.2671  0.2504  0.1875
26412W        W42486  14.662   7.930   1.159 -0.0272 -0.1293 -0.2792
26413W        W42487  16.670  12.384   1.053 -0.2295  0.4226 -0.1544
26414W        W42488  19.123  18.884   1.072  0.3510  0.0942  0.1077
26415W        W42489  12.252  14.192  13.480 -0.0012 -0.1261  0.1638
26416W        W42490   7.937   1.076  11.898  0.3199  0.1710  0.1155
26417W        W42491  10.188   3.925   2.709  0.0777  0.1690 -0.3737
26418W        W42492   6.066   6.296  13.500 -0.0223  0.5133 -0.3186
26419W        W42493   8.574   9.372  14.400 -0.0573  0.3223 -0.1152
26420W        W42494  14.350   7.441  14.113 -0.0415 -0.0205  0.0589
26421W        W42495  16.763   7.277  12.770 -0.0734  0.1212  0.2272
26422W        W42496  16.909  13.279  12.510  0.0749 -0.2826 -0.1942
26423W        W42497   2.292  15.267   0.711  0.1179  0.0045  0.1176
26424W        W42498  11.759  13.318   1.848  0.0996  0.2595  0.1183
26425W        W42499  11.998   7.737  10.881 -0.2624 -0.1688 -0.0977
26426W        W42500   8.492  14.355   1.044 -0.1070 -0.2810 -0.0848
26427W        W42501   9.762   5.333   1.243 -0.3688 -0.1598  0.1524
26428W        W42502   2.699   4.750   1.208 -0.3061 -0.0782  0.0402
26429W        W42503  10.825   6.317   3.922  0.1529 -0.1489  0.0578
26430W        W42504  17.715   6.495   3.581  0.1165 -0.1283 -0.2438
26431W        W42505  15.189  18.453   1.014 -0.1207  0.0939  0.3690
26432W        W42506  16.556   0.311   0.326  0.0607  0.0164  0.0638
26433W        W42507   3.823  18.614  14.855 -0.1303 -0.2624 -0.3228
26434W        W42508  10.017  17.493   2.945  0.0851 -0.0563  0.0477
26435W        W42509  12.580   9.097  14.660  0.0024 -0.2584 -0.0935
26436W        W42510   4.859  14.429   3.927 -0.1242 -0.2650  0.0970
26437W        W42511   0.948   1.508   0.547 -0.1595 -0.1054  0.0579
26438W        W42512   2.451  17.501  10.696  0.2075 -0.1499 -0.0571
26439W        W42513   3.171  12.832   3.773  0.1655  0.2485 -0.0355
26440W        W42514  18.303  17.398  12.078 -0.3516 -0.2232 -0.0864
26441W        W42515   5.356   6.549   2.426  0.1855 -0.0868  0.1774
26442W        W42516   3.052   2.707   4.770  0.0789  0.0617  0.0002
26443W        W42517   6.062  18.420  12.293  0.1104 -0.2562 -0.2866
26444W        W42518   4.172   2.919   4.241 -0.2305  0.0554  0.1571
26445W        W42519  17.605   2.633  10.488 -0.2431  0.1918  0.2286
26446W        W42520  15.603  12.925  10.693 -0.1283 -0.2212 -0.1526
26447W        W42521  11.622  15.303  11.508  0.3711 -0.1431  0.1725
26448W        W42522  14.865  12.939  11.383 -0.0231  0.1154 -0.2494
26449W        W42523  14.655  17.690  14.792  0.2134 -0.1593  0.0845
26450W        W42524  11.198  16.877   3.162  0.3720  0.1178  0.0722
26451W        W42525   2.800  19.111   0.590  0.0033 -0.1244  0.2667
26452W        W42526  11.138   4.378  10.063  0.1370 -0.1311 -0.3055
26453W        W42527   3.947  12.192   1.581 -0.0738 -0.0753 -0.0235
26454W        W42528  10.864   6.322  13.522  0.2148 -0.2998 -0.2199
26455W        W42529   7.731   6.798   1.699 -0.0347 -0.0930  0.1984
26456W        W42530   4.313  18.544  14.677  0.0689 -0.0274  0.1063
26457W        W42531   8.465   2.518   1.950 -0.0756  0.1256 -0.0177
26458W        W42532  18.182   4.563   4.302  0.3668 -0.0644 -0.0389
26459W        W42533  18.309  17.537   4.128  0.4146 -0.0526 -0.2246
26460W        W42534   4.416  13.949   1.584  0.1256  0.2484 -0.0832
26461W        W42535  18.444  17.161  10.946 -0.1378 -0.1710 -0.1642
26462W        W42536   2.507   2.372   3.138  0.0948  0.1263  0.2891
26463W        W42537  18.976  14.221   3.256 -0.1892 -0.1898  0.0171
26464W        W42538   7.409   4.259   5.114 -0.2115  0.1193  0.1613
26465W        W42539   8.080   7.603  11.103  0.1760  0.1638 -0.2771
26466W        W42540   1.938   0.747   1.909  0.1185  0.1421 -0.0432
26467W        W42541   7.221   0.750  14.836 -0.0019 -0.0324 -0.0275
26468W        W42542  18.983  10.605  10.732 -0.1225  0.0256  0.3512
26469W        W42543   8.568   2.204   4.484 -0.0435 -0.0731 -0.3942
26470W        W42544   7.995   5.285  14.693  0.0167 -0.2758 -0.0109
26471W        W42545  15.935  18.757   3.424 -0.1999 -0.1240  0.1988
26472W        W42546   9.471   7.776   3.284 -0.0934 -0.2185  0.1638
26473W        W42547  13.728   1.132  10.838  0.1252 -0.0644 -0.1729
26474W        W42548  11.772  15.712  14.303  0.0076 -0.3251 -0.2029
26475W        W42549   8.115   6.813  10.555  0.3535 -0.1964 -0.2151
26476W        W42550   9.673  17.782   0.954  0.3219  0.1321  0.4389
26477W        W42551   7.287  17.233   2.392  0.1902 -0.1418  0.0699
26478W        W42552   6.966   5.328   5.425  0.1277  0.0778  0.1711
26479W        W42553  11.055   1.706  13.836 -0.0522  0.0772 -0.1413
26480W        W42554   4.836   4.253   1.708  0.0192 -0.4309 -0.1568
26481W        W42555  15.991   2.920  14.253  0.1207  0.0598  0.0589
26482W        W42556   0.736   3.107  12.741  0.2057  0.0620 -0.1951
26483W        W42557   1.739   0.102   2.341  0.2269 -0.0482  0.0109
26484W        W42558   3.956   2.571  14.935  0.0338  0.0046 -0.1868
26485W        W42559  15.161   3.933   4.175  0.3052 -0.1252  0.2096
26486W        W42560  18.063  11.268   3.114 -0.0027 -0.0925  0.1549
26487W        W42561   7.176  13.278  11.415 -0.0271  0.1026  0.1690
26488W        W42562   3.768   0.024   0.965  0.2141  0.2782  0.4652
26489W        W42563  14.099  14.452  10.567 -0.1133  0.0791 -0.2805
26490W        W42564  18.281  12.714   5.567 -0.1859  0.1660 -0.1444
26491W        W42565  16.974  16.469   1.295 -0.0310 -0.2081 -0.0382
26492W        W42566   1.377  18.920   0.269 -0.3919 -0.3446 -0.0226
26493W        W42567   1.853  19.081   3.457 -0.3536  0.2119  0.0842
26494W        W42568   6.247  15.736   3.145 -0.3396  0.3194 -0.2686
26495W        W42569   7.759  15.834  11.989  0.2311  0.3251 -0.0379
26496W        W42570   6.725  18.083  14.644 -0.3623  0.0784 -0.0472
26497W        W42571  15.869   3.707  11.780  0.0166 -0.1476  0.0103
26498W        W42572  14.287   4.210  12.288 -0.2237  0.0400 -0.0506
26499W        W42573   2.049   9.232  11.902 -0.2890  0.0526 -0.0992
26500W        W42574  19.177   7.803   1.021 -0.3278 -0.3463 -0.0912
26501W        W42575  13.906   6.744  11.709  0.1908  0.0404 -0.3089
26502W        W42576  13.994  11.765   3.704 -0.1525  0.2190 -0.1200
26503W        W42577   5.324   3.409   3.850 -0.0345 -0.3117  0.2110
26504W        W42578   1.612   0.778   0.256  0.0135  0.0658  0.0179
26505W        W42579  18.341   5.726  11.617  0.0609  0.1627  0.0935
26506W        W42580   5.345  16.167   4.423 -0.0403  0.1667  0.0359
26507W        W42581  10.157  11.104  11.019 -0.0430  0.1365  0.1441
26508W        W42582  17.492   2.693   1.131 -0.3743 -0.0438  0.2428
26509W        W42583  16.425  13.080   3.744 -0.0932 -0.0027  0.0500
26510W        W42584  16.176   8.896  11.267  0.2455 -0.0851 -0.2017
26511W        W42585  13.431   1.197  13.797 -0.1670 -0.3116 -0.1770
26512W        W42586  15.456   0.419   5.296 -0.2187  0.2318  0.4841
26513W        W42587   7.115  15.869   1.851  0.1539 -0.0093  0.1675
26514W        W42588  17.569  11.500  14.898  0.2973  0.0614 -0.1708
26515W        W42589   5.615   6.660   1.605 -0.0282  0.2478  0.0701
26516W        W42590   8.151  16.209   0.443  0.0436  0.2722 -0.3601
26517W        W42591   8.366   9.535  13.447  0.0088  0.0945 -0.0745
26518W        W42592   4.739  17.238   0.792  0.1335 -0.3745 -0.2998
26519W        W42593   8.374  12.503  11.816 -0.0791  0.0639 -0.0572
26520W        W42594  17.187   8.066   0.651 -0.0570  0.1439 -0.0955
26521W        W42595   2.916  12.115   5.465 -0.0597  0.1734 -0.3020
26522W        W42596   6.738   5.653   5.009  0.3927  0.0328 -0.1286
26523W        W42597   8.365  10.586   1.313  0.0178 -0.0394  0.4617
26524W        W42598   4.990  18.817  13.274 -0.1113  0.0648 -0.0148
26525W        W42599  13.492  19.155   2.260  0.3311 -0.1382  0.1134
26526W        W42600  12.731   2.773   3.110 -0.2517 -0.3409  0.0695
26527W        W42601   1.594   4.074  13.386  0.0369 -0.0734  0.2197
26528W        W42602  11.605  12.072   5.020 -0.3701 -0.0903  0.0209
26529W        W42603   0.741  11.151  11.207  0.1134  0.1662 -0.0090
26530W        W42604   5.200   6.506   1.908 -0.2881 -0.0738  0.0087
26531W        W42605  15.642  13.821  11.875 -0.0632 -0.1391 -0.0163
26532W        W42606   0.484   9.504  12.442 -0.3164  0.1393 -0.5271
26533W        W42607   4.374  14.534  10.703 -0.1158  0.1076 -0.0012
26534W        W42608   1.064  18.302   2.525 -0.2367  0.5285  0.1609
26535W        W42609   8.521   2.544  14.266 -0.3187 -0.0024  0.0751
26536W        W42610  15.515  12.894   2.843 -0.1266 -0.1355  0.1697
26537W        W42611   5.844   1.847   5.324  0.0599 -0.3146 -0.1395
26538W        W42612  15.885  13.507  13.520 -0.0340  0.0018  0.0194
26539W        W42613  13.099  11.362   1.395 -0.0667 -0.2351 -0.2021
26540W        W42614  13.840   4.085  13.104 -0.1433  0.2125  0.0802
26541W        W42615  13.877   6.303  13.316 -0.1343  0.0127  0.2547
26542W        W42616  18.330  12.839   1.659 -0.0399  0.0348  0.2706
26543W        W42617  16.468   9.135  14.853  0.2336  0.1037 -0.0313
26544W        W42618  16.753  11.511   4.874  0.0701 -0.2315  0.1644
26545W        W42619   0.008   8.935  13.783  0.1438 -0.0939 -0.2016
26546W        W42620   0.309   7.757   4.706  0.3078 -0.1871 -0.1644
26547W        W42621  18.352   0.352  12.204 -0.2669 -0.2759 -0.0890
26548W        W42622   5.142   1.004  13.339  0.0252  0.0943 -0.2387
26549W        W42623   4.608  18.318  14.028 -0.0116  0.0106  0.2993
26550W        W42624  12.931  15.316  12.140 -0.1328 -0.0879 -0.0979
26551W        W42625  15.565  17.457  13.039 -0.4348 -0.2223  0.1885
26552W        W42626  15.328   8.367  13.482 -0.1507 -0.0196  0.2212
26553W        W42627  14.335  15.768   4.774  0.0996  0.0834 -0.1200
26554W        W42628   2.609   3.898   0.227  0.2418  0.0400  0.1161
26555W        W42629  11.365   9.727  14.771 -0.5397  0.1293  0.1101
26556W        W42630  18.948  17.459  14.519 -0.2114  0.1274 -0.1560
26557W        W42631  10.291  18.544  14.505  0.0659  0.1552 -0.1481
26558W        W42632  15.378   7.142   5.908 -0.0899 -0.1872  0.0887
26559W        W42633   2.851   3.523   3.289  0.0502 -0.1321 -0.0292
26560W        W42634  17.235  10.541   3.397 -0.0094 -0.0313 -0.3392
26561W        W42635  15.778  18.128  11.768  0.1925 -0.3491 -0.2912
26562W        W42636   2.012  11.442  12.477  0.1475  0.2023  0.3813
26563W        W42637  12.197   3.838   1.335 -0.2484  0.0057 -0.2116
26564W        W42638  19.199  10.822   5.852 -0.0268 -0.0152  0.3590
26565W        W42639  14.057  18.373   3.203  0.2348 -0.0957  0.0161
26566W        W42640  12.692  10.294   3.489  0.1289  0.2323  0.1730
26567W        W42641  13.684   0.935   0.257 -0.1563  0.2969  0.1899
26568W        W42642  17.493   0.865  10.953  0.4052 -0.0793  0.0755
26569W        W42643   0.334  17.769   3.241  0.2015  0.0595  0.2726
26570W        W42644   1.639   0.254  13.477 -0.1158  0.0293  0.0374
26571W        W42645  16.367  13.091   4.279 -0.2799  0.1207 -0.3014
26572W        W42646  13.632   5.311   3.618  0.0978 -0.0045  0.1519
26573W        W42647   3.128  11.109   2.814 -0.1422  0.1314 -0.2204
26574W        W42648  12.780  14.290   1.804  0.4876 -0.2029  0.1632
26575W        W42649  13.523  13.300  12.891  0.0309  0.1912  0.0137
26576W        W42650  10.247   4.562   3.204  0.3412 -0.0766  0.0921
26577W        W42651   6.285  16.329  12.932  0.1552 -0.0193 -0.1896
26578W        W42652  12.260  17.981   4.600 -0.3243  0.2062 -0.1004
26579W        W42653   0.467   6.857   2.841 -0.0196  0.1266  0.0834
26580W        W42654  10.221   5.292  11.596 -0.2991  0.0585 -0.0779
26581W        W42655   4.723   5.474   2.799  0.4335 -0.0189  0.0292
26582W        W42656   1.764  11.603   2.746  0.1026 -0.0679  0.0896
26583W        W42657   6.073  12.469  12.185  0.1153 -0.3037  0.1500
26584W        W42658  12.815  18.440   2.880 -0.3706 -0.0539 -0.0177
26585W        W42659  19.210  10.491   5.430 -0.1366  0.2250 -0.1627
26586W        W42660  13.275   8.726  14.227 -0.0746 -0.1782 -0.0324
26587W        W42661   8.718   3.290   3.926  0.0852  0.0661 -0.0438
26588W        W42662   4.420  16.872   2.128  0.3553 -0.1232 -0.5024
26589W        W42663   9.021  13.325   3.837  0.1104 -0.1955  0.2614
26590W        W42664  16.457   4.230   2.854  0.1226 -0.0174 -0.1236
26591W        W42665  10.883  11.420  12.320 -0.1156 -0.1668  0.0066
26592W        W42666  15.253  13.477   4.477  0.1852  0.2584  0.0632
26593W        W42667   7.061  10.718  14.871  0.1180  0.2997 -0.4060
26594W        W42668  12.337   3.489   2.243 -0.1300  0.2636  0.0539
26595W        W42669  13.751   7.601   0.816 -0.0305 -0.0010  0.0944
26596W        W42670  19.129   0.130  13.342 -0.3893 -0.2118  0.1973
26597W        W42671  12.165   7.260   1.316  0.1420  0.2143 -0.0525
26598W        W42672  18.435  14.134   4.336  0.1211 -0.3172 -0.2108
26599W        W42673  10.692   1.624   4.991 -0.0118 -0.0301 -0.0947
26600W        W42674   5.954  14.682   9.813 -0.2095 -0.1849  0.1526
26601W        W42675  12.711  18.126   3.727  0.2568 -0.2466  0.3459
26602W        W42676  10.581  16.420  13.645 -0.2079  0.0617 -0.1228
26603W        W42677   9.415  18.160  10.295 -0.2761  0.0224 -0.0556
26604W        W42678   6.769  16.196  11.659  0.0384  0.0168 -0.1179
26605W        W42679  16.278  13.278   2.713  0.0553  0.1164  0.1756
26606W        W42680  18.134  17.661  14.313 -0.0116  0.1101  0.1123
26607W        W42681   1.454   2.222   3.387 -0.2164 -0.1302  0.2947
26608W        W42682  16.952  18.287   3.500  0.0124  0.2959  0.2136
26609W        W42683   6.387  15.231   2.175 -0.3367 -0.3097 -0.1796
26610W        W42684   5.575  14.367   0.565 -0.1919 -0.2713  0.1016
26611W        W42685  15.803  16.745  12.251  0.1217 -0.2314 -0.1364
26612W        W42686  13.503   0.607  12.813 -0.1310  0.1987  0.0917
26613W        W42687  16.035   5.204   1.268  0.0652 -0.0558  0.3273
26614W        W42688  11.102   2.197  14.865 -0.1067 -0.0914  0.1754
26615W        W42689   2.827   9.895   3.070  0.0007 -0.0993  0.0880
26616W        W42690   8.883   0.875   1.652  0.0380  0.0788 -0.1527
26617W        W42691   5.829  14.627  11.610 -0.2699 -0.1828  0.0517
26618W        W42692   2.886   2.323  13.740  0.0385 -0.0386  0.0487
26619W        W42693  14.058   8.798  10.996  0.0701  0.1365  0.2992
26620W        W42694   0.129   9.935   3.195  0.0899  0.2003 -0.3191
26621W        W42695   9.389   6.729   1.951  0.1791 -0.0756  0.2267
26622W        W42696  12.794   2.681  11.162 -0.0403 -0.1792 -0.2282
26623W        W42697  12.022   4.512   3.912 -0.0703  0.6289  0.3061
26624W        W42698  10.013  16.901  14.390 -0.1166 -0.0339  0.2820
26625W        W42699   4.155  13.476   4.032  0.2446 -0.1683  0.4617
26626W        W42700  14.631  16.457   0.071  0.2552  0.1080  0.1343
26627W        W42701   1.116  11.975   3.385  0.0807  0.2041 -0.0798
26628W        W42702  14.269   9.727  14.628  0.0367  0.0370 -0.0386
26629W        W42703  10.607  10.069   4.172 -0.1341  0.2242  0.4185
26630W        W42704  16.996   0.033  12.505  0.0204 -0.1260  0.1030
26631W        W42705  19.017   3.595   2.723 -0.0798  0.1726  0.1694
26632W        W42706   5.068   9.479   2.202 -0.1676  0.3412  0.1164
26633W        W42707  17.207   3.479  13.752 -0.2283  0.1417  0.0906
26634W        W42708   4.283   0.812   2.018  0.2621 -0.3951 -0.1691
26635W        W42709   6.029   1.234  12.282 -0.0399  0.1631  0.0852
26636W        W42710  17.604  13.386   2.063  0.0997  0.0668 -0.0778
26637W        W42711   2.702   6.816   5.354 -0.0653 -0.3915  0.1756
26638W        W42712  11.111   0.185   1.082  0.0411 -0.0442  0.0638
26639W        W42713   4.658  15.006   4.999 -0.1425  0.0322 -0.0567
26640W        W42714  18.331  10.356   1.600 -0.1774  0.0653  0.0799
26641W        W42715  11.298  18.592  12.644 -0.0540 -0.0791  0.0874
26642W        W42716   7.326   2.431  13.427 -0.0225  0.1990  0.0103
26643W        W42717  16.820  17.690   6.062  0.0853  0.0962  0.2154
26644W        W42718   9.551  13.306  14.213  0.0724 -0.2199 -0.1250
26645W        W42719  15.974   9.297   6.158 -0.3251 -0.5565  0.1678
26646W        W42720   4.267  15.752   1.197 -0.1487  0.3741  0.0565
26647W        W42721   3.773   9.402  10.968  0.0600 -0.1020 -0.0146
26648W        W42722  18.040   2.497   4.320  0.0670  0.0258  0.0964
26649W        W42723  18.745   6.038   4.323  0.1841  0.1534  0.0382
26650W        W42724   8.897  11.541   1.801 -0.2837  0.1064  0.3800
26651W        W42725  18.774   1.821  11.836 -0.0512 -0.1109  0.4919
26652W        W42726  11.362   2.335   2.188  0.0018  0.0013 -0.1658
26653W        W42727   5.120  14.899   4.783 -0.0673  0.4090 -0.0477
26654W        W42728  15.018   3.249  11.535  0.2767  0.3612  0.0917
26655W        W42729   5.104  18.162  13.990  0.1888 -0.0955  0.0531
26656W        W42730   6.938   9.023   1.051  0.1196 -0.0048 -0.2064
26657W        W42731  17.027  10.159   2.566 -0.4375  0.1431  0.1639
26658W        W42732  12.042  16.146   1.703 -0.0036 -0.3201  0.2085
26659W        W42733  15.510  12.137   4.753  0.3870  0.1688 -0.0237
26660W        W42734  18.204   9.547   3.804  0.2014 -0.1289 -0.1304
26661W        W42735  12.639  12.869  11.903 -0.0160  0.2894 -0.2334
26662W        W42736   7.216  12.972  11.876  0.4467  0.0543 -0.1162
26663W        W42737   9.778  12.826  10.742 -0.1433 -0.0258 -0.1074
26664W        W42738  17.320   8.944  12.797  0.2621 -0.0865 -0.3578
26665W        W42739  13.586   4.722  14.591 -0.2108  0.1220 -0.3858
26666W        W42740   6.852   9.181  10.763  0.0785 -0.1730 -0.1846
26667W        W42741  18.717   8.659  13.013 -0.4588  0.4257  0.0630
26668W        W42742  10.185   5.473  12.674  0.3900  0.1523 -0.0525
26669W        W42743   0.273   3.030  12.054  0.1152  0.1491 -0.0426
26670W        W42744   5.519   9.884   1.522  0.0419 -0.2069  0.1226
26671W        W42745  12.529   2.592  12.974 -0.0059 -0.2531  0.2831
26672W        W42746  18.545   1.069  12.274 -0.4407  0.1743  0.2517
26673W        W42747   5.600  16.806  10.544 -0.1148  0.0044  0.0729
26674W        W42748  17.835  12.545  11.895 -0.1891 -0.0059  0.1764
26675W        W42749   0.322  10.646   0.358  0.0339  0.0423 -0.0302
26676W        W42750  11.285   3.851   1.092  0.1317 -0.0457 -0.3006
26677W        W42751  10.776   8.686   3.071 -0.0829  0.0917  0.1882
26678W        W42752   7.577  11.124  14.119  0.0452 -0.1580  0.0053
26679W        W42753  18.702   4.864  13.389  0.1791 -0.0537 -0.1452
26680W        W42754   4.059  12.988   4.130  0.1435 -0.1057  0.1175
26681W        W42755   5.510  16.936   4.902 -0.0077 -0.4298  0.1247
26682W        W42756   4.541   7.483  13.482 -0.3503  0.2378 -0.1368
26683W        W42757   9.874   4.614   0.398  0.1855  0.0225  0.1424
26684W        W42758  13.403   2.348  12.230  0.0828 -0.2018 -0.4868
26685W        W42759  13.291  10.491  14.429  0.1733 -0.0253  0.1874
26686W        W42760  10.299   4.864  12.843  0.0537 -0.2818 -0.0697
26687W        W42761  10.389   7.973   0.500  0.2105 -0.0910 -0.2178
26688W        W42762  17.346  18.540   1.706 -0.0090 -0.0765  0.3765
26689W        W42763   4.828   1.998   9.713  0.1190 -0.1875  0.3406
26690W        W42764  15.480   1.351   0.529 -0.0932  0.1994 -0.0273
26691W        W42765   7.220   9.916  11.917  0.0188 -0.1717  0.0759
26692W        W42766   8.437  11.230   4.912  0.3051 -0.0614 -0.4578
26693W        W42767  12.288   1.676   9.985  0.0696  0.1874  0.3452
26694W        W42768   9.002   2.559   2.026 -0.0694 -0.0790  0.1623
26695W        W42769  16.108  13.162  14.824 -0.0184  0.0107 -0.1608
26696W        W42770  14.182  11.880   4.601  0.0274  0.0362  0.3313
26697W        W42771   3.374   6.419   4.738 -0.3894 -0.1589  0.2061
26698W        W42772  11.472  13.582  10.164  0.1605  0.1492  0.1082
26699W        W42773   3.225   6.829  11.377  0.0583 -0.5027  0.0864
26700W        W42774  11.165  16.627   1.975  0.2934  0.5035  0.1750
26701W        W42775  11.194  11.011   1.530  0.0978  0.0587  0.1730
26702W        W42776  17.219   9.874   3.651  0.0827 -0.0969  0.1625
26703W        W42777  13.550   4.821   9.691 -0.0408 -0.1783  0.0595
26704W        W42778   8.024  12.850   5.013 -0.1028  0.1110  0.2391
26705W        W42779  13.091  12.065  11.782  0.0621 -0.0144 -0.1800
26706W        W42780   2.382  10.633  12.752 -0.0253 -0.1330 -0.1381
26707W        W42781  13.950   6.400   3.873  0.0851  0.2741 -0.1841
26708W        W42782   2.704  10.585  12.366  0.0114 -0.0069 -0.5026
26709W        W42783   7.649   0.071  10.740  0.0902  0.3277  0.0746
26710W        W42784   1.388  11.014   3.268  0.6363  0.2197 -0.1869
26711W        W42785   4.362   5.977   2.864  0.0008 -0.0593  0.0658
26712W        W42786   6.009   8.871   3.942 -0.0233  0.0504 -0.0397
26713W        W42787   5.454  10.354  11.134  0.3067 -0.3462  0.0713
26714W        W42788   2.750  15.263  14.171  0.0767 -0.1257 -0.2252
26715W        W42789   8.080   5.678   1.489 -0.3148  0.1412 -0.4145
26716W        W42790  12.609   9.060  11.452 -0.2369 -0.0834 -0.0753
26717W        W42791   4.110   4.049  12.018 -0.1506  0.1018  0.2619
26718W        W42792  13.835   2.326   1.616 -0.1270 -0.0744 -0.0611
26719W        W42793  14.386  13.722   0.345 -0.0406 -0.2429 -0.0125
26720W        W42794  14.195   8.687   2.652 -0.3807 -0.1798  0.0303
26721W        W42795   3.799   5.022  13.425 -0.0219 -0.1438 -0.3165
26722W        W42796   8.673   6.991  13.514 -0.0137  0.4203  0.1882
26723W        W42797   7.525  12.242  11.350  0.1025  0.0686 -0.2870
26724W        W42798   4.576  17.701  13.361 -0.0062 -0.2070 -0.0219
26725W        W42799   4.939  15.577   2.723 -0.2549  0.1434  0.0674
26726W        W42800   3.942   3.595   0.928  0.2115  0.1190 -0.0625
26727W        W42801  11.017  12.067  11.693 -0.0880 -0.0232  0.0442
26728W        W42802  17.069   0.157   3.319 -0.0550 -0.0956  0.4352
26729W        W42803   0.325  19.051  12.526  0.3749 -0.1738 -0.3598
26730W        W42804  16.476  14.076   0.464  0.1007 -0.0408  0.0829
26731W        W42805   6.006   3.311   2.213  0.3992  0.3487 -0.1422
26732W        W42806   5.723  15.734  14.271 -0.1499 -0.0384 -0.1437
26733W        W42807  15.455   2.086   2.115  0.1757 -0.0894  0.1081
26734W        W42808   6.953   9.657   3.249 -0.3401 -0.1859  0.0393
26735W        W42809  18.022   4.499  14.491 -0.0629 -0.1039 -0.1150
26736W        W42810  17.942   0.399   0.920  0.2160  0.1922  0.0561
26737W        W42811   4.262  17.506  14.499 -0.1388  0.2739  0.0358
26738W        W42812   2.128   6.939  14.150 -0.2280  0.1597  0.2058
26739W        W42813  14.682   3.347   1.187 -0.1898  0.2315 -0.3766
26740W        W42814  16.021   8.851   1.152 -0.1055  0.2312 -0.0154
26741W        W42815  13.698   5.820   2.032  0.2724 -0.4764  0.0990
26742W        W42816   4.104   1.168   3.905 -0.1565 -0.1198  0.0880
26743W        W42817  10.738   9.582   4.913 -0.2298  0.1212  0.1304
26744W        W42818   6.760   3.389  11.969  0.3094 -0.0946  0.1619
26745W        W42819   0.544   3.851  14.786 -0.2717  0.0447 -0.2121
26746W        W42820   3.470  15.436   1.649 -0.1093  0.3813  0.1211
26747W        W42821   8.069   9.531  12.082  0.2357 -0.3079  0.1003
26748W        W42822  11.413  13.357   1.249  0.0836 -0.4777 -0.2928
26749W        W42823   4.893   8.463  12.856 -0.2855 -0.1096  0.1185
26750W        W42824   8.015   0.326   3.804 -0.4032  0.0756  0.1336
26751W        W42825   6.999   7.420  13.035 -0.1729 -0.1772 -0.1742
26752W        W42826  12.693  18.240  12.948  0.0012 -0.0213  0.1119
26753W        W42827   0.419  11.310  12.371  0.4260 -0.1827  0.0584
26754W        W42828   3.839   6.901   3.069 -0.2452 -0.2598 -0.2976
26755W        W42829  13.150  13.658  14.013  0.2813  0.5441  0.0229
26756W        W42830   9.422  11.917  14.574  0.2536 -0.0938  0.3055
26757W        W42831  16.184  11.162  13.691  0.0239 -0.0428 -0.3054
26758W        W42832   2.376   8.987  14.319 -0.2192  0.0481 -0.0964
26759W        W42833   1.352  16.815   2.896  0.0043 -0.2102  0.1455
26760W        W42834  14.512  18.973  12.894 -0.0118 -0.3413 -0.4014
26761W        W42835   0.067   0.707   0.918 -0.0733  0.0780 -0.4404
26762W        W42836   3.506   8.197  13.448 -0.0124 -0.0265 -0.3043
26763W        W42837   0.654   3.114  11.645 -0.0731  0.2793  0.1700
26764W        W42838  13.913   8.110  11.667 -0.3159 -0.1181  0.1007
26765W        W42839   3.484   7.348  14.558 -0.5406  0.0446 -0.5614
26766W        W42840  17.862  16.650   5.242 -0.2107  0.0243 -0.1606
26767W        W42841   7.150  18.791   0.199 -0.2570  0.2321 -0.1810
26768W        W42842  15.118   3.721  10.221 -0.3422 -0.1599  0.0024
26769W        W42843   5.297   9.949  11.895 -0.2300  0.0029  0.2748
26770W        W42844   9.646  17.344   2.147  0.1847  0.0376  0.0989
26771W        W42845  14.738  14.459   4.043 -0.1532  0.2625  0.0942
26772W        W42846   1.709   9.766  14.375 -0.1107 -0.2456  0.0783
26773W        W42847  13.725  17.776   1.868 -0.2838  0.1427  0.0669
26774W        W42848  11.417   3.177   3.427 -0.0699 -0.2468  0.2452
26775W        W42849  10.935  14.858  12.104  0.1516 -0.1359 -0.1553
26776W        W42850   7.083  16.377   3.926 -0.3829 -0.0969 -0.0835
26777W        W42851   9.198   5.882   2.378  0.1999 -0.0845 -0.0698
26778W        W42852   2.166   4.476  12.355  0.2472  0.0700 -0.1180
26779W        W42853  15.431   0.285  12.563 -0.1964  0.1896  0.3116
26780W        W42854  10.286  14.789   2.763 -0.1613  0.1615  0.0589
26781W        W42855   2.917  14.984   2.402  0.2045 -0.0418  0.0945
26782W        W42856  15.992  17.222  13.218 -0.2107 -0.1963  0.0062
26783W        W42857   7.443   2.411  11.039  0.0195 -0.0536 -0.0721
26784W        W42858  15.201  10.361  10.644  0.3116  0.2969 -0.1482
26785W        W42859  13.251  19.114  14.396 -0.3384  0.0356  0.3603
26786W        W42860  16.824   2.544  13.077 -0.1025  0.2798  0.0618
26787W        W42861   5.888  12.095   5.355 -0.1480  0.0868  0.3724
26788W        W42862   1.468  18.362   2.178 -0.0672 -0.1521 -0.1163
26789W        W42863   4.267   7.450  10.810  0.3038 -0.1198  0.0041
26790W        W42864  17.276  15.296  10.948  0.0882 -0.1280  0.2496
26791W        W42865  13.511  16.361   1.227 -0.1482  0.3217 -0.1290
26792W        W42866   7.089   6.465  12.866  0.1324 -0.1402 -0.2521
26793W        W42867  18.845  14.606   1.786 -0.1096 -0.0057  0.0822
26794W        W42868  18.639   3.473   5.136  0.1516 -0.2020  0.0491
26795W        W42869   0.674   6.735  13.894  0.0041 -0.1299  0.0970
26796W        W42870  11.140   2.431  12.311 -0.1560 -0.1973  0.4138
26797W        W42871   9.055  16.585   4.777 -0.0996 -0.0710  0.0467
26798W        W42872   9.574  12.868   0.192 -0.0810  0.1445  0.1140
26799W        W42873  15.102   1.388  11.529 -0.1711  0.1219  0.0397
26800W        W42874   1.975   7.085  13.645 -0.2703  0.2195  0.0710
26801W        W42875  16.744  18.510   2.731 -0.1703 -0.0995  0.1305
26802W        W42876   3.040   1.375   2.930 -0.2986 -0.1406 -0.1206
26803W        W42877  12.399   9.030   1.518  0.0952  0.0361  0.1336
26804W        W42878  15.752   0.575   2.819 -0.0607 -0.0215  0.0752
26805W        W42879   3.252  18.458  10.794  0.1099  0.0398 -0.1138
26806W        W42880  18.112   7.939  14.498 -0.0781  0.0936  0.0085
26807W        W42881  14.604  17.922   2.617  0.0328 -0.1206 -0.5129
26808W        W42882   0.632   5.166  13.958 -0.1887 -0.0816 -0.0543
26809W        W42883   2.101   0.273  13.838 -0.0531  0.0558 -0.0148
26810W        W42884  11.670   2.306   4.404 -0.0620 -0.0689  0.4023
26811W        W42885  16.881  13.324   3.677  0.0152  0.2456 -0.1071
26812W        W42886  14.334   7.855   4.484  0.3467  0.0936 -0.6000
26813W        W42887   5.926  12.904   4.258 -0.0011  0.0426  0.0421
26814W        W42888   8.353  16.056   1.114  0.0276  0.3269 -0.0854
26815W        W42889   3.471  16.923   0.608 -0.0685 -0.4034  0.2584
26816W        W42890  10.852  13.718   1.455 -0.1531  0.0757  0.0348
26817W        W42891   0.148  19.033  14.033 -0.1827  0.1938 -0.2160
26818W        W42892   6.264   0.145  11.752  0.0640 -0.1576  0.1818
26819W        W42893   0.097   8.983   1.114 -0.2827 -0.1998 -0.1089
26820W        W42894  11.254  17.478   1.059 -0.0427 -0.0173 -0.3504
26821W        W42895  10.580   5.833   2.233 -0.0199 -0.0285  0.0824
26822W        W42896   0.530  10.239   0.490  0.1236 -0.0448  0.2219
26823W        W42897   5.330  18.175   1.680 -0.1907 -0.0093 -0.1634
26824W        W42898   9.891   6.276   0.166  0.0535 -0.1171 -0.1295
26825W        W42899   0.915   7.164  14.873 -0.1669 -0.0349 -0.2979
26826W        W42900   0.935   8.979   3.339  0.2358  0.0889  0.1621
26827W        W42901  15.521   9.014   0.256 -0.1047 -0.1936 -0.0483
26828W        W42902   4.123  14.569  14.082  0.2172 -0.0970  0.1067
26829W        W42903   0.303  17.991   2.809 -0.0460 -0.0385 -0.2519
26830W        W42904   0.136   0.372   2.415  0.0337 -0.0134  0.2579
26831W        W42905  18.489  15.052   2.888 -0.0497  0.2598  0.3133
26832W        W42906   3.569   5.905   2.303  0.0802 -0.0614 -0.0867
26833W        W42907  15.423  14.785   5.646 -0.1985 -0.1674 -0.2879
26834W        W42908  16.642   8.209  13.044 -0.1498  0.3159 -0.3727
26835W        W42909   4.482  16.895  12.515 -0.3930 -0.0282 -0.1277
26836W        W42910  17.537   6.994   4.788  0.0606  0.0972  0.1263
26837W        W42911   3.407  15.713  10.704 -0.0998  0.1782 -0.2134
26838W        W42912   0.305   9.219  14.106  0.2530  0.0217 -0.0512
26839W        W42913  14.478   7.524  14.705  0.2973  0.0025 -0.1083
26840W        W42914  17.491  11.821  11.437 -0.2930  0.0122  0.0946
26841W        W42915   9.490   4.580  10.306 -0.0222 -0.0721  0.1413
26842W        W42916  11.994  12.752   0.088  0.5781  0.0668 -0.1283
26843W        W42917  15.272  18.105   3.672  0.3996  0.1046 -0.1941
26844W        W42918   0.351  17.582   3.729 -0.0296  0.1565  0.0735
26845W        W42919   4.794   2.479  10.864  0.0629 -0.0675  0.6085
26846W        W42920  18.202   2.828  12.513 -0.2713  0.0954 -0.0702
26847W        W42921   8.755  15.161  10.001 -0.1784  0.0695  0.0220
26848W        W42922   2.731  10.975   0.306 -0.1262 -0.0261  0.1999
26849W        W42923   9.660   1.582  13.250  0.2900  0.2023  0.0263
26850W        W42924   5.743  11.602  12.726  0.0342 -0.1947 -0.2594
26851W        W42925   0.368  16.648   2.397 -0.1398 -0.1789 -0.0226
26852W        W42926   6.199  18.946  12.174 -0.2021 -0.0081 -0.0431
26853W        W42927  10.227   0.665   1.515  0.0604  0.0478 -0.4016
26854W        W42928  12.356  10.176   5.222 -0.0086  0.2776 -0.2798
26855W        W42929  16.832  11.456   4.248 -0.0999  0.3438 -0.1399
26856W        W42930   9.668   5.690   5.672 -0.0056 -0.0520  0.4170
26857W        W42931   5.740   5.094   1.155 -0.1861 -0.0126 -0.0246
26858W        W42932  13.635   4.954  13.784 -0.3075 -0.3546  0.0166
26859W        W42933   1.146   8.588  12.297  0.2378  0.1102  0.3639
26860W        W42934  15.614   5.296   3.737  0.0481 -0.0280 -0.0757
26861W        W42935   1.804   5.644  13.419 -0.3208 -0.0383  0.0679
26862W        W42936   5.414   5.295  12.448 -0.0728  0.1362 -0.1802
26863W        W42937  15.145   5.811   1.724  0.0439  0.2841 -0.0024
26864W        W42938   0.939  19.098   3.521 -0.2582  0.2509  0.1426
26865W        W42939  15.586  16.305   2.666  0.0301 -0.1450  0.0586
26866W        W42940   4.805   5.677  12.028  0.1180  0.1325 -0.1140
26867W        W42941  11.959  17.992   3.145 -0.0924  0.0277 -0.1349
26868W        W42942   0.256  17.770   4.171 -0.1436  0.0413  0.0806
26869W        W42943   5.618  18.246  11.135  0.2725 -0.0648 -0.0662
26870W        W42944   3.424   5.233   0.583 -0.2361  0.0728 -0.0986
26871W        W42945   9.733   3.736   9.342 -0.0362 -0.0417  0.3258
26872W        W42946  12.180   4.202   3.237 -0.2145  0.3402 -0.0190
26873W        W42947   7.531  15.705  12.435  0.0096 -0.2105 -0.1375
26874W        W42948  12.098   4.962  10.964  0.2166 -0.1043 -0.0256
26875W        W42949  13.292   3.506  12.175  0.3827 -0.2784 -0.0769
26876W        W42950  16.145   3.740   1.051  0.0980 -0.2250  0.0850
26877W        W42951  12.587   9.147   1.059  0.0497 -0.0709  0.0387
26878W        W42952  18.089  11.473   2.120  0.0293  0.2958 -0.1392
26879W        W42953  15.833  13.433  10.394 -0.3167 -0.2246 -0.1325
26880W        W42954   9.639  14.419  11.914 -0.0393 -0.1060  0.2308
26881W        W42955   4.484   2.795   1.163 -0.0129 -0.0004 -0.0220
26882W        W42956   4.017   6.962   4.242  0.0874 -0.1038 -0.3583
26883W        W42957  16.139   5.122  14.157 -0.2760 -0.1364 -0.2095
26884W        W42958   9.689   3.581   3.196  0.3626  0.0018  0.0998
26885W        W42959   7.368  15.276   4.096 -0.3070  0.2500 -0.0960
26886W        W42960  16.931   9.653  12.309 -0.0150  0.0509 -0.1778
26887W        W42961   8.135  10.994   0.575 -0.0013 -0.1743 -0.1877
26888W        W42962   3.978  12.572  12.178  0.2506  0.2443 -0.0195
26889W        W42963   9.336  11.182  13.345  0.1153 -0.1398  0.0544
26890W        W42964   5.105  10.351   5.075 -0.0235 -0.0851 -0.0536
26891W        W42965  16.610   9.476  13.069 -0.1129 -0.0714 -0.1815
26892W        W42966  12.981  11.581   2.876 -0.1125 -0.3174  0.0044
26893W        W42967  18.684   2.966   1.817 -0.2691  0.2552  0.0268
26894W        W42968   7.084  11.990  10.461 -0.2992 -0.0908 -0.2803
26895W        W42969  12.336  15.790  10.430  0.1708 -0.1606 -0.0216
26896W        W42970   2.620   0.588   1.208 -0.1229  0.0834 -0.2055
26897W        W42971  13.465   6.188  13.593 -0.2251  0.0896  0.2276
26898W        W42972  11.610   6.403   0.123 -0.0598  0.0097 -0.1195
26899W        W42973  12.664   2.657   2.561 -0.0770 -0.0322  0.1977
26900W        W42974   3.007   4.905  13.427 -0.1027 -0.4361 -0.1543
26901W        W42975  17.685  11.288   2.755  0.0940 -0.2801  0.1514
26902W        W42976   4.632  11.557   2.489 -0.0426  0.3538  0.0799
26903W        W42977  14.586   6.039   4.264  0.1253 -0.0420  0.0833
26904W        W42978   7.876   1.227  11.403  0.1736 -0.1029 -0.0914
26905W        W42979   7.045  11.703  13.908 -0.2910 -0.0574  0.1235
26906W        W42980  10.630   4.369   2.818 -0.1705 -0.1081 -0.0883
26907W        W42981  15.144   6.035   4.318  0.2937  0.2723 -0.0599
26908W        W42982  10.039   7.113   4.931 -0.0406  0.1019  0.1542
26909W        W42983   5.094   4.211   3.481 -0.1183  0.2521 -0.3266
26910W        W42984   0.243   6.621  13.447  0.2709 -0.1222 -0.0965
26911W        W42985   7.676  17.393  10.203  0.3228 -0.3845  0.0720
26912W        W42986   0.149   4.475   5.403  0.1908 -0.1235 -0.0807
26913W        W42987   6.798  10.066  14.691 -0.0841  0.1377 -0.3175
26914W        W42988  11.196   3.377  13.858  0.1789 -0.1138  0.1658
26915W        W42989  18.147  19.279   0.766  0.0853 -0.2341  0.2379
26916W        W42990   8.931  12.005   1.715 -0.1027  0.1340 -0.0201
26917W        W42991  12.129   3.767  13.767  0.4581  0.0356  0.2065
26918W        W42992  17.411  10.719   4.840 -0.0117 -0.0994 -0.0015
26919W        W42993  15.191  15.934   1.241  0.0440  0.1205 -0.1443
26920W        W42994  12.889  15.494  11.606 -0.3792 -0.0700 -0.0351
26921W        W42995  17.417   9.372  13.081  0.0600 -0.3131 -0.0412
26922W        W42996  14.800   6.409  13.147  0.0027  0.2143 -0.1979
26923W        W42997   4.501  17.901   4.313  0.1690  0.3454 -0.0135
26924W        W42998   4.505   6.550  14.909  0.1679  0.3351 -0.0580
26925W        W42999   4.785  15.055  10.369  0.1468 -0.1165 -0.1908
26926W        W43000   8.982  16.619  10.038 -0.1735 -0.0834 -0.1254
26927W        W43001   2.119  18.192   3.836  0.1408 -0.0700 -0.0335
26928W        W43002  10.561   0.090  12.524 -0.1432  0.3923  0.3247
26929W        W43003   1.485   8.652   0.180  0.0215  0.0969 -0.1255
26930W        W43004   8.506   7.218  11.028  0.0697 -0.0218  0.1681
26931W        W43005  14.769   4.248   3.224  0.5423  0.0683  0.1774
26932W        W43006   3.610  10.177  13.985  0.1046 -0.0902 -0.1497
26933W        W43007  18.424   7.985   4.107 -0.1809  0.0632 -0.0490
26934W        W43008  18.082   8.687   5.224  0.0243 -0.2553  0.3338
26935W        W43009   3.179  16.503   2.872  0.1614  0.1579 -0.3617
26936W        W43010   1.772   5.930  12.859 -0.2286 -0.0999 -0.2296
26937W        W43011  15.000   1.334   2.380 -0.0095  0.1136 -0.2651
26938W        W43012   5.278   0.732   5.079  0.0899  0.0165  0.2404
26939W        W43013   6.234   3.428  11.959 -0.2184  0.3566 -0.1419
26940W        W43014   6.607   8.510  12.436  0.1162  0.1994  0.3167
26941W        W43015  10.976   1.409   2.378 -0.1079  0.0891  0.1190
26942W        W43016   9.819   6.811   0.199 -0.0456  0.1445 -0.3677
26943W        W43017   7.853  17.266  13.472  0.1231  0.1126 -0.0949
26944W        W43018  12.100  17.361  11.813 -0.0766  0.0562  0.1652
26945W        W43019  18.479  17.807  13.436 -0.2457 -0.0910 -0.0856
26946W        W43020  16.997  18.671   3.190 -0.2890 -0.2188  0.2176
26947W        W43021   6.998  18.783  11.993 -0.3777 -0.0812 -0.0933
26948W        W43022  18.548  15.491   2.551 -0.0772  0.3523 -0.1870
26949W        W43023  11.317   5.016   3.632 -0.0476  0.0093  0.0933
26950W        W43024   7.878  16.235  10.855 -0.0029 -0.3906 -0.0177
26951W        W43025   0.160   7.664   1.949  0.3598  0.4073 -0.2677
26952W        W43026  15.618  15.929   4.320 -0.0207 -0.2052  0.0450
26953W        W43027   9.802   8.133  10.681 -0.0420  0.0763  0.2566
26954W        W43028   4.077  18.337  10.481 -0.1507  0.3747  0.3875
26955W        W43029  13.940  16.227  12.783 -0.0978 -0.3051  0.0972
26956W        W43030  10.053   0.237  13.733 -0.0598 -0.2176  0.1875
26957W        W43031  14.187   0.563  13.982  0.3355 -0.1851  0.1200
26958W        W43032   0.673   3.564   3.077 -0.4461 -0.0514  0.1248
26959W        W43033  15.970   1.986   1.667  0.2225  0.0190 -0.0354
26960W        W43034  17.944   5.786  12.602  0.0667  0.0461 -0.0482
26961W        W43035  11.125  12.747   0.092  0.0101 -0.0411  0.3431
26962W        W43036  14.988   5.180  14.135  0.0783  0.0522  0.0705
26963W        W43037   6.314   0.691  14.232  0.0480 -0.0876 -0.0941
26964W        W43038   4.582   7.437   5.218 -0.3946 -0.1940  0.0546
26965W        W43039   6.315  16.447   2.356 -0.1114 -0.1372  0.1035
26966W        W43040  16.541   0.907  13.397  0.2362 -0.1917 -0.1890
26967W        W43041   3.685  11.477   5.018  0.0207  0.0945 -0.1115
26968W        W43042  14.505   4.076   1.552  0.1767  0.0269  0.2776
26969W        W43043  17.253  13.527  11.250  0.0573  0.2114  0.2918
26970W        W43044   3.556  12.284  14.268 -0.4371  0.2569 -0.0872
26971W        W43045   6.759   3.701   2.602 -0.2287 -0.3808  0.1784
26972W        W43046  15.497  13.708  12.876  0.1112 -0.0790 -0.0428
26973W        W43047   9.908   5.589  12.266  0.2332  0.2572 -0.0027
26974W        W43048   1.349   1.530   0.847 -0.0163  0.0278 -0.1896
26975W        W43049  10.311  19.017  14.417 -0.0290  0.3755  0.2157
26976W        W43050  16.547  13.983  12.138  0.1891 -0.1340  0.1115
26977W        W43051   1.540  10.465   0.342 -0.4922  0.0670  0.1494
26978W        W43052   5.945   5.402   2.112  0.1443  0.0123 -0.0706
26979W        W43053  15.797  18.433   3.796 -0.2461  0.0769 -0.1753
26980W        W43054   2.333   6.146   3.043  0.1963 -0.0169 -0.3738
26981W        W43055  12.559   3.318   4.824  0.1978 -0.1670  0.0184
26982W        W43056   2.907   0.313  14.875  0.0723 -0.2335 -0.0990
26983W        W43057   2.732  16.485   0.319  0.0282  0.3011 -0.3357
26984W        W43058   5.353   0.186   3.502  0.4213  0.0663  0.0585
26985W        W43059  10.803   7.040   4.690 -0.0518 -0.2326 -0.2062
26986W        W43060  11.720  18.016  12.897  0.1725  0.3644  0.0083
26987W        W43061   3.883  14.919   4.580  0.0200  0.0330  0.0513
26988W        W43062   6.017   6.976  10.504 -0.2425 -0.2033 -0.2359
26989W        W43063   9.839   8.477  14.209  0.2326  0.0283  0.2233
26990W        W43064   7.601   4.359  13.599  0.0701  0.0521  0.1509
26991W        W43065   5.366  11.815   2.484 -0.1254 -0.2053 -0.1630
26992W        W43066  16.500   6.404  14.196  0.1136  0.1581 -0.4340
26993W        W43067   1.073   0.751  12.036 -0.1858  0.0183 -0.2878
26994W        W43068   6.016   6.846  10.013  0.0430  0.3560 -0.2801
26995W        W43069   7.783   6.988  13.333  0.1095 -0.3314  0.0825
26996W        W43070  17.095  10.822  14.385 -0.0033 -0.1063  0.3782
26997W        W43071   6.620   5.946   0.648  0.0089  0.0132  0.0092
26998W        W43072  11.700   2.971   1.310  0.0524 -0.2313 -0.1441
26999W        W43073   4.062  17.455  13.648  0.3675 -0.1388 -0.4865
27000W        W43074   6.970  19.063   1.902 -0.0532  0.1490 -0.1174
27001W        W43075  10.175   1.634  13.385  0.1992  0.0681 -0.0136
27002W        W43076   0.710  13.171  13.698 -0.2586  0.2109  0.4593
27003W        W43077  18.635  19.250   3.987 -0.1123  0.0572  0.2111
27004W        W43078   2.302  13.902   4.263 -0.0167 -0.2399  0.2019
27005W        W43079  11.749  18.322   5.237 -0.0064  0.0620  0.1600
27006W        W43080   1.822   0.420   3.921  0.1805 -0.0759 -0.0921
27007W        W43081  18.265   7.523  14.745 -0.2110 -0.1140  0.1788
27008W        W43082  11.536   0.960  14.346  0.2265  0.0516 -0.0424
27009W        W43083   8.975  13.885  10.102 -0.2072  0.2707 -0.1209
27010W        W43084  12.412  17.347  14.743 -0.2583 -0.0847  0.1434
27011W        W43085   7.390   8.847   0.061 -0.3063 -0.0281  0.2622
27012W        W43086   2.098   0.589   1.025  0.0931  0.1146 -0.1596
27013W        W43087   1.490   5.809  11.356  0.0854 -0.2812  0.1656
27014W        W43088   1.556   6.632  11.146  0.0878  0.2308 -0.1561
27015W        W43089   3.520  15.719  14.139 -0.1839 -0.0128 -0.2484
27016W        W43090   3.872   4.602  13.745  0.0685  0.4048 -0.0862
27017W        W43091   6.175  18.296   1.060 -0.1776  0.4426  0.0733
27018W        W43092  13.502   2.628   0.709  0.1087 -0.2657 -0.1380
27019W        W43093  13.234  16.407  14.843 -0.3754 -0.1486 -0.0472
27020W        W43094   1.227   1.378  14.206 -0.2350  0.1387 -0.2464
27021W        W43095   9.426  16.018  13.109 -0.2351  0.3815  0.0213
27022W        W43096   0.718  12.427   1.593  0.1750  0.0843 -0.2364
27023W        W43097  13.552  11.896   5.507 -0.0207 -0.0488 -0.2258
27024W        W43098  14.309  13.560   3.714  0.1368  0.2767  0.1051
27025W        W43099  18.545  18.103   1.143 -0.2429 -0.1712  0.0418
27026W        W43100  12.998  16.251  10.639  0.1619 -0.0547 -0.2555
27027W        W43101   9.968   2.240   1.417  0.1442  0.0835 -0.1186
27028W        W43102   0.551  15.561  12.694  0.0396 -0.0631 -0.4172
27029W        W43103   2.084  11.270  11.189  0.1167  0.0256 -0.0512
27030W        W43104   7.541   3.682  14.189 -0.0214 -0.0230 -0.3059
27031W        W43105  18.775  12.661   1.453  0.3376  0.0722 -0.3295
27032W        W43106   4.754   8.242   1.467  0.0349 -0.0009 -0.0100
27033W        W43107   1.038  13.060  12.397 -0.0892 -0.3244  0.0081
27034W        W43108  14.500   9.246  11.052  0.0805  0.1493 -0.2656
27035W        W43109  12.055   4.566  14.261 -0.0666 -0.0018 -0.1810
27036W        W43110  17.200   5.408  10.823 -0.2440 -0.0427 -0.0092
27037W        W43111  12.535  12.802   2.941  0.2782 -0.0933  0.0820
27038W        W43112   4.657   6.717  11.016  0.0161  0.0997 -0.0346
27039W        W43113  17.700  17.358   4.553  0.0322  0.0384 -0.4110
27040W        W43114   1.556  12.334  14.256  0.2657  0.0172 -0.0702
27041W        W43115  10.744  17.260   3.418 -0.0634  0.2652  0.0325
27042W        W43116   9.818  17.416  14.307 -0.2843 -0.0345  0.0048
27043W        W43117  15.543   6.274   3.489 -0.0517 -0.0911  0.1433
27044W        W43118   7.531  17.016   1.118 -0.0261 -0.3087  0.2821
27045W        W43119  18.031  10.763   1.650 -0.4836  0.0051  0.1489
27046W        W43120  12.230   6.089  14.426 -0.5876 -0.0712 -0.1201
27047W        W43121  14.258   7.936   5.703  0.2308  0.2575  0.0305
27048W        W43122  18.342  17.547  12.538  0.0537  0.2212  0.0507
27049W        W43123   6.488   4.008  10.313 -0.1387 -0.3825  0.2203
27050W        W43124   2.670   6.838   1.716  0.1579 -0.0082  0.4867
27051W        W43125  13.017   3.303   5.306  0.1160 -0.1814  0.1369
27052W        W43126  11.686   3.560   0.609 -0.3093 -0.1046  0.0758
27053W        W43127  10.775  14.027  12.207  0.1599 -0.0830 -0.1448
27054W        W43128  11.987   8.344  10.741 -0.1262 -0.1923 -0.1648
27055W        W43129   6.868  16.717  14.267  0.0037 -0.0862 -0.2334
27056W        W43130   1.717  10.160  11.992  0.3076 -0.1047 -0.0532
27057W        W43131  18.459   6.105   0.877  0.0513 -0.1169  0.2152
27058W        W43132   3.685   6.285   5.161 -0.3091  0.0159  0.0612
27059W        W43133   6.698  17.831  11.241 -0.3854  0.0952  0.3646
27060W        W43134  17.819  17.150   3.574  0.0150 -0.0166 -0.0722
27061W        W43135   3.346   5.477   2.411 -0.2225 -0.2098 -0.1499
27062W        W43136   8.259  18.602   1.561 -0.1137 -0.4142 -0.0037
27063W        W43137   0.214   6.750  12.749  0.0043 -0.1051 -0.1357
27064W        W43138  11.637  15.210   4.091 -0.1059 -0.1129 -0.1435
27065W        W43139  14.997  13.957  12.338 -0.2992  0.0013 -0.1771
27066W        W43140  14.646  13.980   3.969 -0.1689  0.2653  0.2658
27067W        W43141   3.489   1.353   4.320 -0.2250  0.3633  0.1436
27068W        W43142  13.055   7.471   3.709 -0.0004 -0.0417 -0.3786
27069W        W43143   8.830   7.241   5.251 -0.1461  0.3061 -0.0370
27070W        W43144   7.100   1.073  14.184 -0.1813 -0.1854  0.2051
27071W        W43145   2.534   5.263   1.181  0.1165 -0.3497  0.0593
27072W        W43146   9.775   4.762  11.346  0.1663  0.1158 -0.2224
27073W        W43147  11.814   1.922  14.376  0.1533 -0.0793  0.1537
27074W        W43148  14.224  12.344   4.276  0.2318 -0.0444 -0.0079
27075W        W43149   8.922   1.750  14.338  0.2109 -0.0362 -0.1290
27076W        W43150  12.379  11.136   3.534  0.0768 -0.1781  0.2068
27077W        W43151   7.586  17.665  13.404  0.0368 -0.1032  0.1340
27078W        W43152  11.242  10.521   2.276  0.0103  0.0157 -0.3254
27079W        W43153  10.032  16.403   5.384 -0.0452 -0.1792 -0.2328
27080W        W43154   1.493   2.513   2.186  0.0602  0.2292  0.0887
27081W        W43155   7.638  17.567   2.883  0.0964 -0.1412  0.0394
27082W        W43156   9.157   5.963   3.354 -0.2924  0.1361 -0.0173
27083W        W43157   4.669  10.430  11.553  0.3118 -0.0189 -0.1622
27084W        W43158   4.622   5.381   3.348  0.0741  0.2308 -0.0040
27085W        W43159  15.762   9.323  14.196  0.2384  0.4596 -0.1821
27086W        W43160  14.105  11.200  14.817 -0.1720 -0.1162 -0.2723
27087W        W43161   2.412   9.231  14.760 -0.4749 -0.1509  0.2793
27088W        W43162  15.760   4.505   2.808  0.3482  0.0824  0.2438
27089W        W43163  12.300   8.671   1.172 -0.2911  0.1746  0.0423
27090W        W43164  15.290   3.548  11.091 -0.0218 -0.0570 -0.1321
27091W        W43165   1.756   3.650   0.673  0.0111 -0.0206  0.0748
27092W        W43166   9.344   2.062  11.710  0.0612 -0.0697 -0.1716
27093W        W43167  17.789  18.321   4.470 -0.3871  0.0041 -0.2117
27094W        W43168  16.329  12.576  13.036 -0.0151  0.2011  0.2073
27095W        W43169  17.809   2.539   0.300  0.4704 -0.0409  0.0559
27096W        W43170  19.085  11.228  13.789 -0.0750 -0.0774  0.1036
27097W        W43171  14.996  17.888  14.423  0.1250  0.0639 -0.0318
27098W        W43172   7.082  17.447   1.009  0.1107  0.0817 -0.0130
27099W        W43173   5.083   6.871  14.230  0.0678 -0.1187 -0.0315
27100W        W43174  13.560   5.884   2.555 -0.2284 -0.2645  0.1643
27101W        W43175   3.022   1.771   1.754  0.0810  0.3401 -0.2432
27102W        W43176  17.949  17.833   0.613 -0.1120 -0.1897 -0.1040
27103W        W43177  15.306  17.139   0.384 -0.0415 -0.0378  0.3135
27104W        W43178   8.093   6.778  11.301 -0.2685  0.0742 -0.0451
27105W        W43179  13.254   4.158  14.816 -0.4058 -0.0493 -0.1558
27106W        W43180   2.520   4.755   9.256 -0.0134  0.1962  0.0846
27107W        W43181   7.762  10.489  14.876  0.0735  0.0618  0.1767
27108W        W43182  10.322   2.099   2.462  0.3607  0.2666 -0.0800
27109W        W43183   6.363  18.371   2.775  0.1237 -0.0000 -0.2363
27110W        W43184  14.689  14.319   2.074  0.0708  0.3153  0.0448
27111W        W43185   5.698  15.563   0.971 -0.3149 -0.1124  0.1376
27112W        W43186  12.636   5.098   4.953 -0.2053  0.0290 -0.2669
27113W        W43187   4.971  17.779   9.589  0.1308  0.1808  0.1460
27114W        W43188   5.841  14.448   2.235 -0.1702  0.1566  0.2387
27115W        W43189   0.025   1.242  13.594  0.1624 -0.1059 -0.0789
27116W        W43190   1.390   6.432   5.540  0.0444  0.0568  0.1729
27117W        W43191   1.650   9.345  14.121 -0.0713 -0.1523  0.4010
27118W        W43192   8.043   8.971   2.330 -0.0215 -0.2065 -0.1062
27119W        W43193   1.847   1.921   3.308 -0.1415  0.5206  0.1638
27120W        W43194   9.077  16.843  12.313  0.0680  0.1758 -0.2136
27121W        W43195   8.255   5.081  13.330 -0.6619  0.0779  0.2410
27122W        W43196   2.718  19.146   3.790 -0.0618 -0.0420 -0.0245
27123W        W43197   1.023  10.467   0.490 -0.1267 -0.0700 -0.1399
27124W        W43198   7.690   2.841  11.076 -0.0317 -0.0355  0.0600
27125W        W43199   0.624  18.297  11.251 -0.0303 -0.1760  0.0235
27126W        W43200   1.059   8.528   6.262 -0.1627  0.0134 -0.1250
27127W        W43201  13.531  17.480  11.579  0.0594 -0.3105 -0.2266
27128W        W43202   6.993  18.479   1.129  0.0760 -0.0700  0.3733
27129W        W43203  11.514   6.299  13.630  0.0103 -0.0152  0.0017
27130W        W43204   1.624  17.413  10.277  0.0595 -0.1944 -0.1381
27131W        W43205   1.447   0.820   4.188  0.0601 -0.0758  0.1607
27132W        W43206   3.339   6.839  12.260  0.2745 -0.3143 -0.2332
27133W        W43207   5.234   7.502   1.702 -0.1729  0.1380  0.2778
27134W        W43208   5.800   1.517   0.087  0.0475  0.0753 -0.2022
27135W        W43209  18.296   9.256  12.511 -0.0737  0.2917 -0.1524
27136W        W43210   2.522  16.934   3.582 -0.0562  0.0165  0.1033
27137W        W43211  19.126  12.030   4.931 -0.1873 -0.0702  0.1402
27138W        W43212   6.455  15.198  11.458  0.0771 -0.4044  0.2169
27139W        W43213  14.902   8.713  13.339 -0.0704  0.2780  0.0960
27140W        W43214   3.902  17.709   3.740  0.1226  0.6100  0.3133
27141W        W43215  14.465   0.747   0.537 -0.1104  0.0218 -0.0446
27142W        W43216   1.825  19.322  11.389  0.5075 -0.0658  0.2997
27143W        W43217   1.450  14.735  10.598  0.1450  0.0842 -0.0001
27144W        W43218  14.877  19.154   0.440 -0.2106  0.0498 -0.0031
27145W        W43219   2.378  10.869   2.113  0.1963  0.0783  0.0083
27146W        W43220  19.135   9.506  11.320  0.3230 -0.1189 -0.0390
27147W        W43221  10.198  18.863   2.037 -0.0730 -0.0405  0.0314
27148W        W43222  11.964  18.941  11.508 -0.1527  0.0914 -0.2635
27149W        W43223  17.236   5.465   1.616  0.2862 -0.0202  0.2997
27150W        W43224  10.875   9.605   0.696  0.2112 -0.1104  0.3393
27151W        W43225  19.094  10.063   1.393  0.1533  0.2506 -0.2179
27152W        W43226   5.433   0.867   4.153 -0.0352 -0.6324 -0.2522
27153W        W43227   3.988  17.997   4.551 -0.2711 -0.1122  0.2475
27154W        W43228  15.999  10.367   2.224 -0.1143 -0.1550 -0.0163
27155W        W43229  16.986  10.112   4.399 -0.1304  0.1519  0.1731
27156W        W43230  12.867  11.440  13.003  0.0380 -0.1386 -0.0875
27157W        W43231   2.645  11.214   3.004 -0.0792  0.2188 -0.3588
27158W        W43232   8.644   2.826   2.318  0.3683 -0.0988 -0.0571
27159W        W43233   8.544   7.427   1.902  0.2790  0.3322  0.1653
27160W        W43234   5.608  17.259  14.820  0.1485 -0.5222  0.0505
27161W        W43235  11.185   9.306  13.167 -0.3618 -0.1061  0.2173
27162W        W43236  14.658   6.190  14.280 -0.1856 -0.1612 -0.0487
27163W        W43237   8.803  11.617   3.312  0.0595  0.0373 -0.1000
27164W        W43238   7.603   6.733   0.052 -0.0113 -0.3927 -0.0468
27165W        W43239  17.195  17.686   4.807  0.0198  0.1898 -0.1067
27166W        W43240   5.049   0.856   3.203 -0.2972  0.0641  0.0002
27167W        W43241  16.399   6.209   2.603  0.3059 -0.1277 -0.0769
27168W        W43242   0.288  10.684  10.055 -0.2425  0.0945  0.1529
27169W        W43243  15.425   6.056  14.859  0.1011  0.1843 -0.0839
27170W        W43244  15.787   2.585   1.360  0.0104  0.1077  0.2483
27171W        W43245   0.718   8.238   6.048 -0.4008 -0.0850 -0.1092
27172W        W43246  15.898   3.456   2.552 -0.0254 -0.0207 -0.0674
27173W        W43247  15.450  13.057   0.397  0.1365  0.2212 -0.0658
27174W        W43248   3.366  13.790  10.696 -0.0518 -0.2421 -0.0598
27175W        W43249  18.151  17.284   4.678  0.0155 -0.0020 -0.0820
27176W        W43250  17.779   0.831   2.556 -0.0868 -0.0886  0.0635
27177W        W43251  18.993   3.194   3.105  0.0250 -0.0072 -0.2041
27178W        W43252  16.397  12.017  14.136  0.1742 -0.1515 -0.2779
27179W        W43253   2.545   0.819   4.556 -0.1062 -0.4296 -0.4065
27180W        W43254   1.569   4.490   3.648  0.0588  0.0374  0.1870
27181W        W43255   0.309   9.120   4.478  0.4863  0.4941  0.0696
27182W        W43256  17.282   7.470   1.428  0.5576  0.2052 -0.3513
27183W        W43257   7.505   3.445  11.130 -0.2200  0.0449 -0.3321
27184W        W43258  14.106   1.646  12.347  0.1524 -0.0220  0.3040
27185W        W43259  14.481  11.057   3.780  0.1010 -0.3158 -0.0567
27186W        W43260   9.586   2.730   4.152 -0.0342  0.1841 -0.0079
27187W        W43261   6.029  18.319   1.621  0.0736  0.1817 -0.1190
27188W        W43262   0.624  13.636   2.468  0.3127 -0.0372  0.1617
27189W        W43263   2.760  16.941  13.049 -0.3120 -0.2735 -0.0364
27190W        W43264  14.564   1.724  10.871  0.2854  0.0591  0.0593
27191W        W43265  11.333   4.776   5.012 -0.0238  0.2169 -0.0581
27192W        W43266   2.404  16.776   4.578 -0.2222  0.1664 -0.2180
27193W        W43267  16.513  15.532  11.656 -0.0504 -0.2066 -0.2737
27194W        W43268   4.745  14.374   1.593 -0.3003 -0.0728  0.1833
27195W        W43269  18.625   9.594  13.773  0.3277  0.0371 -0.0034
27196W        W43270  15.075   4.783  12.183 -0.1087  0.0611 -0.1651
27197W        W43271   2.340   5.465  14.422  0.0869 -0.3348 -0.1077
27198W        W43272  13.486  15.268  13.865  0.3836 -0.0642 -0.0087
27199W        W43273   9.875  18.463   9.099  0.0357  0.1386  0.0893
27200W        W43274   3.512  16.819  12.542 -0.0250 -0.1458 -0.1946
27201W        W43275   1.173  14.322  12.362 -0.0957  0.1920  0.1140
27202W        W43276  16.707   5.637  14.726  0.0312 -0.0558 -0.1580
27203W        W43277   7.563  15.283  13.300  0.3069 -0.6569  0.2242
27204W        W43278  18.577   4.332   4.590 -0.0031 -0.0101 -0.0998
27205W        W43279  15.294  19.223  14.203 -0.1161  0.0373  0.2579
27206W        W43280   0.703  17.501   4.634 -0.0947 -0.2971 -0.2592
27207W        W43281   8.858  17.998  11.273 -0.0067 -0.1779 -0.0416
27208W        W43282  10.383  11.249  13.275  0.1960 -0.1075 -0.5916
27209W        W43283   1.095   6.179  11.367 -0.0592  0.1389  0.3075
27210W        W43284   9.634  16.721  11.635 -0.1747  0.1166  0.0825
27211W        W43285   3.597  11.732  14.378  0.1011 -0.1185 -0.1459
27212W        W43286   0.852   8.654   2.376 -0.0669  0.1771 -0.3440
27213W        W43287   3.659  13.980   3.289 -0.1091 -0.1268 -0.0705
27214W        W43288   4.420   5.509   2.417  0.2833  0.3570  0.4107
27215W        W43289   3.418   4.761  13.742  0.0071 -0.1254  0.1937
27216W        W43290   4.136  11.120  12.355  0.1014  0.3003  0.0696
27217W        W43291   2.313   0.156  10.471  0.0532  0.0609  0.4554
27218W        W43292   6.301  16.550  13.574  0.1648 -0.0942  0.1497
27219W        W43293  11.997  14.339  14.020  0.3132 -0.0087  0.0914
27220W        W43294   5.449  12.705  13.418  0.1287 -0.3459 -0.1475
27221W        W43295   9.456  17.121  14.021 -0.0291 -0.1094  0.4318
27222W        W43296   0.477  11.003  13.068  0.0722 -0.0088  0.1360
27223W        W43297   6.612  14.854   3.981 -0.0220 -0.0405  0.2087
27224W        W43298  13.368  14.149  14.049  0.1233 -0.1622 -0.0240
27225W        W43299   8.410  15.055   4.923 -0.0038  0.2327  0.1415
27226W        W43300   9.664  18.370   3.289  0.1306 -0.0061  0.3252
27227W        W43301  12.997  14.801   3.251 -0.0037 -0.3187  0.1048
27228W        W43302   5.413   6.999   2.883 -0.1538 -0.0218  0.0458
27229W        W43303  11.333  13.440   0.746 -0.2588  0.3794 -0.0943
27230W        W43304   4.787  18.804   3.877 -0.2495  0.1682  0.1740
27231W        W43305   6.183   3.924   4.442  0.1154 -0.1017  0.1804
27232W        W43306   9.514   2.006   3.540 -0.0197  0.1328 -0.1020
27233W        W43307   6.350   4.437   0.845 -0.0111  0.2028  0.2338
27234W        W43308   4.236   9.717  12.321 -0.0390  0.0773 -0.0143
27235W        W43309   6.251   5.310   3.264 -0.0535 -0.1783  0.0205
27236W        W43310   6.659  16.679  13.027 -0.1084  0.1015  0.0178
27237W        W43311  12.997   9.859  13.117  0.0563  0.1865  0.1773
27238W        W43312   3.420  15.225   0.159 -0.0199 -0.0394  0.2499
27239W        W43313   8.766   4.016   4.863  0.0495  0.0934 -0.0620
27240W        W43314  17.380   6.564  10.881  0.1652  0.0475  0.3113
27241W        W43315   0.229   2.172   2.990  0.0726  0.1931  0.1410
27242W        W43316   4.307   1.869   0.859 -0.0853  0.1540  0.1882
27243W        W43317   2.310  14.734  10.449 -0.0337 -0.0783  0.1070
27244W        W43318  14.792   4.020  12.740 -0.1166 -0.1586  0.1299
27245W        W43319   1.093  17.877   4.496  0.0710  0.0618  0.2989
27246W        W43320  17.409   6.481   4.120 -0.0020 -0.0205 -0.0225
27247W        W43321  10.531  15.024   3.443 -0.0985 -0.0311  0.0158
27248W        W43322   3.277  10.309   0.423 -0.3542  0.3088 -0.2561
27249W        W43323   1.693  11.669   2.238 -0.5132 -0.0323 -0.1987
27250W        W43324  16.458   9.914  12.118 -0.0089  0.2392 -0.1739
27251W        W43325   9.445  15.841  10.891 -0.2691  0.4031  0.0595
27252W        W43326  13.052   6.550   9.924  0.0611 -0.3899 -0.0821
27253W        W43327  12.185  17.541   3.088  0.0862  0.1183  0.1773
27254W        W43328  10.516   5.975  12.416  0.0027 -0.3239 -0.0392
27255W        W43329  15.361   1.664   2.397  0.1670 -0.1662 -0.0216
27256W        W43330   6.813   5.291  11.442  0.0294 -0.0230 -0.1079
27257W        W43331  16.792  13.826   0.778 -0.0549  0.1530  0.3056
27258W        W43332   6.582  18.814   0.258  0.0498  0.0079 -0.1446
27259W        W43333   6.209   7.370  14.651 -0.0739 -0.1562 -0.0379
27260W        W43334   2.808   0.073   4.186  0.0940 -0.2971  0.0572
27261W        W43335   2.945  12.084   3.264  0.0465  0.2075  0.0087
27262W        W43336  14.761  17.602  11.245  0.0492  0.3582 -0.2882
27263W        W43337  18.650  10.902  14.139 -0.2729 -0.1967 -0.0749
27264W        W43338  13.391  16.468  10.252 -0.1178  0.1135  0.0996
27265W        W43339   6.905   2.922   2.769  0.0754  0.2039  0.1549
27266W        W43340  10.178  18.526  10.920 -0.1171 -0.0331  0.2112
27267W        W43341   5.974  17.544  13.471  0.1547  0.0630 -0.0508
27268W        W43342  13.527   9.382   3.991  0.3261 -0.0781 -0.3519
27269W        W43343  11.613  11.951   1.490  0.0194  0.0869  0.2357
27270W        W43344  11.572  18.629  10.509 -0.4408  0.0207 -0.0233
27271W        W43345   2.372   1.182  12.980  0.0130 -0.0582 -0.4534
27272W        W43346  15.062   2.018   0.122  0.0424 -0.0730 -0.1535
27273W        W43347   8.848   9.193  11.100  0.1236  0.0896 -0.0041
27274W        W43348   3.889  12.529  13.239  0.0117  0.1492  0.2119
27275W        W43349  18.501   3.976   2.682  0.0521  0.0330 -0.0164
27276W        W43350  18.539   4.430  14.365 -0.0144  0.0795 -0.2406
27277W        W43351  16.213  18.036   5.158 -0.1589  0.0846  0.0140
27278W        W43352   3.752   9.041  12.261 -0.3111  0.2306 -0.1104
27279W        W43353  17.698  13.556   4.737  0.3318  0.0638 -0.1129
27280W        W43354   1.309   1.131   2.237  0.0275 -0.2925  0.0552
27281W        W43355   5.199  12.613  11.480  0.2000  0.2289 -0.2108
27282W        W43356   3.512   4.920   4.275 -0.3030  0.1312  0.0408
27283W        W43357   6.801  17.579  12.321  0.0965  0.1556  0.2261
27284W        W43358  12.283   7.577   3.812 -0.0340  0.0170 -0.3630
27285W        W43359   8.717  18.812   4.445  0.0008 -0.0529 -0.3424
27286W        W43360   2.762   5.192  14.399  0.2770 -0.1910 -0.0367
27287W        W43361   6.034  11.041   0.219 -0.1700  0.3738 -0.2197
27288W        W43362  10.599   3.557  13.114  0.0314 -0.1211  0.0212
27289W        W43363   4.990   7.569  13.738 -0.4292  0.0082  0.0668
27290W        W43364  14.891   5.204   4.039 -0.0233 -0.0143  0.1142
27291W        W43365   8.458   1.675  13.450  0.2222 -0.0530  0.0802
27292W        W43366   4.514   2.199  12.408 -0.0005  0.2296 -0.0005
27293W        W43367   0.702   6.470  13.494 -0.0495 -0.3458 -0.0869
27294W        W43368   6.290   2.271  13.999  0.1832  0.1589 -0.0413
27295W        W43369   1.697   7.682  10.258 -0.1561  0.0920 -0.1718
27296W        W43370   6.880  10.790   1.505  0.0752 -0.0124  0.1297
27297W        W43371   5.112  17.840   2.015  0.0588 -0.1361 -0.1117
27298W        W43372   0.547   2.116   3.915 -0.4176  0.1572  0.0997
27299W        W43373  13.223   7.897   9.775  0.1981  0.0598 -0.3788
27300W        W43374   8.094   1.060   3.253 -0.0869 -0.1056 -0.1461
27301W        W43375  15.053   9.678  13.555  0.2255 -0.1165  0.2418
27302W        W43376  10.540   8.300  10.453  0.3503 -0.0245 -0.0943
27303W        W43377   0.053   5.467   1.692  0.0593  0.0472  0.3598
27304W        W43378   2.307  13.110   1.965  0.2190  0.0538 -0.1390
27305W        W43379   0.087   0.704  13.968  0.1202  0.0228  0.3202
27306W        W43380  16.746  11.182   5.689 -0.1048 -0.2635 -0.3467
27307W        W43381   4.105   4.043   1.054  0.2579 -0.0604  0.1879
27308W        W43382  15.173   6.683  14.333  0.1170  0.1170 -0.5404
27309W        W43383  18.716  16.166   5.204 -0.0168 -0.0465  0.0862
27310W        W43384  18.039   4.334  13.388 -0.1591 -0.0396 -0.1586
27311W        W43385  12.253  15.323   4.891 -0.0466 -0.2968  0.0329
27312W        W43386   1.641  14.191  13.321 -0.3162 -0.4041 -0.0587
27313W        W43387   0.634  14.116   4.189 -0.0922  0.1818  0.2264
27314W        W43388  16.303  19.336  14.270  0.1440 -0.1343 -0.1584
27315W        W43389   9.572  13.777  13.982 -0.0493  0.0535  0.2780
27316W        W43390  19.147  10.604  13.329  0.1414  0.1063  0.0044
27317W        W43391   6.925  10.824   2.032 -0.0055 -0.2074 -0.0176
27318W        W43392   4.536   5.854  12.392  0.0690  0.2196 -0.1099
27319W        W43393  12.404   5.598  12.122 -0.1276 -0.2926  0.0134
27320W        W43394  18.962   4.396  14.618  0.2285  0.1308  0.0126
27321W        W43395   1.103  18.728  14.843 -0.0823 -0.0919  0.0736
27322W        W43396  19.107  16.545   3.670 -0.1685 -0.0824 -0.3381
27323W        W43397  15.888  19.192   0.096 -0.1047  0.0374  0.2390
27324W        W43398   9.007  19.124   1.510  0.1980 -0.1199 -0.1462
27325W        W43399   7.194   4.421   4.294 -0.0205 -0.0259  0.2988
27326W        W43400   3.016   4.957   0.420  0.2318 -0.1155 -0.4935
27327W        W43401  12.032  17.241   3.959  0.0360 -0.1588 -0.0433
27328W        W43402  11.026  19.283   4.558  0.3533  0.2909  0.0658
27329W        W43403   9.646  10.849  10.889 -0.2848 -0.2182  0.0319
27330W        W43404   1.216  10.887   5.431 -0.1072  0.4617 -0.0986
27331W        W43405  18.183   8.093  12.962  0.0368  0.0104 -0.0487
27332W        W43406  12.274   4.888   5.366 -0.0504  0.1119 -0.2047
27333W        W43407  18.279  17.750   4.752 -0.0614 -0.2799 -0.0627
27334W        W43408  14.547  14.996   5.216  0.0952 -0.1967 -0.0913
27335W        W43409   0.817  13.184   0.768 -0.1962  0.0921  0.1247
27336W        W43410   7.695   4.225   0.616  0.0318  0.2738  0.2375
27337W        W43411  15.297   8.546  12.016  0.0621 -0.2226  0.0579
27338W        W43412  11.896  14.565  11.732  0.0465 -0.1452 -0.3124
27339W        W43413  15.972   4.590   4.726  0.1162 -0.3314 -0.0121
27340W        W43414  15.371   3.437  13.701 -0.5141  0.3535  0.0452
27341W        W43415  11.462  17.153  11.461 -0.0495 -0.0799  0.1382
27342W        W43416   0.861  11.022  11.804 -0.1764  0.2806  0.0576
27343W        W43417   0.260   1.898   3.597  0.0961  0.2325  0.1439
27344W        W43418   0.933  19.149  11.639 -0.1107 -0.1911  0.3164
27345W        W43419  10.786   9.347  10.535 -0.2069  0.1720  0.2429
27346W        W43420  17.385  16.320   1.096 -0.1561 -0.2769  0.3371
27347W        W43421  14.025  19.236  10.403  0.0305  0.2210 -0.1397
27348W        W43422  14.984  11.325  13.763  0.0073 -0.2031 -0.1005
27349W        W43423  14.551  13.388  11.444  0.2150  0.2997 -0.2833
27350W        W43424   6.181   5.563   5.032 -0.1141  0.0786  0.1283
27351W        W43425  12.395   1.621  12.088 -0.2155 -0.1569 -0.2163
27352W        W43426  10.416  17.032  11.232 -0.1267 -0.0510 -0.1763
27353W        W43427   6.237  10.764   1.508  0.0072 -0.1960 -0.2081
27354W        W43428  18.246   1.803  13.035  0.0314  0.1746 -0.0925
27355W        W43429  14.747   5.428  12.939  0.0255 -0.3348 -0.3922
27356W        W43430   7.891   6.138  13.641 -0.1979 -0.0775 -0.1728
27357W        W43431  16.877   0.767   3.417  0.0239  0.2436 -0.1375
27358W        W43432  18.950  13.543  11.433  0.2098  0.1827  0.1583
27359W        W43433   2.989  12.743  14.929 -0.0531  0.0015 -0.1010
27360W        W43434   4.102   5.028   2.024  0.2167 -0.1417  0.0517
27361W        W43435  13.914  17.087  14.921  0.0047  0.0274  0.2573
27362W        W43436  19.142  12.328   1.581  0.0684 -0.3162 -0.0602
27363W        W43437  16.145   7.869   1.838  0.0612 -0.0203 -0.1643
27364W        W43438   5.314   1.206  12.785 -0.2373 -0.1039  0.2278
27365W        W43439   9.590  18.969   0.627  0.0283 -0.1451  0.0143
27366W        W43440  16.057   3.445  12.717  0.0623 -0.1628 -0.0553
27367W        W43441  14.191  13.826   4.179  0.1394 -0.0482  0.0302
27368W        W43442  15.892  17.800  13.918  0.0837  0.0444 -0.1037
27369W        W43443  17.631   7.917   1.575  0.0349 -0.0096  0.2639
27370W        W43444  13.391  13.896  10.923  0.2318  0.0361 -0.2070
27371W        W43445   8.425  15.746   3.850  0.3442 -0.1394  0.3190
27372W        W43446  10.025  15.308   1.190  0.0354 -0.5408  0.1724
27373W        W43447  14.306   6.276  13.902  0.0841  0.1687 -0.4553
27374W        W43448   1.444   2.482  13.353 -0.1659  0.0230 -0.0993
27375W        W43449  14.056   5.015  13.446 -0.0437  0.0574  0.5017
27376W        W43450  15.941   6.997  10.485  0.1014  0.0708  0.0177
27377W        W43451  17.987  12.690  12.934  0.2294 -0.3238  0.0656
27378W        W43452  10.480  14.003   2.907 -0.0424 -0.0629 -0.2330
27379W        W43453   7.607  18.144   3.679  0.1298  0.0864 -0.1617
27380W        W43454  17.022  14.138   1.475  0.1760 -0.1340 -0.0054
27381W        W43455  11.681   6.463   4.485  0.1704 -0.5148 -0.0969
27382W        W43456   8.897  10.339  12.386  0.0382 -0.0936 -0.2793
27383W        W43457  11.548   4.713  14.529 -0.0116  0.1669  0.1628
27384W        W43458  17.813  14.245  13.610 -0.2057 -0.2292  0.0692
27385W        W43459  10.534   8.018   1.139 -0.1439  0.0973 -0.5011
27386W        W43460   8.977   9.721   0.420  0.2666 -0.4103 -0.2495
27387W        W43461  15.912   9.095  12.310 -0.0865 -0.3554 -0.0293
27388W        W43462   8.296  18.213  14.325 -0.0062  0.2696  0.0288
27389W        W43463  10.524  13.199   2.254 -0.1572 -0.0224 -0.2049
27390W        W43464   1.911  15.554  10.837  0.2004  0.0958  0.1377
27391W        W43465   1.892   2.271   3.002  0.2917  0.2178  0.0173
27392W        W43466   9.724  12.957   1.043 -0.0874  0.0039  0.0516
27393W        W43467   2.131  19.186  12.502  0.2449 -0.0164  0.2143
27394W        W43468  17.056  15.788   2.637  0.0566 -0.2561  0.1901
27395W        W43469   6.789  19.076  12.357  0.0224 -0.0543  0.0372
27396W        W43470  17.770  18.767  10.309  0.2430 -0.3142 -0.0730
27397W        W43471  16.455  15.833   1.037 -0.0015 -0.1610  0.1467
27398W        W43472  17.490   0.900   1.059  0.0047  0.1255  0.2018
27399W        W43473  15.204  14.954   2.463  0.1684 -0.0805 -0.1707
27400W        W43474   0.933   9.246   5.782 -0.1738 -0.0033  0.1180
27401W        W43475   9.184  14.402  13.407 -0.1404 -0.1045 -0.0231
27402W        W43476  16.698  15.322   0.531 -0.0434 -0.1820  0.3561
27403W        W43477  17.769  12.646   5.652  0.0040  0.3492  0.0338
27404W        W43478   5.240   7.340  14.113  0.2139 -0.4599 -0.2870
27405W        W43479   0.051   8.676   2.223 -0.1551  0.1072 -0.3573
27406W        W43480  14.126   1.418   9.480  0.1386 -0.1571 -0.3955
27407W        W43481   4.836  13.367   2.099  0.2464  0.0641 -0.0711
27408W        W43482   9.867   8.439   4.222  0.1131 -0.0138 -0.1452
27409W        W43483   2.857  17.364  11.302  0.4539  0.0069 -0.1675
27410W        W43484  17.944   9.352  11.721  0.0340  0.4090 -0.1781
27411W        W43485  14.489   1.681  14.369  0.2253  0.0568  0.2004
27412W        W43486   4.077   1.733   3.041  0.1145  0.2181 -0.2911
27413W        W43487  15.853   5.751  12.911  0.2441 -0.3819  0.2438
27414W        W43488   8.645  11.716   0.897  0.0986 -0.0009 -0.1217
27415W        W43489   3.252  14.755  14.042  0.1227  0.2175  0.1491
27416W        W43490   9.257  15.471   0.433 -0.2168  0.1690 -0.1122
27417W        W43491  10.197   2.223  13.376 -0.1329  0.0051  0.1535
27418W        W43492  14.257  17.448   3.280  0.2800 -0.2338  0.0065
27419W        W43493   5.118  13.269  12.591  0.5718  0.1286  0.0951
27420W        W43494   1.212   3.516   1.773 -0.0213 -0.2844  0.4118
27421W        W43495   6.904  16.585   2.416  0.0155 -0.0597 -0.0785
27422W        W43496  13.427  12.238   1.269  0.1968  0.0476  0.1338
27423W        W43497   3.808  18.701   1.535  0.1230  0.0166 -0.0968
27424W        W43498   8.847   5.936   5.205  0.0645  0.0723  0.1992
27425W        W43499  19.009   5.004   3.353  0.0722 -0.2839  0.2150
27426W        W43500   3.094  10.917  11.923  0.2164  0.0182 -0.1146
27427W        W43501   6.104  11.368  12.931  0.0711  0.2284  0.0045
27428W        W43502   4.458  11.535   4.589  0.4867 -0.0128  0.3132
27429W        W43503  18.343  11.912  11.533  0.3367 -0.2733  0.1634
27430W        W43504   0.600   9.621  14.940  0.0044  0.0367  0.0571
27431W        W43505  13.076   9.082   5.568 -0.0177 -0.2108 -0.2754
27432W        W43506   9.921  17.488  12.326 -0.1507  0.2759  0.3271
27433W        W43507  10.712   6.070  10.883  0.1786 -0.0553  0.2073
27434W        W43508   0.847   2.131  12.609  0.0796 -0.2497  0.2842
27435W        W43509   3.809   0.979   4.262  0.0314  0.0331 -0.0568
27436W        W43510   0.117  10.335   2.489 -0.1637 -0.0178 -0.0605
27437W        W43511  11.020  16.040   2.733 -0.5559  0.0154  0.3428
27438W        W43512  12.923   6.392   4.545  0.1346 -0.2475 -0.0479
27439W        W43513   4.751  16.341  13.301 -0.4759  0.3710  0.0457
27440W        W43514   5.176   3.967  12.600  0.4578  0.1323  0.0246
27441W        W43515   2.236   1.860   0.046  0.1650  0.2052  0.0895
27442W        W43516   8.820   3.213  14.250  0.0633  0.0554  0.2046
27443W        W43517  15.864   7.987  12.611 -0.0344 -0.0578  0.2492
27444W        W43518   5.968   8.435   2.807  0.2463  0.1947 -0.1519
27445W        W43519   9.745  10.649   2.176  0.4573  0.1013 -0.0444
27446W        W43520   8.448   4.703  14.122 -0.3634  0.1583 -0.0066
27447W        W43521   1.946   4.278   4.695  0.0410  0.1774  0.1687
27448W        W43522   1.061  19.152  13.242  0.2595  0.2011  0.0782
27449W        W43523   7.533  12.646   3.155  0.2153  0.1247 -0.4450
27450W        W43524   4.578   3.347   1.103 -0.0884  0.1055 -0.4923
27451W        W43525   1.461   4.259   1.448  0.0636 -0.2887  0.1227
27452W        W43526  15.463  17.296   4.008 -0.0901 -0.0051 -0.1080
27453W        W43527  13.017  11.276  11.617 -0.0853  0.0756 -0.0678
27454W        W43528  13.744   4.873  11.538  0.2051  0.1178  0.2754
27455W        W43529  12.719   1.002   1.783  0.0458 -0.0059 -0.5425
27456W        W43530   9.503  17.098   0.926 -0.0008 -0.2294 -0.1102
27457W        W43531   3.559   1.051   8.987  0.1429 -0.0934  0.0129
27458W        W43532   6.978   3.017  10.702  0.3033 -0.0659 -0.2070
27459W        W43533   0.456  14.598   1.633 -0.0934  0.1885 -0.2156
27460W        W43534  12.203  13.457  12.912  0.1785  0.0933 -0.0459
27461W        W43535   0.148  18.677   4.008  0.1779 -0.1965 -0.0682
27462W        W43536  15.984   4.801   2.374 -0.1800 -0.1998 -0.2944
27463W        W43537  13.184   5.596   2.132  0.0241 -0.2390 -0.0620
27464W        W43538  15.478  11.388   3.938 -0.0288 -0.1187 -0.3728
27465W        W43539  10.434   0.696  13.234 -0.3216 -0.0974  0.1529
27466W        W43540   4.543   6.308  13.974  0.2503  0.3091  0.2157
27467W        W43541  11.152  14.177  10.807  0.2901  0.1904  0.1823
27468W        W43542   5.083   6.499   4.147 -0.0189 -0.1191 -0.0456
27469W        W43543  10.284  15.609  13.257 -0.2231  0.2317 -0.0335
27470W        W43544   6.218  12.475   1.306 -0.1036  0.0446 -0.0040
27471W        W43545   9.530   5.008   0.804  0.4342  0.0081 -0.3918
27472W        W43546  13.782   5.237   4.392  0.2746 -0.2138 -0.0050
27473W        W43547  10.599   5.365   2.715  0.1309 -0.0612  0.0392
27474W        W43548   0.541   4.550   0.848  0.2279  0.0762 -0.0444
27475W        W43549  14.690   6.665   1.313 -0.0425 -0.0809  0.0734
27476W        W43550   1.748  16.376   5.626 -0.2136 -0.1596  0.3600
27477W        W43551  12.974   8.429   4.763  0.0534  0.0619  0.0448
27478W        W43552  11.923  13.706   3.846  0.0314  0.1003 -0.1878
27479W        W43553  15.963  10.844   9.634 -0.0103 -0.1419 -0.0941
27480W        W43554  14.006  18.177  12.737  0.1971  0.1018 -0.1582
27481W        W43555   6.293   9.429  14.047 -0.0046 -0.2477 -0.0679
27482W        W43556   9.347  12.145  13.599 -0.1842  0.2662  0.1541
27483W        W43557  15.048   2.828  14.727  0.3331 -0.0762 -0.3674
27484W        W43558   0.998   6.656  11.309 -0.0939  0.3919 -0.0725
27485W        W43559   9.759   7.295   0.922 -0.0492  0.0966 -0.0823
27486W        W43560   9.508  11.835   1.889 -0.2262 -0.1700  0.0027
27487W        W43561   1.069   2.609   3.326 -0.0316  0.0064  0.1913
27488W        W43562   7.992  11.618  14.620  0.3236  0.0461 -0.1185
27489W        W43563  15.751   1.012  10.921 -0.2211  0.1149  0.0472
27490W        W43564   7.243  14.224   0.516  0.1646 -0.4727 -0.0946
27491W        W43565  10.550  13.837  12.593  0.1156  0.2923 -0.2866
27492W        W43566   4.800  19.290  14.104 -0.1189  0.1965 -0.0385
27493W        W43567   6.804   1.676   4.649  0.1156  0.2391  0.2830
27494W        W43568   2.442   7.027   3.324 -0.2504  0.3425 -0.1308
27495W        W43569  11.402  17.125   2.289  0.1108 -0.0465  0.0307
27496W        W43570   3.218   9.810   3.730  0.0700 -0.3000 -0.2334
27497W        W43571  19.088  12.387  13.746 -0.0510  0.0082 -0.2675
27498W        W43572  13.140   6.094   2.318  0.0925  0.3043  0.0436
27499W        W43573  13.457   2.020   0.868  0.2810  0.1441  0.3398
27500W        W43574  10.658  13.350   1.735  0.0485  0.0196 -0.1921
27501W        W43575   0.856   6.082   3.301 -0.0490 -0.0273  0.3479
27502W        W43576   7.145  14.253  14.889 -0.3083 -0.0186 -0.0442
27503W        W43577   2.048   2.574  10.302  0.2334  0.0976  0.0826
27504W        W43578   5.808   2.563  10.399  0.2519 -0.1247 -0.0626
27505W        W43579   5.544  12.270   2.799  0.0963 -0.0471  0.2173
27506W        W43580   0.726  13.863  11.200  0.2515  0.2234  0.0896
27507W        W43581  16.332   2.752   4.609  0.0965  0.0545 -0.2573
27508W        W43582  16.231   3.326  11.878 -0.0564 -0.2523 -0.3116
27509W        W43583  11.791   5.668   5.781 -0.0371 -0.2242 -0.5481
27510W        W43584  15.116   0.415   0.588  0.2236 -0.2665 -0.4111
27511W        W43585  10.494  14.424  13.821 -0.4175  0.1059  0.1836
27512W        W43586   1.827   4.039  10.777 -0.1075  0.1593 -0.2124
27513W        W43587  14.561   7.258   3.720 -0.3269  0.0629  0.1177
27514W        W43588  14.746  17.971  11.662  0.0070  0.3781  0.0179
27515W        W43589   3.437   9.904  12.870 -0.1586  0.2824 -0.1551
27516W        W43590   1.126  14.030  13.638  0.0927  0.1909  0.1977
27517W        W43591   5.970  18.734  14.574  0.2561  0.0313  0.1504
27518W        W43592   7.568  13.733   3.917  0.2706  0.3730  0.1608
27519W        W43593  11.175  11.966   1.072 -0.0396 -0.1160 -0.3170
27520W        W43594  16.911  14.892   3.424  0.0308  0.0030  0.0641
27521W        W43595   9.167  17.705  10.069 -0.0049 -0.0098 -0.1197
27522W        W43596   1.583  15.650   4.545 -0.2779 -0.0754  0.3482
27523W        W43597   0.020  14.444   0.396 -0.1891 -0.0218 -0.0051
27524W        W43598   3.734  13.641  10.354 -0.3227 -0.1080 -0.2315
27525W        W43599  14.473   0.968  13.268 -0.0062  0.1889  0.0565
27526W        W43600  11.186   7.041   0.449  0.0828  0.0302 -0.1983
27527W        W43601  17.619  10.166  11.087  0.2758 -0.2897  0.3773
27528W        W43602  15.697   2.126  12.387 -0.2846 -0.0033 -0.3139
27529W        W43603   3.222  17.118  13.341 -0.0546  0.2969 -0.3128
27530W        W43604  17.731   3.434   3.088 -0.0998 -0.0350  0.1135
27531W        W43605  15.758   6.715   5.574 -0.0205 -0.2518 -0.1871
27532W        W43606  11.083  16.749   9.327  0.0467 -0.0207 -0.0150
27533W        W43607   3.272   7.173   4.725  0.0248 -0.0208 -0.0758
27534W        W43608  18.442  16.524   4.431 -0.2526 -0.2125  0.0739
27535W        W43609   8.836  13.756  11.135 -0.1881 -0.1742 -0.2179
27536W        W43610  18.317  10.117   5.018 -0.0051  0.2029  0.1736
27537W        W43611  10.583   3.831   9.912  0.1719 -0.2138 -0.0063
27538W        W43612   6.492  12.309   2.230 -0.1927 -0.2256  0.2605
27539W        W43613   9.926  16.106  12.932 -0.0221 -0.2193  0.0412
27540W        W43614   6.068   9.153  12.621 -0.0756  0.1136 -0.0948
27541W        W43615  16.137   3.885  14.707  0.2242 -0.1598  0.0378
27542W        W43616   0.735   8.079   4.707  0.3067 -0.0778  0.2878
27543W        W43617   1.316  13.681   3.159  0.2835 -0.0817 -0.0443
27544W        W43618  19.330   8.795  12.387 -0.2416  0.0069  0.0374
27545W        W43619  12.070  16.133   4.428  0.3285 -0.1833  0.1826
27546W        W43620  19.299   7.098  11.479  0.1177  0.0405  0.2536
27547W        W43621  17.250  17.406   3.148  0.5400 -0.0012 -0.1884
27548W        W43622  14.600   1.463   3.820 -0.0546  0.1615  0.0207
27549W        W43623  13.544  16.667  13.564  0.4283 -0.0210 -0.2567
27550W        W43624  17.061   3.525  11.447 -0.1552  0.0202 -0.0231
27551W        W43625   0.976  14.354   3.786 -0.1207 -0.1033 -0.1003
27552W        W43626  18.443   0.569   1.101  0.1448 -0.1627  0.1958
27553W        W43627  13.960  18.411   4.673  0.1622  0.0097  0.2338
27554W        W43628   3.695   9.521  12.393  0.0248  0.3545  0.1487
27555W        W43629   6.285   1.647  10.228 -0.1839  0.0178  0.1181
27556W        W43630  12.376  16.083   2.070 -0.0789  0.0763  0.0294
27557W        W43631  15.048  17.915  14.996 -0.0153  0.0194  0.1369
27558W        W43632   9.445  10.844  10.402  0.2107  0.4313 -0.0029
27559W        W43633   4.196   2.289   1.917  0.0825  0.0631 -0.2150
27560W        W43634  19.338   7.437  13.197  0.1609  0.0100 -0.3541
27561W        W43635   8.422  15.437  14.828  0.3968 -0.2092 -0.1055
27562W        W43636  12.349  13.861  11.239 -0.3322  0.0483  0.0487
27563W        W43637   4.744  15.172  11.214  0.1100 -0.0809  0.0059
27564W        W43638  14.620  14.531  14.113 -0.0341 -0.1314  0.1053
27565W        W43639   7.615   4.034   4.657 -0.2583  0.1548 -0.1658
27566W        W43640  10.086   9.029  12.242 -0.2333 -0.1114 -0.1104
27567W        W43641  10.048  14.073   4.298 -0.1211 -0.1757  0.1760
27568W        W43642  11.649  16.152   0.104  0.0267  0.0908  0.2837
27569W        W43643  13.602  18.416  13.808 -0.1028  0.1676  0.2908
27570W        W43644  18.970  13.037   3.980 -0.3341  0.2026 -0.0624
27571W        W43645   7.423  10.073  10.921  0.2012 -0.0051 -0.1370
27572W        W43646  10.848  12.879  11.713 -0.0407 -0.3551 -0.1380
27573W        W43647   7.748   4.145   3.581  0.1078 -0.1295  0.3207
27574W        W43648   3.516  14.010   9.281  0.0188 -0.3743  0.3731
27575W        W43649   5.164  15.763  14.184  0.0334  0.0354  0.0905
27576W        W43650  13.601  16.372  13.138  0.1669  0.0632 -0.1557
27577W        W43651   5.230  11.490  14.136  0.1376  0.1759  0.0083
27578W        W43652  15.585   6.430  14.499 -0.0300  0.0652 -0.0358
27579W        W43653  17.700  16.639  12.591  0.1919 -0.3809 -0.1559
27580W        W43654  18.614   8.139   2.895 -0.2529  0.3732 -0.2944
27581W        W43655  11.207   2.713  12.698 -0.0199 -0.1251 -0.3881
27582W        W43656   2.234  18.819   3.201 -0.1841 -0.2160  0.3797
27583W        W43657  17.036  14.751   3.970 -0.1692 -0.0149 -0.0998
27584W        W43658   7.003   4.772  14.775 -0.1895 -0.3451  0.0155
27585W        W43659  18.524   7.824   3.517 -0.1777 -0.0927 -0.0745
27586W        W43660  19.226  13.056   3.537  0.1443 -0.2717 -0.2507
27587W        W43661   3.883  18.111   0.076  0.2609 -0.1299 -0.0801
27588W        W43662   7.101   9.414   3.781  0.1439 -0.1903  0.0661
27589W        W43663   7.555   1.485  13.751 -0.0199 -0.0039  0.4482
27590W        W43664  13.784  18.738   2.389  0.1745  0.0963  0.1571
27591W        W43665   2.331  13.397   4.671  0.4308  0.0302 -0.1418
27592W        W43666  15.559   0.381  10.810 -0.0484 -0.1051  0.1161
27593W        W43667  13.221  16.732  10.725 -0.0049 -0.0508 -0.0839
27594W        W43668   8.842   0.112  11.323 -0.2344  0.1846 -0.4823
27595W        W43669   7.463  13.651   0.549 -0.1636 -0.0259  0.1921
27596W        W43670  13.082  11.720   3.769  0.0683  0.4090 -0.1285
27597W        W43671   4.673  13.651  14.124  0.1052  0.2769  0.4941
27598W        W43672   1.728   9.047  14.972  0.3473 -0.0735 -0.4518
27599W        W43673   4.327  17.587   4.744 -0.1111 -0.1138 -0.0618
27600W        W43674   7.078   4.775   3.529 -0.0189 -0.1300 -0.0214
27601W        W43675   3.433   0.152   3.502 -0.0331  0.1641  0.0357
27602W        W43676  17.991  13.179   4.563  0.2773  0.2098 -0.0322
27603W        W43677   6.577   8.372   3.685  0.3544  0.1321  0.1948
27604W        W43678  18.647  10.589  13.189 -0.0607 -0.0035  0.0133
27605W        W43679   1.926  14.473  10.537  0.1041 -0.1364  0.1790
27606W        W43680   1.835   7.042   1.648 -0.0295  0.2199  0.0473
27607W        W43681  13.882   9.385   0.932 -0.1204  0.1130 -0.2268
27608W        W43682   6.714   7.345   1.987 -0.2712  0.1973 -0.1484
27609W        W43683  15.673   9.575   0.050  0.0582  0.0768  0.0069
27610W        W43684  18.489   3.568   0.292 -0.1633 -0.0044  0.0031
27611W        W43685  15.814  10.962   3.594 -0.1687 -0.4753  0.0260
27612W        W43686  10.156   0.753   2.547 -0.1661 -0.1218 -0.0090
27613W        W43687  15.138  11.781  13.796 -0.0151  0.0126 -0.0162
27614W        W43688  16.554  10.713  14.106  0.0417 -0.1660  0.0622
27615W        W43689  11.981   9.743  10.897  0.0313 -0.1489 -0.1960
27616W        W43690   9.753   3.566   0.940  0.0542 -0.3930 -0.2497
27617W        W43691  18.044  15.749   1.784 -0.0439 -0.0783 -0.0966
27618W        W43692   3.259   5.639   2.960 -0.1579  0.2158 -0.2061
27619W        W43693   4.654   8.974   3.989 -0.0334  0.2894  0.0111
27620W        W43694   0.655  10.532   0.969  0.1778  0.6122 -0.3254
27621W        W43695  16.506   0.838  11.088  0.0458  0.1934 -0.0457
27622W        W43696  11.545  13.624  13.562  0.2160 -0.1558 -0.4482
27623W        W43697  15.235  12.419   5.771  0.1163  0.1338  0.3569
27624W        W43698   8.856   4.508  13.772 -0.1283  0.0084  0.1019
27625W        W43699  14.225  15.713   1.309  0.0497  0.3386  0.3052
27626W        W43700  17.567  17.566   5.948 -0.0400 -0.2203 -0.4524
27627W        W43701  19.162   2.004   3.935  0.1244 -0.2821 -0.1767
27628W        W43702  12.053   7.871  12.557 -0.0046  0.0024 -0.3113
27629W        W43703   9.078  13.540  11.928  0.1131 -0.0843  0.1015
27630W        W43704   9.589   3.202   0.555 -0.0582 -0.0036 -0.0029
27631W        W43705   5.840  11.764   2.603  0.2731 -0.0948 -0.3094
27632W        W43706   8.910   3.629   3.592 -0.0036 -0.0517  0.2480
27633W        W43707   0.940   4.318   0.665  0.3172 -0.0048 -0.1260
27634W        W43708  17.797   3.244   2.418 -0.0502  0.0164 -0.2336
27635W        W43709  17.306   0.767   2.472  0.2896  0.0613 -0.2203
27636W        W43710   8.058  17.152   0.083 -0.0150  0.0772  0.3303
27637W        W43711  11.487  17.820   2.070 -0.0493 -0.3599  0.1178
27638W        W43712  12.878   6.103  14.249  0.0056 -0.0237 -0.0445
27639W        W43713  18.575   3.049  14.992 -0.2340  0.0096 -0.0236
27640W        W43714  17.555  12.461   3.927  0.0383 -0.1124 -0.1467
27641W        W43715   6.505   9.060  12.353  0.3247 -0.1379 -0.2030
27642W        W43716  14.494  16.450  14.262  0.1457 -0.2740  0.1835
27643W        W43717   0.377  13.481  14.337  0.3876 -0.1217  0.0293
27644W        W43718   3.277  13.408  10.941 -0.0090 -0.0034  0.0870
27645W        W43719  18.256  14.412   3.580 -0.0252  0.3253 -0.0829
27646W        W43720   5.784  11.384   0.472  0.4261  0.0262  0.3035
27647W        W43721   5.081   0.480  14.202 -0.1291 -0.3182  0.1350
27648W        W43722   8.998   6.909   3.183 -0.0240 -0.0186  0.0753
27649W        W43723  15.012  18.627  12.713  0.1403 -0.1725 -0.0585
27650W        W43724  17.051   2.926   2.556 -0.3337  0.3112 -0.0000
27651W        W43725  14.667  14.336  11.883 -0.0494 -0.1853  0.2800
27652W        W43726  15.195  15.752   4.221 -0.0272  0.0222  0.0455
27653W        W43727   1.961   2.444   3.465 -0.3828 -0.1527  0.2474
27654W        W43728  19.255   4.323  12.202 -0.1364 -0.1463 -0.0524
27655W        W43729  13.280   9.920   1.277 -0.0318  0.0187 -0.0409
27656W        W43730  12.426   8.206   0.576  0.0372 -0.2804 -0.2478
27657W        W43731  16.501   9.192   2.357  0.1661  0.0705  0.1794
27658W        W43732  11.203   3.409   5.653 -0.1805 -0.3405  0.1687
27659W        W43733   8.628   7.486  12.474  0.1450 -0.0929 -0.0380
27660W        W43734  12.145   1.618  14.183  0.0290 -0.0980  0.0849
27661W        W43735   3.403  14.936   0.959  0.2908 -0.1137 -0.3276
27662W        W43736   3.422  14.222   4.271  0.0832  0.2816  0.2429
27663W        W43737   6.465   1.605  13.016 -0.0209  0.0185  0.1744
27664W        W43738  17.618  15.736   2.577 -0.1471  0.1082  0.2982
27665W        W43739   6.068   9.133  12.120  0.1325  0.1100 -0.2061
27666W        W43740  12.187  11.095  14.270  0.1434  0.0814  0.1404
27667W        W43741   4.309   9.128  11.579  0.0727  0.0541 -0.0609
27668W        W43742  11.182  17.586  11.583 -0.1402 -0.3006 -0.2566
27669W        W43743  12.633   3.891  13.716  0.0814  0.3749 -0.2391
27670W        W43744   4.346   2.141  10.021  0.0937 -0.3307  0.0230
27671W        W43745   6.144  16.361   0.561 -0.1781  0.1643 -0.3307
27672W        W43746   3.182   7.164   5.246  0.0461 -0.2394 -0.2625
27673W        W43747  14.453   3.620  13.556 -0.2288 -0.0561  0.1624
27674W        W43748  16.442  14.772  14.836  0.0880 -0.0008 -0.0656
27675W        W43749   0.308  10.225  12.657 -0.2546 -0.1380  0.1702
27676W        W43750   3.276  14.370  13.680  0.1239 -0.1531 -0.2691
27677W        W43751   0.832  16.704  13.661  0.0340  0.0808 -0.1465
27678W        W43752  18.523   2.965  14.290  0.2780 -0.3458 -0.0905
27679W        W43753   8.857  16.909  13.194  0.3037 -0.0713  0.2076
27680W        W43754   7.932   0.146   2.916  0.1560  0.0189  0.1618
27681W        W43755   0.235   1.114  11.022 -0.4373  0.0256  0.2299
27682W        W43756   9.729  19.179   1.052 -0.0656  0.0145  0.0498
27683W        W43757  10.557   0.355  13.852 -0.1188 -0.0345  0.0841
27684W        W43758   8.294  14.236   4.619 -0.0360 -0.1437  0.2020
27685W        W43759   9.396   4.545   0.700 -0.0607 -0.1629  0.1559
27686W        W43760   8.254  17.630  11.974  0.1833 -0.0412  0.0865
27687W        W43761   2.680   7.161   6.334  0.0382  0.1812 -0.0819
27688W        W43762  17.253  11.660   4.916  0.3023  0.0344 -0.5357
27689W        W43763   2.463  17.089   3.001  0.2382 -0.1215 -0.0135
27690W        W43764  11.588  12.458  13.681 -0.0486  0.2110  0.0589
27691W        W43765   5.096  11.006  10.985 -0.0988  0.2027  0.2173
27692W        W43766  18.723   9.349   2.515  0.2886 -0.1525  0.3148
27693W        W43767   6.195   3.129   1.199  0.0447 -0.0142 -0.3004
27694W        W43768  10.925  14.944   0.918  0.1381  0.1413  0.0529
27695W        W43769  15.692  10.059   3.857  0.1859 -0.0170  0.0699
27696W        W43770   1.337  13.358  10.995  0.3378 -0.0222  0.0051
27697W        W43771  13.073  12.178   3.955  0.3099 -0.0174  0.2558
27698W        W43772  13.038  16.787   2.189  0.0248 -0.0109 -0.6165
27699W        W43773   1.975  10.055   3.155  0.0648  0.1446 -0.1412
27700W        W43774   8.932  11.367  10.444 -0.2809 -0.0454 -0.4335
27701W        W43775   4.196   2.730   2.710  0.1661  0.1759 -0.1695
27702W        W43776   1.638  10.056  12.548 -0.0464 -0.0425  0.1062
27703W        W43777  14.239   3.808  11.949  0.2343 -0.0016  0.0935
27704W        W43778  11.540   4.369   2.469 -0.0258  0.4178  0.1070
27705W        W43779   2.279  10.906   2.680  0.0593  0.2636 -0.1597
27706W        W43780   5.974   1.518  13.755 -0.0675 -0.0868  0.1008
27707W        W43781   4.299   9.255  13.108  0.1069  0.1649  0.0952
27708W        W43782   0.649  18.917   2.058 -0.0469 -0.1385  0.1599
27709W        W43783   6.292  16.254  11.593  0.2228  0.1754 -0.1147
27710W        W43784   0.530   3.511   2.531  0.0049  0.3328  0.1102
27711W        W43785   5.282  17.378   4.264  0.2843 -0.1399 -0.4130
27712W        W43786   1.054  12.545   4.870 -0.0873 -0.2404  0.1258
27713W        W43787  15.911   6.598  10.876  0.2458  0.2436  0.2293
27714W        W43788   4.048   3.749   3.111 -0.0030  0.0391  0.1364
27715W        W43789  12.514  13.307   3.087  0.0162  0.0005  0.0135
27716W        W43790  17.865   1.557   5.200 -0.1966 -0.1160 -0.3823
27717W        W43791   1.331   3.625  10.156 -0.4842 -0.0636  0.0496
27718W        W43792   4.247  17.271  10.226 -0.1004 -0.1973  0.1003
27719W        W43793  16.328  17.580   1.016  0.1258  0.2803 -0.5108
27720W        W43794   3.021  13.402   0.838 -0.1775 -0.5893 -0.5486
27721W        W43795  10.178  16.011  14.750 -0.1454 -0.0023  0.3121
27722W        W43796  13.534   1.966   4.086 -0.2276  0.0233  0.0892
27723W        W43797  11.930  16.730   9.201 -0.1291  0.1724  0.0032
27724W        W43798   7.620   7.999   2.138  0.4983 -0.0971  0.0444
27725W        W43799   2.917   2.534   2.230 -0.1746  0.4048 -0.2857
27726W        W43800   3.283   7.816  14.580 -0.1073 -0.2904  0.2355
27727W        W43801  17.994  10.357  12.866  0.3706 -0.0648  0.2804
27728W        W43802   6.818   6.505   1.905  0.2079 -0.2840  0.1612
27729W        W43803   7.489  10.348   3.358  0.4965  0.0326 -0.2375
27730W        W43804  18.423  15.467  14.543  0.0552 -0.1753  0.3872
27731W        W43805   6.342   2.378   0.766 -0.0475 -0.0796  0.1894
27732W        W43806   3.600   6.417   3.846  0.1214  0.0339  0.0729
27733W        W43807  14.996  12.276  12.943 -0.2636 -0.2260 -0.2460
27734W        W43808   6.778   9.398   1.371 -0.3102  0.2069  0.3293
27735W        W43809  16.619  13.198   1.345 -0.1319  0.0948 -0.2264
27736W        W43810   1.138   2.773  13.152 -0.3719 -0.1045 -0.0829
27737W        W43811  15.184  15.023   1.277  0.0836 -0.4729  0.3315
27738W        W43812  10.691   9.122   4.115  0.0722  0.3333 -0.0947
27739W        W43813  16.259   1.262   2.925 -0.1855  0.1160 -0.1586
27740W        W43814   5.316  13.590   4.787 -0.2484 -0.1772 -0.3098
27741W        W43815   7.298   8.920  14.168  0.1192 -0.0631 -0.0821
27742W        W43816   3.073  12.059   2.402  0.0989  0.1962  0.1595
27743W        W43817   8.909   2.480   4.773  0.2006 -0.0746 -0.1072
27744W        W43818  16.204   0.820   1.057  0.0836  0.2618  0.0579
27745W        W43819   6.811  13.882  13.862  0.0284  0.0467 -0.0182
27746W        W43820  13.193  17.927  14.966 -0.2827  0.0438  0.1821
27747W        W43821   7.221   0.235  14.626  0.5601 -0.1677 -0.0621
27748W        W43822   9.553   1.995   1.300 -0.1629  0.1336 -0.0214
27749W        W43823  10.829  14.833  14.468  0.1937 -0.1553 -0.1116
27750W        W43824   4.546  16.112  12.101 -0.0924  0.0383 -0.0882
27751W        W43825  12.280  12.410   2.498 -0.0478  0.3876 -0.2564
27752W        W43826  18.976   2.190  10.568  0.0617 -0.0707  0.1892
27753W        W43827   1.483   3.404   5.453 -0.0688 -0.0298 -0.0860
27754W        W43828  10.014   2.939   1.861 -0.1019 -0.4383 -0.2297
27755W        W43829  14.344  12.683   2.891  0.3477 -0.1078 -0.1662
27756W        W43830   3.307   8.680   2.623  0.1184  0.6395  0.1501
27757W        W43831  18.430  12.681  13.100 -0.0879  0.0989 -0.0967
27758W        W43832   2.546  17.389   3.384  0.3772 -0.1121  0.0069
27759W        W43833  10.158   8.764  13.490  0.1002 -0.5430 -0.0309
27760W        W43834   3.697  11.743  10.092  0.2298 -0.3368  0.0471
27761W        W43835   1.038  10.273   2.656 -0.3515  0.1615  0.0553
27762W        W43836   9.565   1.188  10.341  0.2061  0.0189  0.0483
27763W        W43837  18.889  16.879   2.668  0.3316  0.1773  0.0471
27764W        W43838  13.508   2.425   2.514  0.2383 -0.0422  0.5470
27765W        W43839  14.295   3.359  13.096  0.1161 -0.1486 -0.0048
27766W        W43840  17.079  13.272   1.506 -0.2450 -0.0105 -0.2473
27767W        W43841   0.909   1.166  12.989 -0.0006  0.0580  0.1626
27768W        W43842   7.061  10.415  10.772  0.1807 -0.0937 -0.1693
27769W        W43843   2.376   4.616   2.052 -0.1465 -0.0700  0.2578
27770W        W43844  17.439   0.929   5.700 -0.0264  0.0685 -0.0714
27771W        W43845  17.019  11.547   3.274  0.1929  0.0401  0.0333
27772W        W43846  10.256   4.018  12.786  0.2502  0.0026 -0.0207
27773W        W43847  15.356  18.759  14.377  0.2958 -0.0642  0.0708
27774W        W43848  16.871  12.254  13.878  0.3627 -0.1484 -0.6528
27775W        W43849   5.524   9.489   2.541 -0.1448 -0.1490  0.0471
27776W        W43850  17.163  18.098  12.202  0.5245  0.2826 -0.0842
27777W        W43851   1.208  19.245   4.238 -0.2821  0.0077 -0.0140
27778W        W43852  10.883  13.261   9.665  0.0587 -0.2570 -0.1082
27779W        W43853  14.875   1.456  11.979  0.0126  0.2786  0.1120
27780W        W43854   6.345   3.454   4.343 -0.2623 -0.1264 -0.0052
27781W        W43855  10.767  11.244   2.804  0.2580 -0.0577 -0.0751
27782W        W43856  12.495  17.827   3.344  0.1169 -0.3225 -0.2504
27783W        W43857   3.775  15.606  12.093  0.0270 -0.2954 -0.2965
27784W        W43858   3.149  15.245   3.523 -0.0839  0.2933 -0.0115
27785W        W43859  10.331  12.365   4.170 -0.0273 -0.3480  0.1351
27786W        W43860   7.410   2.175   4.164  0.1799 -0.3928 -0.2333
27787W        W43861  19.120  17.905  11.989 -0.0851 -0.2261 -0.0701
27788W        W43862  16.164  16.318  12.992 -0.3182  0.4798 -0.0440
27789W        W43863   2.826   6.912  12.405  0.3663  0.1627 -0.1395
27790W        W43864  14.509   1.352  13.661 -0.1152  0.1048  0.0738
27791W        W43865  15.445  11.652   4.807  0.0393  0.0782 -0.6694
27792W        W43866  10.398  14.908   2.292  0.1800 -0.0184  0.1113
27793W        W43867   6.095   9.080   1.641 -0.0235 -0.0477 -0.1792
27794W        W43868  16.806   6.305   2.893  0.0211 -0.0556 -0.2815
27795W        W43869   6.560   7.382   0.453 -0.3395  0.0790  0.3815
27796W        W43870   4.855   7.894   1.956  0.2604  0.0203  0.1028
27797W        W43871  10.065   0.792   9.680 -0.1379  0.1575  0.1319
27798W        W43872  16.322  18.841  11.671 -0.0713  0.2080  0.4036
27799W        W43873   8.225  17.410   1.056 -0.0588  0.2846  0.2309
27800W        W43874   3.464   5.984   4.409 -0.1343  0.0142 -0.4432
27801W        W43875   9.286  11.247   1.528  0.1970  0.2660 -0.2284
27802W        W43876   9.235  12.228   5.125  0.1828 -0.0251  0.0022
27803W        W43877   3.911  18.998   4.704 -0.0258 -0.1913 -0.1227
27804W        W43878   7.402  18.580   1.877 -0.0752  0.1175  0.2048
27805W        W43879  15.086   3.492   1.954  0.1185  0.3121  0.2588
27806W        W43880   9.939  17.139  10.050  0.1706  0.5338  0.0211
27807W        W43881   4.837   1.045   5.057  0.0403  0.3236  0.0603
27808W        W43882  15.163  14.921   4.656  0.1068 -0.0518 -0.0133
27809W        W43883  14.014  15.929   3.577 -0.1314  0.2030  0.2697
27810W        W43884   9.544  15.375   0.826  0.0500  0.1418  0.0356
27811W        W43885  13.610   7.321   1.570  0.0914 -0.0435  0.0853
27812W        W43886  16.129   8.345  11.105  0.1977  0.0236 -0.0755
27813W        W43887  12.316   9.031   0.681 -0.0382  0.3111  0.1505
27814W        W43888  13.637   1.518   4.322  0.2204  0.1623 -0.2061
27815W        W43889  18.623   3.196   0.801  0.1935 -0.2724  0.2197
27816W        W43890   7.553  11.215   4.977 -0.1733 -0.2769 -0.0299
27817W        W43891  18.608   2.181  11.295 -0.2669  0.2127 -0.2453
27818W        W43892   6.058  15.827  14.940  0.0515  0.0584 -0.3820
27819W        W43893   8.716   8.889  10.735 -0.2320  0.2540  0.2479
27820W        W43894  15.820  12.997   4.193 -0.3875 -0.1770 -0.2455
27821W        W43895   9.967  10.194   2.578 -0.0610 -0.0707 -0.4369
27822W        W43896  15.436   5.866   2.194 -0.2034 -0.1866 -0.2125
27823W        W43897  19.129  14.580   4.052 -0.0505  0.3499  0.1148
27824W        W43898   1.567  11.662   3.340 -0.2604  0.4059  0.1627
27825W        W43899  13.714   9.867  11.618  0.2280 -0.0835  0.0521
27826W        W43900   8.426   4.192   9.805 -0.1450 -0.0912 -0.0579
27827W        W43901  16.726  12.533   3.329  0.1250  0.1402  0.0582
27828W        W43902  17.011  12.002   2.670  0.0435 -0.0531 -0.0593
27829W        W43903  14.474   0.855   2.814  0.0413  0.0832 -0.1923
27830W        W43904  15.143   5.822   2.796 -0.2705 -0.1827 -0.1418
27831W        W43905  13.350  12.041  12.308  0.1197 -0.3075  0.4481
27832W        W43906  17.884  16.615   3.075 -0.3920  0.0470  0.0747
27833W        W43907   8.767   8.590  12.292  0.1773  0.2192  0.1780
27834W        W43908   7.195   6.601  14.289 -0.0112 -0.1266  0.0557
27835W        W43909  17.024   6.982   0.977 -0.3113  0.4622 -0.0960
27836W        W43910  11.072  11.541   3.406  0.3398  0.1661  0.1960
27837W        W43911  17.975   5.280  13.395  0.1061 -0.2172 -0.2448
27838W        W43912   6.068   7.180   0.455  0.0138 -0.0217 -0.1219
27839W        W43913   6.860  19.329   1.517 -0.1425  0.1081  0.1707
27840W        W43914   2.351   3.343  11.421  0.0632 -0.0176  0.1042
27841W        W43915   6.741  14.248  11.309 -0.2772 -0.1393  0.2340
27842W        W43916  11.773   8.324  11.219  0.1581  0.0201  0.6744
27843W        W43917   8.223  16.781   9.760  0.1322  0.3328  0.1917
27844W        W43918  18.151  14.899  13.750  0.1145 -0.1448  0.1909
27845W        W43919   1.952  11.954   3.160 -0.0486  0.0649 -0.1592
27846W        W43920  15.476   8.059  13.896  0.2012 -0.2176 -0.0182
27847W        W43921   7.874   1.855   1.603 -0.0386 -0.6050  0.1084
27848W        W43922  14.767  18.255  12.542 -0.0759  0.1136  0.1813
27849W        W43923  12.644   0.867  13.397  0.2117  0.1320 -0.1017
27850W        W43924   8.714   6.464  12.123  0.0233 -0.0377 -0.0297
27851W        W43925   4.293   0.165  13.980 -0.0678 -0.0950  0.1856
27852W        W43926  18.311   8.336   6.082 -0.1663  0.4622  0.1813
27853W        W43927   8.257   1.711   2.386  0.3116  0.3379  0.0248
27854W        W43928  15.521  13.697  14.670  0.2172 -0.4802 -0.2451
27855W        W43929   5.969   6.443   1.279 -0.2217 -0.6391 -0.0899
27856W        W43930  18.993   7.898   2.718  0.0745 -0.1611  0.2571
27857W        W43931  17.342  12.737  11.709 -0.1472 -0.0221 -0.2132
27858W        W43932  10.744  15.685  12.952 -0.1590  0.0701  0.0648
27859W        W43933   1.956  15.475  12.737  0.2969  0.1285 -0.0917
27860W        W43934   7.935  12.007   0.488 -0.0426 -0.1422 -0.0614
27861W        W43935   7.000  12.146   0.194  0.2681 -0.3103  0.1334
27862W        W43936  12.448   5.784   5.605 -0.5199 -0.0682  0.1448
27863W        W43937   2.211  18.525   0.263 -0.1555  0.1920  0.0702
27864W        W43938   6.462  17.052  14.394  0.2824 -0.4789 -0.0101
27865W        W43939   8.163   1.749  13.070  0.0524  0.2548 -0.2309
27866W        W43940  11.350   2.324   2.693  0.0690  0.2099  0.2069
27867W        W43941  10.342   3.453   0.044 -0.0956  0.0901  0.0963
27868W        W43942   5.302   1.474  13.315 -0.0780 -0.1182  0.0287
27869W        W43943   0.514  15.073   5.028 -0.1389  0.0444 -0.0138
27870W        W43944   3.143   3.199   0.545 -0.2622 -0.3766 -0.1597
27871W        W43945   6.449   5.080  13.194 -0.3901  0.3353 -0.0963
27872W        W43946   0.317   1.889   2.134  0.3297 -0.3411 -0.0828
27873W        W43947   8.561  18.521  10.362 -0.2593 -0.2382  0.1384
27874W        W43948  17.896  17.779   1.778  0.0862  0.1266  0.2736
27875W        W43949   4.496   4.748   3.900  0.0383 -0.2582 -0.0881
27876W        W43950   7.394   6.104  13.208  0.4302  0.1984  0.0260
27877W        W43951  15.123  10.984   1.952 -0.0223  0.0894  0.1557
27878W        W43952  13.740  16.227   2.268  0.1993 -0.1105 -0.2190
27879W        W43953   7.972  10.617  10.477  0.1017 -0.0406  0.2254
27880W        W43954  12.282  11.966  13.670 -0.1064  0.1789 -0.3455
27881W        W43955  18.160   2.294   2.633 -0.1116 -0.0884  0.2125
27882W        W43956  15.011  14.681   3.459  0.0640  0.0120  0.0201
27883W        W43957  10.710  14.803   9.526  0.0875 -0.1190  0.3288
27884W        W43958  13.648   1.235   4.734  0.1222 -0.1130  0.2929
27885W        W43959   0.593  10.269   3.718  0.3434  0.4139 -0.1720
27886W        W43960   2.671   4.864   2.393  0.1718 -0.3006 -0.1341
27887W        W43961  16.025  11.710   3.349  0.1564 -0.2199  0.1433
27888W        W43962  14.272  15.598   3.822 -0.1529 -0.1897 -0.1685
27889W        W43963  17.479  14.933  14.777 -0.2303  0.3662 -0.2332
27890W        W43964  11.029   0.240   5.224  0.0834  0.1949 -0.0822
27891W        W43965   0.691   4.217  11.955 -0.1516 -0.1090 -0.1448
27892W        W43966   6.212   6.730   2.348  0.0773 -0.0190 -0.0051
27893W        W43967  12.496   6.734  12.452 -0.0691  0.1995 -0.3313
27894W        W43968  18.459  15.988  14.374  0.1035 -0.2609  0.1383
27895W        W43969  17.571   2.262  12.429  0.1728 -0.2522  0.1074
27896W        W43970   8.227   5.810  13.317  0.0024  0.1142 -0.0309
27897W        W43971   2.575   8.765   0.479  0.0737  0.0848 -0.2044
27898W        W43972   9.526   5.445  13.331 -0.2678 -0.2699  0.0511
27899W        W43973  11.047   9.848   3.634  0.0922  0.1502 -0.1954
27900W        W43974   5.524   9.899  11.448 -0.3422 -0.1374  0.2481
27901W        W43975  10.904   7.705   3.201 -0.0700  0.1165 -0.1789
27902W        W43976  18.696   3.186  12.901 -0.1635  0.0759 -0.0058
27903W        W43977  14.363   3.281  14.966  0.0176 -0.2398  0.3295
27904W        W43978  15.412  15.885  11.849  0.1432 -0.0199 -0.1551
27905W        W43979   2.885  15.495   2.607 -0.0193 -0.0712  0.1580
27906W        W43980   2.551  10.200  11.395 -0.1157 -0.2492 -0.0120
27907W        W43981  12.817   0.008   4.058  0.1109  0.3751 -0.0116
27908W        W43982   9.678  15.441   3.131  0.1389 -0.1604  0.0234
27909W        W43983   1.657   6.110   5.117 -0.0461  0.1989 -0.0229
27910W        W43984   2.955  15.928  13.461 -0.0700  0.1408  0.3478
27911W        W43985   0.911  17.144  11.112 -0.0380  0.3382 -0.1432
27912W        W43986  15.395  18.896   1.897  0.0912 -0.0060  0.0678
27913W        W43987  12.392   9.746  10.033 -0.0539  0.0117  0.0051
27914W        W43988   1.725  13.563  13.875 -0.0305 -0.2930  0.0789
27915W        W43989   0.201  10.229  14.473 -0.1401 -0.1882  0.0779
27916W        W43990  16.104   5.165   3.883  0.0549  0.2186  0.1947
27917W        W43991  19.020  13.846   1.436 -0.3808 -0.2760  0.1578
27918W        W43992   3.660   1.365   5.064  0.1081  0.1571  0.0894
27919W        W43993  18.617   3.629   3.977 -0.0159 -0.0358  0.2190
27920W        W43994  13.286  14.132  11.439  0.0199  0.0004 -0.1351
27921W        W43995  11.564   7.944  14.183  0.0793 -0.1129  0.1220
27922W        W43996   9.156  18.024   4.520  0.1239 -0.5102 -0.2214
27923W        W43997   5.537   4.050  12.859 -0.1963 -0.2382 -0.3154
27924W        W43998   4.766   4.924  13.953  0.3253  0.1782 -0.2836
27925W        W43999  13.790   0.820  14.760  0.0439  0.0115  0.2354
27926W        W44000  17.134   9.259   1.098  0.2988  0.0064  0.3663
27927W        W44001  12.006  10.620  14.148  0.1200 -0.1159 -0.1515
27928W        W44002  11.588  13.589  11.815 -0.1006  0.1219  0.0938
27929W        W44003   7.409  10.842  14.500 -0.0783  0.0169 -0.4403
27930W        W44004   0.686  11.586   1.459  0.2536 -0.0078  0.3289
27931W        W44005  16.970   0.708   3.971 -0.0876 -0.1611 -0.0715
27932W        W44006   0.552  17.395   5.170  0.0318 -0.0000 -0.0460
27933W        W44007  17.622  18.600   2.895  0.0404  0.1598  0.2061
27934W        W44008  14.951  17.456   0.201 -0.5414  0.2279  0.2441
27935W        W44009   5.624  19.093  14.781 -0.1261 -0.0076 -0.0241
27936W        W44010   9.646   2.605   3.637  0.1146 -0.3411 -0.0257
27937W        W44011   5.941   5.422   0.288 -0.0566 -0.5097  0.0563
27938W        W44012   5.915   8.373  11.151  0.1007  0.0159  0.4472
27939W        W44013   8.697   4.623  14.589  0.1718  0.1907 -0.4284
27940W        W44014   6.979  11.377   2.267 -0.0765  0.0346 -0.2567
27941W        W44015   5.838   8.460   4.585 -0.1017 -0.3532 -0.0083
27942W        W44016   7.542  17.786   9.028  0.0636  0.2876 -0.0770
27943W        W44017  14.421   6.726  11.763  0.4132  0.3613 -0.0004
27944W        W44018   3.610   4.968  14.631  0.0887 -0.0640 -0.0331
27945W        W44019   1.937  19.337   3.011  0.2834 -0.2236 -0.0159
27946W        W44020   2.130   9.605   5.073 -0.1730 -0.1131 -0.0134
27947W        W44021  19.208  16.212   3.187 -0.0983  0.0474 -0.1436
27948W        W44022  11.063  14.076  14.427 -0.3729  0.1148 -0.1710
27949W        W44023   6.231  17.026  12.138  0.0704  0.1132  0.0935
27950W        W44024  18.590   9.309  14.272  0.2416 -0.2095 -0.1197
27951W        W44025  13.258   4.742  12.804 -0.0497  0.2588  0.0304
27952W        W44026   4.021   2.642  11.430 -0.2318  0.1503  0.3052
27953W        W44027  13.446  14.010   4.261  0.2632  0.2790  0.4483
27954W        W44028  18.584  10.445  13.675 -0.1771  0.1832  0.2926
27955W        W44029  10.788   8.753  11.352  0.2375  0.0041 -0.1739
27956W        W44030  18.124   5.760   2.522 -0.2865  0.1026  0.2366
27957W        W44031  12.659  15.049  11.382 -0.1494  0.2389  0.0629
27958W        W44032   9.775  12.655  14.419 -0.0145  0.0226 -0.0556
27959W        W44033   9.029  17.215  14.948  0.1492 -0.0890  0.1921
27960W        W44034  17.706  10.280   3.469  0.4049  0.3194 -0.2166
27961W        W44035  13.573   2.623   3.028  0.1177 -0.3114  0.3752
27962W        W44036  13.254  15.034   1.027 -0.0582 -0.1487  0.0526
27963W        W44037  18.526  15.488   0.591  0.3511 -0.1204  0.1844
27964W        W44038   6.629  11.027  12.876 -0.0046 -0.1679 -0.0006
27965W        W44039  12.919  15.572   0.122 -0.2060 -0.1468 -0.0934
27966W        W44040  18.050  12.726   0.682  0.2325  0.2216 -0.3078
27967W        W44041  10.969   0.897   4.250 -0.3373  0.0974  0.4556
27968W        W44042  15.000   5.180   4.575  0.0504 -0.0657 -0.2360
27969W        W44043   7.821  12.438  11.751  0.0287  0.3043 -0.3432
27970W        W44044  11.101   3.249   2.755 -0.2268  0.0829 -0.0275
27971W        W44045  18.130   0.180   4.288 -0.3431  0.1303  0.3396
27972W        W44046  13.504   8.241   2.233  0.1529 -0.0076  0.2828
27973W        W44047   4.529  13.631   2.563  0.5457 -0.0694 -0.0508
27974W        W44048  14.558  13.786  14.502  0.4229  0.3786 -0.0265
27975W        W44049   4.360   5.813  14.337 -0.1977 -0.0805  0.3137
27976W        W44050  18.826  10.377   2.459 -0.2495  0.1285  0.0894
27977W        W44051  14.633   4.763   3.967  0.2198  0.3670  0.2043
27978W        W44052   9.736  16.919  13.041 -0.2196  0.1993  0.0952
27979W        W44053  18.928   6.031   1.163  0.0418  0.0234  0.1224
27980W        W44054   7.623   3.173   1.636  0.2010  0.0738 -0.3540
27981W        W44055   7.121  18.104   1.768  0.2265  0.0432 -0.0319
27982W        W44056   6.995  13.284  10.927 -0.0318 -0.0878  0.4046
27983W        W44057  16.432   9.685  13.540 -0.2453 -0.4423  0.1920
27984W        W44058  17.928   2.150  10.186 -0.0406  0.0102 -0.2607
27985W        W44059  11.982  11.994  13.297 -0.0104 -0.0307  0.0074
27986W        W44060  16.954  18.030  14.061 -0.0981  0.3447  0.0061
27987W        W44061   3.690   9.295   0.390  0.4082 -0.1291  0.0125
27988W        W44062  17.987   8.370  12.426 -0.2184  0.0351 -0.0129
27989W        W44063   4.346   0.149   3.935 -0.1144  0.2468 -0.0833
27990W        W44064   1.460  13.250  12.780  0.0965  0.2583 -0.0730
27991W        W44065  12.993   5.550   1.659  0.1084 -0.1330  0.1918
27992W        W44066  14.950   1.978  14.274 -0.0494 -0.3457 -0.0709
27993W        W44067   7.203   7.856  12.250 -0.0216  0.1723  0.0392
27994W        W44068   1.771   9.659  12.826 -0.1137 -0.0532  0.0916
27995W        W44069  14.549  14.599  10.834  0.3819 -0.2038  0.1665
27996W        W44070  11.067   2.732  13.247 -0.1898  0.0748 -0.2398
27997W        W44071  16.243  15.433  13.943 -0.0561  0.0081 -0.0820
27998W        W44072   7.856  14.958   0.246  0.1494  0.1640  0.2279
27999W        W44073  10.270   5.076  13.858  0.0104  0.0927 -0.2524
28000W        W44074   6.579  13.577  10.868  0.0934 -0.0925  0.0927
28001W        W44075   0.172  10.695  11.164  0.1067  0.0531 -0.1758
28002W        W44076   7.682  12.521   4.533 -0.0716 -0.2029  0.0823
28003W        W44077  18.413  15.235   9.383 -0.1148 -0.1658  0.0322
28004W        W44078  14.602   3.906   2.060  0.2155 -0.4028  0.1595
28005W        W44079  11.308   1.125   1.368  0.2241 -0.2396  0.1668
28006W        W44080   3.129   8.780   9.688 -0.3724  0.0765 -0.2080
28007W        W44081  17.043  10.600  12.736 -0.0829 -0.0807 -0.1911
28008W        W44082  12.904  13.585   1.397 -0.5038 -0.1422 -0.0224
28009W        W44083   5.236   7.416   3.410 -0.0294 -0.1835  0.2625
28010W        W44084  15.050   3.392  12.041 -0.3780  0.2493 -0.3019
28011W        W44085  10.387   9.008  11.824  0.5198  0.0020 -0.0888
28012W        W44086  11.933  19.207  14.193 -0.4213 -0.0597  0.0348
28013W        W44087  13.873  17.198  12.635  0.1366  0.0534  0.0513
28014W        W44088   5.711  15.637   0.472 -0.2113 -0.2441  0.0510
28015W        W44089  15.516  13.059  13.520 -0.2412  0.1410  0.1814
28016W        W44090   6.989  14.885   1.002  0.0437  0.0115  0.0512
28017W        W44091  10.490   0.937   1.013 -0.2328  0.0429  0.2921
28018W        W44092  11.674   2.706  12.781 -0.2694 -0.0254  0.2603
28019W        W44093  13.754  15.817   4.077 -0.0479  0.0423 -0.0272
28020W        W44094  14.647   6.583  13.644 -0.1234  0.1483  0.1577
28021W        W44095  17.128  14.063   1.988  0.2458 -0.0741 -0.2707
28022W        W44096  14.317  16.632   3.069 -0.1611  0.0103  0.5500
28023W        W44097   8.841   7.909   0.150 -0.1973  0.1568 -0.1108
28024W        W44098  18.326   2.538   0.485 -0.4551  0.3700  0.0735
28025W        W44099   8.397   9.927   4.272  0.0896  0.2299 -0.1915
28026W        W44100  12.752   9.761  14.179  0.2947 -0.0894  0.1188
28027W        W44101   8.457   9.554  12.380  0.1737 -0.2276 -0.0792
28028W        W44102  19.113   0.753  12.596 -0.4020  0.2757 -0.2004
28029W        W44103   7.097  14.459  13.836 -0.1429  0.0842 -0.4213
28030W        W44104  16.666  11.894   5.230 -0.2859 -0.1924 -0.0053
28031W        W44105   5.457   9.473  11.732  0.1753 -0.2736 -0.2199
28032W        W44106   7.858  11.291  11.493 -0.0651 -0.0455  0.0061
28033W        W44107   5.591   6.907  11.125 -0.0206  0.0587  0.0837
28034W        W44108  12.694   6.863  14.730  0.2047  0.1804 -0.0557
28035W        W44109  16.381  18.739  12.198 -0.0690  0.2670  0.0155
28036W        W44110  10.946   8.352  11.574  0.0680  0.1860 -0.3198
28037W        W44111  12.958  17.678  13.506 -0.1549  0.1003  0.3525
28038W        W44112  13.491   8.548  10.784 -0.0182 -0.3625 -0.1201
28039W        W44113   3.875   0.273  12.765  0.1811 -0.2464 -0.6394
28040W        W44114   2.928  13.514  13.471 -0.0153 -0.1480  0.1736
28041W        W44115  16.792   2.133   4.517 -0.0500 -0.0589  0.3944
28042W        W44116   1.441  16.900  13.352 -0.0684 -0.0609 -0.0420
28043W        W44117   6.292  15.215  12.366 -0.0290 -0.0912 -0.1362
28044W        W44118   6.071   6.308   2.593 -0.1129 -0.0250 -0.3365
28045W        W44119   1.715  13.787   2.899  0.0488  0.1367 -0.0339
28046W        W44120   4.135   2.775   9.842 -0.1379  0.1978  0.2284
28047W        W44121  12.694   9.319  12.359  0.1889 -0.2865  0.1997
28048W        W44122   0.053   5.877  12.981 -0.0464 -0.0344 -0.1825
28049W        W44123   7.046   8.795   2.616  0.0035  0.2876  0.0667
28050W        W44124   6.308  16.401   1.035 -0.1004 -0.0150  0.0874
28051W        W44125   2.892   9.595   1.629 -0.0439 -0.0457 -0.3321
28052W        W44126  15.009   7.342  13.528  0.0947  0.0617 -0.0245
28053W        W44127  12.584   6.272   6.040  0.2105 -0.1427 -0.0315
28054W        W44128  10.774   6.172   0.284  0.3556  0.0159 -0.2794
28055W        W44129  12.215   9.858  11.985  0.1441  0.0344 -0.3440
28056W        W44130   8.546  12.769   0.050  0.0247  0.3466 -0.5955
28057W        W44131  18.315  12.188  12.985 -0.0576  0.2428  0.1044
28058W        W44132  14.827   7.440   3.131  0.0579 -0.1336 -0.1766
28059W        W44133   3.469  11.159   0.688  0.0388  0.0675  0.0842
28060W        W44134   5.290  19.075   3.935  0.0542  0.2216  0.3812
28061W        W44135  18.704   6.971   2.739 -0.0814 -0.0299  0.4194
28062W        W44136   7.473  14.707  11.911 -0.1112 -0.3984  0.0798
28063W        W44137   7.123  12.112   1.614  0.3894  0.0051 -0.2495
28064W        W44138  10.205  13.764  10.825  0.2660 -0.1539  0.2204
28065W        W44139   4.307  10.656   4.954  0.2524  0.0632  0.1529
28066W        W44140  18.512  13.469   3.100 -0.1731  0.2328  0.1569
28067W        W44141   1.518  16.395  13.147 -0.2180 -0.3117 -0.1341
28068W        W44142  17.650  19.272   3.560 -0.1462 -0.0206 -0.2832
28069W        W44143  12.791   7.946   4.577  0.2708 -0.3779 -0.0326
28070W        W44144   2.195  18.563  11.588 -0.0263 -0.1391  0.0101
28071W        W44145   6.062   5.104  12.482 -0.0505 -0.2353 -0.1438
28072W        W44146   3.443  14.539  14.547  0.1241  0.0710 -0.1880
28073W        W44147   9.824   2.226  13.699 -0.1529 -0.1568 -0.2005
28074W        W44148   6.556  16.131   3.249  0.2389  0.2201  0.0637
28075W        W44149  15.582   7.556   3.711  0.1796  0.4803 -0.0396
28076W        W44150   2.931   3.937   3.559  0.1368  0.2482  0.1143
28077W        W44151   1.983  10.910   3.616  0.0145  0.0746  0.2059
28078W        W44152   0.096  13.334  11.248 -0.0893  0.0557  0.0905
28079W        W44153   7.158  12.321   4.387 -0.1664 -0.2073  0.1590
28080W        W44154  12.348  16.504  11.788 -0.0419  0.1495 -0.0026
28081W        W44155   7.404  10.371   4.912  0.2692  0.0183  0.3521
28082W        W44156  17.128   2.324   1.622  0.2943  0.0182  0.3227
28083W        W44157   1.555   3.531   3.712  0.0977 -0.1405 -0.2062
28084W        W44158   1.596  16.508   3.424  0.0852  0.2298  0.2080
28085W        W44159  12.606  17.254  13.269  0.1210  0.1104  0.1162
28086W        W44160  17.557   1.949  10.622  0.2967  0.1677 -0.1084
28087W        W44161  14.222   1.483   2.058 -0.2601 -0.1050  0.1304
28088W        W44162   0.737  12.107  12.480 -0.0129 -0.1449 -0.1046
28089W        W44163   2.126   0.786  13.930  0.3851  0.1500  0.1900
28090W        W44164   1.443  13.791  14.550  0.3366 -0.0153  0.0893
28091W        W44165  10.577   4.471  14.587  0.1132  0.0993 -0.0771
28092W        W44166   0.312  10.972   4.357 -0.0648 -0.0164 -0.0538
28093W        W44167   8.685  17.851  14.343 -0.1551 -0.2999 -0.5385
28094W        W44168   9.519  13.452   0.880  0.0694  0.0316  0.4993
28095W        W44169   9.108   1.260   1.469 -0.1152  0.1090 -0.1064
28096W        W44170  13.753   3.078   0.517 -0.2837  0.0497 -0.0678
28097W        W44171  15.344  11.587  14.515 -0.1768 -0.0702  0.1401
28098W        W44172  16.594  10.314  12.909  0.3405  0.0188  0.0432
28099W        W44173  11.614  16.283   2.090 -0.3509 -0.1235  0.0077
28100W        W44174   9.835  11.323  13.385  0.1275 -0.0480  0.4224
28101W        W44175  12.659  10.648   0.892 -0.0948  0.1631 -0.1721
28102W        W44176  15.853  16.377   0.587 -0.1707 -0.0915 -0.1015
28103W        W44177   0.114   8.358  14.871  0.0991  0.4292 -0.2042
28104W        W44178   5.036   1.728   1.603 -0.2651 -0.3326  0.0530
28105W        W44179  15.352   8.079   1.174 -0.0108  0.0541  0.3339
28106W        W44180  15.110   2.960   5.683 -0.1166  0.1860  0.1012
28107W        W44181  10.175  15.571   3.055 -0.0025 -0.0241  0.0352
28108W        W44182  14.518  16.132  10.936 -0.1103  0.1207  0.2201
28109W        W44183  10.418   9.461   0.524 -0.0092  0.0538  0.4455
28110W        W44184   8.635  10.911   0.604  0.3597 -0.3847 -0.2095
28111W        W44185   9.794   2.880  10.497  0.0978 -0.0966  0.0677
28112W        W44186   5.992   6.131  11.426 -0.1649  0.3444 -0.1350
28113W        W44187   3.325   8.984   4.093  0.0536  0.2848 -0.0359
28114W        W44188   2.006   2.776  14.700 -0.1739 -0.2693 -0.0684
28115W        W44189   8.527  12.953  11.621  0.1493  0.1286  0.0394
28116W        W44190   6.483  14.344   3.981 -0.2668 -0.0896 -0.1153
28117W        W44191  13.385  13.057   4.502 -0.5254 -0.0370  0.2627
28118W        W44192  12.436   8.582  10.663 -0.1687  0.0187  0.6105
28119W        W44193   3.059   7.783  12.824 -0.1942 -0.2191 -0.0388
28120W        W44194  12.149  12.427   9.414 -0.3661 -0.1320 -0.0701
28121W        W44195   8.806   7.318   1.011  0.1017  0.1124  0.3994
28122W        W44196  18.063  12.508   5.164 -0.2783 -0.2049  0.0270
28123W        W44197   6.104  10.025   4.564 -0.0770  0.1110  0.1320
28124W        W44198  19.331  18.102   3.610 -0.1805 -0.0725  0.0266
28125W        W44199   8.642   0.714  12.792  0.2887 -0.2896 -0.0036
28126W        W44200  18.895  13.223   3.189 -0.1917 -0.0142 -0.0465
28127W        W44201   7.012  18.523  10.710  0.2972  0.2045  0.0653
28128W        W44202   1.076  18.281   3.891 -0.1044  0.0404 -0.2289
28129W        W44203   0.353   1.151   0.866 -0.0454  0.2006 -0.0383
28130W        W44204   1.287   2.912   2.664 -0.0465  0.0523 -0.1107
28131W        W44205  18.442   7.300   4.521 -0.1262 -0.3255 -0.0564
28132W        W44206   0.308   5.999  11.252  0.0392 -0.1221  0.2534
28133W        W44207   4.212   7.045   0.335 -0.0782 -0.0034  0.0901
28134W        W44208  10.759  13.277   0.159  0.1337 -0.1570 -0.1033
28135W        W44209   2.481  12.691  14.715  0.1062  0.3090  0.2672
28136W        W44210   0.621  16.259  12.428  0.3084  0.0924 -0.0952
28137W        W44211  15.755   8.600  12.211 -0.1314  0.0533  0.0678
28138W        W44212  12.350   5.924   9.552 -0.0298  0.0936  0.1852
28139W        W44213   6.813   1.694   3.738 -0.2422  0.0710 -0.1698
28140W        W44214  16.452  11.628  11.223 -0.4533 -0.2692 -0.0064
28141W        W44215  14.788   0.489   0.947  0.0971  0.0233  0.2567
28142W        W44216  16.541   8.044  11.107  0.1838  0.1108  0.4141
28143W        W44217  18.969  13.527   2.553  0.1612  0.1688  0.3953
28144W        W44218   7.289  13.705  11.660  0.3247 -0.0384  0.0779
28145W        W44219   3.238  15.289   0.611 -0.0405 -0.3124 -0.1791
28146W        W44220  18.048   0.003   5.656 -0.2307  0.2552  0.2167
28147W        W44221   9.991  18.447  13.530 -0.0129 -0.0990 -0.3185
28148W        W44222  16.667  11.099   3.224  0.1375 -0.1527  0.3311
28149W        W44223  16.774   9.953  13.204 -0.0083  0.3398 -0.0418
28150W        W44224  19.247  16.429   4.508 -0.1930  0.0492  0.1904
28151W        W44225   9.182  17.992   2.646  0.0006 -0.1485 -0.0067
28152W        W44226   7.537  12.921  10.650  0.4043 -0.1769 -0.0507
28153W        W44227  12.063   4.873   5.813  0.0572  0.0537  0.4169
28154W        W44228   7.132   5.659  14.311  0.1598 -0.0314 -0.1149
28155W        W44229   3.263  14.468  12.296  0.0725 -0.0709 -0.3277
28156W        W44230  17.537  12.217   4.908  0.0001  0.0950  0.1027
28157W        W44231   0.558   2.214   1.837  0.0866  0.3793  0.0233
28158W        W44232   1.429  15.186  10.142  0.0928 -0.1052  0.1068
28159W        W44233   1.453   9.982   2.248 -0.1132 -0.2230 -0.2134
28160W        W44234   6.602   8.202   4.133  0.4192  0.0698 -0.1959
28161W        W44235   2.936   5.051  13.969  0.3741  0.1342  0.0573
28162W        W44236  12.026   0.834  14.358 -0.2384 -0.0502  0.2307
28163W        W44237  11.075  11.690  13.359  0.6345 -0.2044  0.0731
28164W        W44238  15.177   2.684   3.883 -0.0317 -0.2888  0.0023
28165W        W44239  15.642   9.207   1.012 -0.2304 -0.0279 -0.1176
28166W        W44240   6.455  10.214   3.144 -0.0654 -0.3153 -0.1592
28167W        W44241  12.504  19.061   1.233 -0.5084  0.1801 -0.2131
28168W        W44242   6.251  15.622   1.359 -0.1086  0.0095  0.1427
28169W        W44243   6.732  10.338  14.146  0.0851  0.1172  0.0240
28170W        W44244  16.620  16.746   1.018  0.3505 -0.1606 -0.2221
28171W        W44245   0.379  17.914   4.650  0.1391  0.0624 -0.0776
28172W        W44246  12.487   9.244   4.227 -0.2256 -0.0788  0.0861
28173W        W44247   9.501   9.614   0.474 -0.1767 -0.4815  0.2430
28174W        W44248  11.960   5.488  12.477  0.1428 -0.1935  0.0000
28175W        W44249   9.015   8.524  10.559 -0.0639 -0.3135  0.2956
28176W        W44250  18.885  11.437  14.304  0.2775  0.0098  0.0070
28177W        W44251   9.693  14.960  14.425  0.1209  0.2136  0.6907
28178W        W44252   7.326   8.805  13.367 -0.1050 -0.0051  0.2478
28179W        W44253  17.433  18.377   5.621 -0.0385 -0.2219  0.2372
28180W        W44254   9.686  14.315   4.725  0.2591 -0.1540  0.3237
28181W        W44255  18.937  18.227   2.584  0.2017 -0.0393 -0.2605
28182W        W44256   8.602  18.803  14.838 -0.2823 -0.3012  0.1710
28183W        W44257   6.798   8.208   0.928  0.1146  0.0276 -0.1816
28184W        W44258   8.295   5.892   3.294 -0.2956  0.2119 -0.0886
28185W        W44259   9.555   3.055   1.033 -0.0633 -0.4688 -0.0428
28186W        W44260   9.070  12.988  11.513 -0.2634 -0.0683 -0.0311
28187W        W44261   3.936   3.410   5.028 -0.1181 -0.0723 -0.0829
28188W        W44262   1.037  16.811   5.173 -0.1105  0.0595  0.3044
28189W        W44263   9.780  14.629  13.454  0.5085 -0.3178  0.4100
28190W        W44264   6.473   7.324   5.373 -0.0862  0.2520  0.0469
28191W        W44265  12.051   3.187  10.979 -0.2426 -0.2105 -0.0359
28192W        W44266  10.171  17.024  12.856  0.1196  0.0810 -0.0674
28193W        W44267   3.092   8.428   1.735  0.0033 -0.1746 -0.0067
28194W        W44268   1.249  17.383   3.377  0.2279 -0.3216 -0.2618
28195W        W44269  13.272   2.244   1.684  0.1313 -0.2064  0.2168
28196W        W44270   9.139  13.956  14.178  0.1626  0.1860  0.2865
28197W        W44271  11.599   8.879   4.360 -0.0587  0.0458 -0.2487
28198W        W44272  14.039  19.052   1.754  0.4251 -0.1774  0.0466
28199W        W44273  17.713  18.880  14.959  0.1001  0.0306 -0.0740
28200W        W44274   8.108  15.371   0.269 -0.2569 -0.1346 -0.0529
28201W        W44275   0.625  18.918  14.810  0.1186 -0.1004  0.1727
28202W        W44276  15.864  18.634  11.878  0.1526  0.1083 -0.0093
28203W        W44277  17.910   7.102   4.441  0.1616  0.2336  0.0400
28204W        W44278   0.620   2.866   1.430 -0.2116  0.2810 -0.0591
28205W        W44279   1.996  13.119  11.759 -0.1305 -0.4494 -0.0206
28206W        W44280   1.271   9.011   1.472  0.1808 -0.0580  0.2762
28207W        W44281   0.554   3.328   0.093  0.0932 -0.1307  0.0750
28208W        W44282  18.821   0.840  14.332 -0.3011  0.3856 -0.2428
28209W        W44283   3.705   4.488  12.181  0.0431 -0.2910 -0.1999
28210W        W44284   2.323   4.680   4.322 -0.0243  0.0697 -0.1248
28211W        W44285   6.491  10.596  13.218  0.1486 -0.0901 -0.0130
28212W        W44286   6.684   9.981   2.399  0.0834  0.1880  0.1603
28213W        W44287   5.886   8.684  10.812  0.2452  0.0327  0.0748
28214W        W44288  13.193  10.545   3.776 -0.2564  0.3625 -0.0564
28215W        W44289  11.361  10.468  10.217 -0.2398 -0.3674 -0.1379
28216W        W44290   5.262  13.689  13.971 -0.0241 -0.1679  0.1912
28217W        W44291   5.893  16.179  12.174 -0.4840 -0.0260  0.0433
28218W        W44292   9.591  19.148   5.514  0.0957  0.0461  0.1698
28219W        W44293  15.879   1.668   0.175  0.0578 -0.1999  0.1676
28220W        W44294  16.545  12.031   2.511 -0.0908  0.0209 -0.0009
28221W        W44295  12.749   7.379   4.078  0.0508 -0.0769 -0.1435
28222W        W44296   0.254  15.668  13.144 -0.1022 -0.1668  0.2024
28223W        W44297  10.394   7.907   1.784  0.1505  0.4342 -0.0540
28224W        W44298  18.431   4.706   4.941  0.2007  0.0623 -0.1139
28225W        W44299  13.220  13.930  14.489  0.0217  0.0712 -0.4799
28226W        W44300  19.123  15.715  11.145  0.0413 -0.1531  0.1025
28227W        W44301   4.466   4.892   0.667 -0.3020  0.4120  0.3527
28228W        W44302  11.509  13.129   2.252  0.1792  0.0615  0.1672
28229W        W44303  12.470  18.297  11.919  0.0414 -0.1587  0.0310
28230W        W44304  16.657  16.963  10.755 -0.2700 -0.0590  0.0153
28231W        W44305   0.984   7.746   3.160  0.1909  0.2313 -0.1195
28232W        W44306   3.524   6.125  10.738  0.0750 -0.0223  0.2485
28233W        W44307  17.734   9.579   4.189  0.0283  0.0387  0.0721
28234W        W44308   1.410  13.264  14.186  0.0583 -0.0648  0.0864
28235W        W44309  15.854  17.627   0.901  0.0973 -0.0978 -0.0558
28236W        W44310  10.711   8.241  13.204 -0.0252  0.2394 -0.1374
28237W        W44311  15.526  18.901   4.231  0.2668  0.1249  0.3633
28238W        W44312   8.792  16.618   3.581 -0.0339  0.0417  0.0309
28239W        W44313  11.609  17.191   0.458 -0.2186 -0.4188  0.2340
28240W        W44314   0.029  16.594  10.376  0.4716 -0.0995 -0.1168
28241W        W44315  15.837  12.998   2.001 -0.0209  0.0623 -0.1349
28242W        W44316   6.628  13.156   0.348 -0.0431 -0.0629  0.0184
28243W        W44317   3.162  15.230  11.598 -0.2071  0.1077 -0.1257
28244W        W44318   4.915  12.944  11.100 -0.2649 -0.2339 -0.0820
28245W        W44319   4.953   0.232  12.844 -0.1110  0.3798 -0.1547
28246W        W44320  12.321  13.841   3.136 -0.2107  0.0863 -0.0402
28247W        W44321   3.298  15.787   2.786 -0.2937  0.0058  0.0719
28248W        W44322  10.420   3.483  12.627 -0.3284  0.2988  0.0669
28249W        W44323   7.694   7.876  13.956  0.0450  0.3132  0.3614
28250W        W44324   2.866  17.045  12.189 -0.3555 -0.0608 -0.1449
28251W        W44325  18.486   2.679  14.677 -0.1905  0.3103 -0.0250
28252W        W44326  13.203   2.107   2.726  0.0196  0.0046  0.0255
28253W        W44327   5.839  10.763   2.716  0.1257 -0.0772 -0.0997
28254W        W44328  12.622  12.232   1.282 -0.1694 -0.0795  0.0758
28255W        W44329   8.093   3.616   1.118  0.0450 -0.0023 -0.0068
28256W        W44330   1.796  10.437  14.877 -0.1319  0.0548 -0.2867
28257W        W44331  17.972   3.641   4.353  0.2014 -0.0866 -0.1285
28258W        W44332   6.075   6.918   1.313 -0.0075  0.1779 -0.1541
28259W        W44333  19.055   5.752   0.705  0.0763 -0.0161  0.0620
28260W        W44334   5.450  14.846  11.235  0.0115 -0.1377  0.0607
28261W        W44335  16.344  17.597  13.295  0.1467 -0.2807 -0.0346
28262W        W44336   0.537  10.078  13.516  0.1734 -0.0578 -0.0973
28263W        W44337  14.429  17.474  10.491  0.1343 -0.4129  0.2399
28264W        W44338   8.282  14.199  12.024 -0.0156 -0.2639 -0.1824
28265W        W44339   0.856   3.377   0.474 -0.1613  0.0069  0.4853
28266W        W44340   2.171   6.323  11.158  0.0764 -0.1613 -0.3124
28267W        W44341   2.420   2.551   0.160  0.1940  0.0121 -0.1329
28268W        W44342  15.950   6.248   3.912  0.1278 -0.4326 -0.3942
28269W        W44343  18.702  15.575  13.901  0.0257  0.2044  0.2587
28270W        W44344   8.950  11.605   1.314 -0.1291 -0.1174 -0.1712
28271W        W44345   7.657   7.001   4.595  0.2877  0.0575 -0.0657
28272W        W44346   6.817   9.975   4.082 -0.2708  0.4623  0.4827
28273W        W44347   9.987   8.365   3.115  0.0223 -0.0954  0.1404
28274W        W44348   0.774  17.146  10.622  0.3866  0.0573  0.1236
28275W        W44349  12.569   5.351   0.729 -0.5004 -0.1364  0.1676
28276W        W44350   2.429  15.308   1.192 -0.1932 -0.3387  0.0400
28277W        W44351  11.376  13.324   4.870 -0.1772 -0.3298  0.2838
28278W        W44352  18.441  11.570  13.303  0.1907  0.1151 -0.0611
28279W        W44353  10.455   4.758   3.616  0.0735 -0.0744  0.2223
28280W        W44354  15.612   1.582   1.950  0.1148  0.1497  0.1853
28281W        W44355  17.081   5.249  13.258 -0.2674 -0.4384 -0.0359
28282W        W44356   0.343   0.754   1.909 -0.1813  0.1825  0.3105
28283W        W44357   8.060  15.820   3.490 -0.2114 -0.0611  0.2966
28284W        W44358  16.330  16.010  14.396  0.1751 -0.0528 -0.0813
28285W        W44359   3.152   0.708   0.159  0.1404  0.1555 -0.0876
28286W        W44360   8.902  15.611   3.847 -0.3024 -0.2657  0.1214
28287W        W44361   9.984   0.727  13.628 -0.2292  0.2135  0.2955
28288W        W44362  10.843   8.803  13.433  0.0910 -0.1435 -0.0020
28289W        W44363   7.663   6.161  11.269 -0.2338  0.1253  0.0072
28290W        W44364   5.360  17.097  12.473 -0.1807  0.1855 -0.2703
28291W        W44365  16.673  19.168   5.155 -0.0093  0.1477 -0.0172
28292W        W44366   0.954  11.356   0.822 -0.0506 -0.0339 -0.3420
28293W        W44367   9.378   7.655  10.853 -0.0303  0.1482  0.3292
28294W        W44368   0.427   2.947   4.388 -0.0853  0.0220  0.3035
28295W        W44369   7.418   5.010  12.217 -0.0069  0.0155 -0.1505
28296W        W44370   7.835   3.021   5.197  0.0191  0.2672 -0.1394
28297W        W44371   2.288   7.911   4.861  0.2071  0.1492  0.1700
28298W        W44372  13.630   6.251   3.094 -0.1067 -0.2133  0.2856
28299W        W44373  10.081  15.307  14.192  0.0526  0.0003  0.3904
28300W        W44374  14.438  15.368   4.244 -0.1086  0.3907 -0.0416
28301W        W44375  10.764   2.031   0.156  0.1818 -0.1023 -0.2110
28302W        W44376  15.711  11.385  12.549 -0.2663 -0.1665  0.1801
28303W        W44377  18.803  17.605   0.652  0.0351 -0.3746 -0.1169
28304W        W44378   9.716   4.127   1.524 -0.1287  0.0289 -0.0706
28305W        W44379   2.096   1.622  14.660 -0.1579  0.0430  0.0579
28306W        W44380   9.934   0.003  12.301  0.2485  0.2153 -0.3526
28307W        W44381   6.076  10.162  13.952  0.0575 -0.0421 -0.1268
28308W        W44382   7.709  16.474   2.931  0.0894  0.2903 -0.0831
28309W        W44383   0.190  16.781  12.413 -0.1444 -0.1406  0.1393
28310W        W44384  18.251   6.244   4.222 -0.0654 -0.2921 -0.1521
28311W        W44385   8.688  16.664   5.196 -0.0854  0.1126  0.1130
28312W        W44386   6.958  10.291   1.100  0.1510  0.3689  0.5279
28313W        W44387  13.875   0.766   0.690 -0.2512  0.2811 -0.3613
28314W        W44388  18.159  14.610   0.054 -0.3470 -0.0654 -0.1161
28315W        W44389  11.378   0.423   3.773 -0.1039 -0.0085  0.0821
28316W        W44390   7.150  16.294   1.535  0.2514  0.2026  0.0176
28317W        W44391   7.681   3.241  12.454  0.1172  0.1561  0.0266
28318W        W44392  14.553  12.552  13.159  0.0495  0.1713 -0.1337
28319W        W44393  18.308  16.383   3.187  0.4311 -0.0729 -0.2042
28320W        W44394   8.397  11.942  14.775 -0.2500  0.1612 -0.2132
28321W        W44395   2.803  11.104   1.996 -0.3545 -0.3282  0.1174
28322W        W44396   3.579  18.998   1.211  0.0575 -0.0625  0.0442
28323W        W44397  15.328  12.214   5.301  0.2021 -0.4599  0.3046
28324W        W44398  12.053   7.871   0.727  0.0631 -0.0072  0.4703
28325W        W44399   6.229   3.017  10.241  0.4385  0.0297 -0.0387
28326W        W44400   6.613   1.734   1.202 -0.2686 -0.0208 -0.1223
28327W        W44401   5.839  14.829  14.744 -0.3097 -0.2982 -0.0756
28328W        W44402  18.357  10.555  11.249 -0.0620  0.2412  0.1245
28329W        W44403   8.041   3.715  14.670  0.2669  0.1086  0.0121
28330W        W44404   2.712   7.835   4.575  0.0648 -0.2626  0.4655
28331W        W44405   6.469   1.694   1.744 -0.0857 -0.0062  0.1140
28332W        W44406   8.072   2.183  14.095 -0.4078 -0.0067 -0.0041
28333W        W44407   5.399  11.017  13.900  0.2909  0.0601 -0.0518
28334W        W44408   6.010  14.591   0.445  0.2067  0.2581  0.1041
28335W        W44409   6.479  12.906   1.393 -0.0624  0.0150 -0.0888
28336W        W44410   2.605  12.600   5.238  0.2196  0.1065 -0.1090
28337W        W44411   8.723  13.489   9.887 -0.0963  0.0311  0.1188
28338W        W44412   8.417   4.579  11.445 -0.3735 -0.3629 -0.2995
28339W        W44413   6.622   7.672   4.419 -0.0997  0.3201  0.2262
28340W        W44414   8.739  17.752   1.909 -0.0116  0.0179  0.1270
28341W        W44415  15.209   0.440   9.976  0.0257  0.0595 -0.1753
28342W        W44416  14.432   5.254  13.807  0.3122  0.3058 -0.2161
28343W        W44417   1.495  10.065  13.027  0.2102 -0.1543  0.1011
28344W        W44418  12.578   9.937  12.902 -0.1607  0.1784  0.1308
28345W        W44419  17.190  17.418   0.839  0.0097  0.1715  0.0242
28346W        W44420  16.424   8.165   0.483 -0.0926 -0.3062 -0.0307
28347W        W44421  12.817   1.575   4.802  0.2008  0.0321  0.4221
28348W        W44422  19.020  13.315   4.374  0.2977 -0.0189 -0.1377
28349W        W44423  10.337   2.790  10.614  0.1867  0.0114 -0.0756
28350W        W44424  13.283  10.639  12.359  0.3161 -0.1879 -0.3280
28351W        W44425   7.813   1.660   3.809 -0.3055  0.0428 -0.1216
28352W        W44426  14.683   0.531  13.147 -0.0448  0.0994  0.3998
28353W        W44427   7.264  12.961  13.397 -0.1305 -0.2261 -0.1072
28354W        W44428   3.491  12.481  11.992 -0.4015 -0.0361 -0.1195
28355W        W44429   7.502   9.928  14.423  0.2092  0.0274 -0.0159
28356W        W44430   5.348   2.945   1.656 -0.1919 -0.0923 -0.0598
28357W        W44431   7.797   7.208   2.739  0.0284  0.3155  0.3446
28358W        W44432   9.376  16.539   1.375 -0.0093 -0.0670  0.2828
28359W        W44433  14.538   1.874  13.527 -0.2493 -0.0872 -0.1053
28360W        W44434  10.416  16.255   0.936  0.2567  0.0714 -0.4070
28361W        W44435   8.150   9.454   2.549 -0.0696 -0.0056  0.2815
28362W        W44436  10.850  10.731  14.812 -0.1738  0.1279  0.2902
28363W        W44437   0.836   4.680   0.281 -0.2959  0.1570  0.1854
28364W        W44438  16.585  17.187   0.132  0.0147 -0.0115  0.3287
28365W        W44439   9.981  19.232  10.503  0.0558  0.1245  0.1576
28366W        W44440  16.587   1.555   5.264  0.0595 -0.2238 -0.2215
28367W        W44441  13.837  12.192  14.842 -0.0687  0.0496  0.3027
28368W        W44442   2.487   9.721  11.474  0.4690 -0.2387 -0.2161
28369W        W44443  15.759  14.184   5.663  0.1220 -0.0291 -0.1149
28370W        W44444   6.339   9.708   3.222 -0.0998  0.2971  0.0277
28371W        W44445   7.603   5.480  14.406  0.0525 -0.1193 -0.0464
28372W        W44446  17.217  17.844   3.399 -0.2848  0.1878  0.0542
28373W        W44447   6.055   8.117   1.771  0.3066 -0.3418 -0.0022
28374W        W44448   4.687   4.525   0.364 -0.1551 -0.0834 -0.0828
28375W        W44449  15.797  10.371  13.964 -0.0739 -0.1528 -0.1049
28376W        W44450  10.330   6.880  12.305  0.1277  0.0197 -0.1308
28377W        W44451   1.496   1.106   2.716 -0.2620 -0.1415 -0.2736
28378W        W44452  10.776   0.387   4.776 -0.0307  0.1289 -0.2470
28379W        W44453   4.338  16.987   0.061  0.0468 -0.0264 -0.4315
28380W        W44454   5.775  15.403   3.771  0.0313 -0.1339 -0.1212
28381W        W44455   1.375  18.403  14.123  0.0269  0.1299  0.1261
28382W        W44456   0.898   5.717   3.719 -0.3184 -0.0411  0.0047
28383W        W44457  13.199  13.938   4.768 -0.0672  0.0350 -0.0217
28384W        W44458   4.683   4.488  14.240 -0.0363  0.1869 -0.0271
28385W        W44459   2.656  16.580  11.167 -0.1076  0.4212  0.3389
28386W        W44460   3.252  16.002  11.536 -0.1075 -0.0434 -0.1532
28387W        W44461   0.845  13.509  14.906 -0.1971 -0.0447 -0.1069
28388W        W44462   3.695  11.890   2.557  0.1928 -0.0545 -0.1101
28389W        W44463  18.565   8.732  14.763 -0.0158  0.1645  0.0658
28390W        W44464  10.519  10.336  14.944  0.7022 -0.1033 -0.1038
28391W        W44465   5.552   8.868  12.544 -0.2011  0.1864  0.1710
28392W        W44466  15.166  15.231   4.231  0.1608 -0.2945  0.1994
28393W        W44467  12.999   0.437   3.110  0.3427 -0.1903 -0.1396
28394W        W44468  17.293   6.273   4.617  0.3176 -0.2798 -0.1981
28395W        W44469   8.074  17.801   0.797 -0.1081  0.2785 -0.2079
28396W        W44470   3.207   9.946  11.310 -0.0069  0.1121 -0.2907
28397W        W44471   1.914  17.789  11.288  0.1339  0.0488  0.0088
28398W        W44472   8.451  15.324   2.700 -0.0594 -0.1239  0.0573
28399W        W44473   1.981   2.984  12.911 -0.0260  0.0316  0.0866
28400W        W44474  13.660   7.251   4.977 -0.4239  0.0716 -0.0401
28401W        W44475   7.357   7.801  14.494  0.0521 -0.0588  0.2673
28402W        W44476   6.507   8.265   1.735 -0.0629  0.0484 -0.1428
28403W        W44477   5.825   0.218  10.798 -0.1215  0.1541 -0.1665
28404W        W44478   3.424  10.413  11.290 -0.2671  0.3045 -0.1961
28405W        W44479   8.073  12.923  11.834  0.0453 -0.1797 -0.2958
28406W        W44480  10.177   4.324   1.473 -0.2873 -0.1643  0.0234
28407W        W44481  13.091   1.639   5.599 -0.0757 -0.2176 -0.2436
28408W        W44482  11.475  10.866   1.987  0.0721 -0.1265  0.0586
28409W        W44483  12.257   5.993   1.792 -0.1128  0.0813 -0.1152
28410W        W44484   2.792   6.442   2.835 -0.3905  0.0654  0.1275
28411W        W44485   7.643  10.056   5.342 -0.0830 -0.1832  0.0054
28412W        W44486   1.319  11.988   1.649  0.1960 -0.0264  0.0918
28413W        W44487  16.550  16.466   0.216 -0.0980  0.2058  0.2238
28414W        W44488  16.915   6.901  11.866  0.1660  0.1534 -0.2337
28415W        W44489  12.677   4.021   0.026  0.0027 -0.0257 -0.3172
28416W        W44490  10.608   7.290   3.294 -0.2415 -0.2035  0.3423
28417W        W44491  10.614   1.440  13.880  0.2162 -0.0648 -0.0041
28418W        W44492  16.128   5.216  13.117 -0.0493 -0.0742 -0.0760
28419W        W44493  12.349   8.021   2.934 -0.2957  0.0674 -0.4941
28420W        W44494  13.359  14.950  14.210 -0.0751  0.1439  0.1382
28421W        W44495   5.554   8.309   2.496 -0.1239 -0.3091 -0.0873
28422W        W44496   2.264  18.381   1.818  0.2685  0.0797  0.0151
28423W        W44497  15.586   3.311  14.336  0.0010  0.0369 -0.3375
28424W        W44498  18.331   0.787   5.288 -0.1672 -0.1084 -0.2145
28425W        W44499   3.140   7.943   1.489  0.4215  0.0698  0.2551
28426W        W44500  10.289  11.099  13.799  0.1689  0.2215 -0.3197
28427W        W44501  12.922  14.805   0.705 -0.2088  0.4045  0.4062
28428W        W44502  19.241  16.502  13.376 -0.0636 -0.0346  0.1617
28429W        W44503  10.449   5.361  14.260  0.0758  0.2406 -0.1423
28430W        W44504  17.183   4.167   2.891 -0.2346  0.0086 -0.2478
28431W        W44505   8.931  19.014   2.221  0.2069 -0.0860  0.0288
28432W        W44506   4.897   5.499   2.309 -0.0733  0.1461 -0.1030
28433W        W44507  17.985  14.264   3.180 -0.2225  0.0542  0.1862
28434W        W44508   1.322   8.857   2.409  0.0893 -0.1491  0.1460
28435W        W44509   1.778  10.824   2.208 -0.1213 -0.1701 -0.2652
28436W        W44510   7.580   7.487  12.532  0.0285  0.1577  0.3495
28437W        W44511  14.280   1.971   2.045 -0.1907  0.1082  0.0221
28438W        W44512   4.764  17.114   2.534 -0.3548 -0.0513 -0.0626
28439W        W44513   1.613  14.501   0.576 -0.1438 -0.0786  0.0534
28440W        W44514   4.069   8.632  12.351 -0.0946 -0.0800  0.2229
28441W        W44515   0.878  13.729  14.442  0.2229 -0.0309 -0.1835
28442W        W44516  16.370  16.311   2.413  0.3035 -0.1843 -0.2558
28443W        W44517   8.678  10.770   2.192  0.0273  0.4049 -0.4572
28444W        W44518  13.923  11.565   2.176 -0.4772  0.1057 -0.0744
28445W        W44519  15.022  12.545  14.039 -0.2416  0.2373  0.1409
28446W        W44520   0.076   8.892   0.520  0.0499  0.3257  0.1391
28447W        W44521  11.488   8.792   1.466  0.0007  0.0105  0.3273
28448W        W44522  13.421   0.793   4.712 -0.0063  0.0735 -0.0993
28449W        W44523  18.567   2.235  14.006 -0.2595 -0.3044  0.0577
28450W        W44524   1.922   4.608   0.777 -0.0691 -0.0889 -0.1569
28451W        W44525  10.360  10.369   3.297 -0.2336 -0.5277 -0.1570
28452W        W44526  18.556   7.085  12.800 -0.1898 -0.0855 -0.4131
28453W        W44527   2.473   8.387   1.041 -0.1498  0.1398 -0.1868
28454W        W44528   2.283  16.157   2.629  0.3043 -0.0821 -0.2059
28455W        W44529   8.696  12.795   1.144  0.1331 -0.3362  0.0435
28456W        W44530   8.007  16.094  14.473 -0.1183  0.2406  0.0206
28457W        W44531   6.565   2.622   4.529  0.1567 -0.0050  0.1981
28458W        W44532   0.867   6.357   4.942  0.2045 -0.0972  0.4534
28459W        W44533  15.313   5.297  12.847  0.1796 -0.1296 -0.2629
28460W        W44534   5.338   9.422  12.617 -0.4029 -0.0687 -0.0999
28461W        W44535   6.646   8.256   0.029  0.0326 -0.1908 -0.1647
28462W        W44536   4.238   4.859  10.639 -0.1604 -0.1807 -0.0140
28463W        W44537   7.247  19.258   0.081  0.0247  0.2072  0.3876
28464W        W44538   8.861   6.572   2.645  0.1477  0.1975 -0.0100
28465W        W44539   8.492   1.469  12.607  0.1647  0.1500 -0.0202
28466W        W44540  18.206   7.276   0.181  0.1564  0.0077  0.1060
28467W        W44541   5.040   2.047   2.193  0.0648 -0.0099  0.0025
28468W        W44542  14.440  14.277  13.669  0.1418  0.3048 -0.0977
28469W        W44543  17.686   4.863   5.568  0.1165  0.2517  0.3288
28470W        W44544   4.770   7.831  14.167 -0.2382 -0.1276  0.0085
28471W        W44545  14.482  18.662  14.848  0.0280  0.0402  0.0163
28472W        W44546  10.400   8.903  12.731 -0.1548 -0.1218  0.2667
28473W        W44547   1.873   7.466   0.822  0.5350  0.1633 -0.4056
28474W        W44548   5.252  16.002  14.660 -0.0053 -0.0445  0.0095
28475W        W44549  14.484   3.242  14.082 -0.1406  0.2335  0.1939
28476W        W44550   1.841  18.319  14.319  0.1287 -0.1109  0.2956
28477W        W44551  11.461   2.685   0.799 -0.1918  0.2477  0.3626
28478W        W44552  17.092  18.968  12.788 -0.2726  0.1236  0.1096
28479W        W44553  18.562  15.843  14.894 -0.0802  0.2603  0.1041
28480W        W44554  10.898  16.589   0.868  0.1398 -0.0968  0.4306
28481W        W44555   0.004   5.166   0.089 -0.1023  0.0850 -0.0846
28482W        W44556  16.308  10.850  10.949  0.2948  0.1469  0.1043
28483W        W44557  12.864  10.734   2.295  0.1624 -0.1748  0.1790
28484W        W44558   4.042   4.874   4.167 -0.1888 -0.1698  0.2348
28485W        W44559  15.463   7.284   0.625  0.2119  0.1360  0.0147
28486W        W44560   0.996  11.741  13.491 -0.1664  0.0501 -0.2021
28487W        W44561   7.677  18.396   5.195  0.2399 -0.2827 -0.2385
28488W        W44562   2.870  10.576  12.897 -0.0562 -0.3375 -0.2726
28489W        W44563  14.075   2.365   2.929  0.0156 -0.0432  0.2798
28490W        W44564   4.738  17.875  13.898  0.0039  0.0251 -0.1031
28491W        W44565   2.368   4.319   3.042  0.0449 -0.1003  0.0683
28492W        W44566  15.382  14.611   4.979  0.0209  0.0795  0.3183
28493W        W44567   3.830  13.650   0.690 -0.1749  0.1614  0.1511
28494W        W44568  11.412   3.599  12.645 -0.0252  0.0738  0.0347
28495W        W44569   2.587   8.769  14.974 -0.1635  0.3969  0.1621
28496W        W44570   4.801  15.287   3.498  0.1658 -0.1743  0.1533
28497W        W44571   2.886   2.203   1.606 -0.1828  0.0527  0.1135
28498W        W44572   4.068   8.514   4.562  0.3902 -0.0976 -0.1028
28499W        W44573   4.000   3.797   2.199  0.1713  0.0326  0.0530
28500W        W44574   3.410   0.042  11.304 -0.0607 -0.1512  0.0463
28501W        W44575   6.086   2.339   3.432  0.0225 -0.0520  0.4601
28502W        W44576  12.531  13.418   2.217 -0.0773 -0.2010  0.2715
28503W        W44577  15.156  10.241  13.837  0.0210  0.5116  0.0325
28504W        W44578   2.859   6.324   2.349 -0.1606 -0.2634  0.2376
28505W        W44579  17.377  10.117   0.097 -0.0642  0.4364 -0.3219
28506W        W44580  16.988   8.807  12.456  0.2380  0.1200 -0.0996
28507W        W44581  16.838   2.023   0.709 -0.0361 -0.2376 -0.2562
28508W        W44582   3.582   0.823   0.707  0.2255 -0.0199  0.2118
28509W        W44583   9.946  12.414   0.798 -0.3899  0.1683  0.2544
28510W        W44584   8.228   7.182   3.083 -0.0816  0.0416  0.0309
28511W        W44585   6.452  11.404   3.120 -0.0579  0.1838 -0.0667
28512W        W44586  14.770   8.484  11.669  0.2078 -0.4710 -0.1788
28513W        W44587  19.202  13.017   5.838  0.1601 -0.0375 -0.1019
28514W        W44588   4.704   4.157   0.725  0.0182  0.2429  0.1411
28515W        W44589  14.533   8.989   5.445  0.1600 -0.1698 -0.1095
28516W        W44590  11.532   8.278  14.538 -0.0207  0.0995  0.0258
28517W        W44591   7.990   4.826   3.183 -0.0692  0.0064 -0.1629
28518W        W44592   6.858  16.145   0.549  0.0354  0.1593 -0.0197
28519W        W44593  17.996  13.274  12.370  0.0087  0.0722  0.0695
28520W        W44594  12.029  15.861   0.265 -0.2292  0.0258  0.2416
28521W        W44595   7.524  11.624  13.365 -0.0260 -0.4694 -0.3587
28522W        W44596  17.060  10.310   6.071  0.1192  0.1454  0.1085
28523W        W44597   4.926   0.240   1.427 -0.2491 -0.1046 -0.1301
28524W        W44598   2.574   9.432   4.166 -0.2808  0.0246 -0.0545
28525W        W44599   9.267   6.683   2.854 -0.2313 -0.1887 -0.1286
28526W        W44600  17.779   6.006   0.541  0.3455 -0.2497 -0.0129
28527W        W44601  18.160   5.716   0.785  0.1442 -0.2619  0.1876
28528W        W44602  13.745   6.701   3.397  0.0607 -0.2320  0.0971
28529W        W44603  15.216   2.978   0.190  0.1782 -0.0117 -0.0952
28530W        W44604  10.514  19.277   2.120  0.2890  0.0596  0.0929
28531W        W44605   9.169   4.918   1.184  0.1637 -0.1807  0.0050
28532W        W44606  17.350  13.477   5.097 -0.0829  0.3209  0.0072
28533W        W44607   2.230   1.091  11.974  0.0210  0.0902  0.0946
28534W        W44608   2.018  13.752  13.078 -0.2593 -0.2035 -0.1677
28535W        W44609  11.784   4.931   4.868 -0.0843 -0.0171 -0.0070
28536W        W44610   3.137  13.047   1.486 -0.1026 -0.3856 -0.0530
28537W        W44611   2.772   3.904   5.581 -0.1124  0.1877 -0.0015
28538W        W44612  16.757   9.502  11.005  0.0291 -0.2048 -0.2458
28539W        W44613  11.353  13.367  12.235  0.1327  0.0766 -0.1258
28540W        W44614   9.316  18.363   1.598 -0.1566  0.0677  0.0233
28541W        W44615   2.610   2.874  14.840  0.2469  0.3826  0.0712
28542W        W44616   3.161   7.475   3.309  0.1182 -0.1890  0.3389
28543W        W44617  18.186   7.003  14.724 -0.2428  0.1383 -0.0407
28544W        W44618   0.438   7.398   3.931  0.2540 -0.4574  0.0818
28545W        W44619   6.358   8.527   4.501  0.0357 -0.0848  0.0949
28546W        W44620   0.815   2.881  10.366  0.1263  0.1157 -0.2900
28547W        W44621   0.357   1.752   2.685  0.2308  0.0866 -0.0997
28548W        W44622   1.447  14.550   1.668  0.1541  0.1186  0.2692
28549W        W44623  17.850  17.883  10.761 -0.0659 -0.1108  0.3829
28550W        W44624   0.914  13.287   3.085 -0.1128 -0.1942  0.0674
28551W        W44625   2.227   9.806   3.802  0.2128 -0.2070  0.1801
28552W        W44626   9.797   0.485  14.603 -0.1148  0.0991 -0.0667
28553W        W44627   8.123   8.502   3.222 -0.1160 -0.2909  0.0703
28554W        W44628  11.398   9.373   1.051 -0.0438  0.1212  0.0422
28555W        W44629  11.086   1.642  10.474  0.1852  0.0490 -0.0229
28556W        W44630   1.193   6.971   2.346 -0.2198  0.3382  0.1786
28557W        W44631   7.759  13.753  11.825  0.0546  0.0734  0.2764
28558W        W44632  15.202   1.849  14.672  0.2303 -0.0220 -0.0336
28559W        W44633  14.181   0.996   1.199  0.0518 -0.4518 -0.5031
28560W        W44634   4.174  17.307  11.190  0.1114  0.0257 -0.0375
28561W        W44635   5.343  19.002   2.549  0.1231  0.1215 -0.3702
28562W        W44636  11.097  10.254  14.068 -0.0147 -0.0372  0.4725
28563W        W44637   0.089  13.888   1.080  0.0646 -0.0514 -0.0546
28564W        W44638   8.988   0.307  12.994 -0.2483  0.2981  0.3584
28565W        W44639   8.033   7.715   0.112  0.1545  0.0103  0.2633
28566W        W44640   5.693  18.437  10.548 -0.2217  0.0630 -0.1623
28567W        W44641   8.094  19.207  13.369 -0.1007  0.0612 -0.1730
28568W        W44642   6.256  18.023  12.592  0.1897  0.1297  0.0071
28569W        W44643  10.409  17.927   8.795  0.0236  0.0876 -0.0144
28570W        W44644   8.561   7.951  13.299  0.0558 -0.0383 -0.2369
28571W        W44645  15.178   9.412   5.126 -0.0361 -0.1515 -0.0484
28572W        W44646   3.056   6.819   4.445 -0.1925  0.1308 -0.4903
28573W        W44647  16.073   4.916   0.867 -0.3112  0.0707  0.3611
28574W        W44648  11.334   5.469  14.334 -0.0601 -0.0132 -0.0547
28575W        W44649  14.554   5.498  11.243 -0.3935  0.1997  0.1419
28576W        W44650   1.175  19.256  14.902 -0.3297  0.2091 -0.0904
28577W        W44651   1.987  18.675   1.013  0.1692  0.2731 -0.1516
28578W        W44652  15.651   3.166   2.967  0.2769 -0.0202  0.1907
28579W        W44653   5.747  14.055  13.877 -0.0291  0.0204  0.0239
28580W        W44654   0.432   1.981  14.137  0.1581  0.1516  0.3108
28581W        W44655   0.692  16.808  14.158  0.0580 -0.2714 -0.1578
28582W        W44656  18.703   9.729   4.218  0.2075  0.0687  0.1806
28583W        W44657  17.642  14.462  10.766 -0.1661  0.1663 -0.1946
28584W        W44658   9.292   5.935  13.435  0.0027 -0.0854 -0.1018
28585W        W44659   3.528   8.603   4.513 -0.3158 -0.0557 -0.0826
28586W        W44660   4.000   7.964   1.619  0.1027  0.4117  0.2990
28587W        W44661  11.871   9.204   4.089  0.0207 -0.0107 -0.0623
28588W        W44662   7.462  16.591  14.180  0.0107 -0.1608  0.3049
28589W        W44663   4.092  17.755  10.063  0.2541  0.0105  0.2049
28590W        W44664  13.893   3.648  12.803  0.3760  0.1524  0.0891
28591W        W44665   3.396   2.577   0.874 -0.0748 -0.0911 -0.0824
28592W        W44666   7.053  15.143  11.668  0.1298  0.4023 -0.2913
28593W        W44667   5.371  17.129   0.424 -0.1872  0.0608 -0.1474
28594W        W44668   5.805  17.350  12.194 -0.0066 -0.1326  0.0735
28595W        W44669   2.074   0.516  10.783 -0.1231 -0.1078 -0.0441
28596W        W44670   8.181  15.029  12.732  0.2718 -0.3054 -0.1613
28597W        W44671   7.700   6.925   3.565 -0.0408  0.1941 -0.0456
28598W        W44672   4.867  12.502  10.876 -0.0529  0.0984 -0.2737
28599W        W44673   5.842   9.530  10.458  0.1427  0.3275 -0.3241
28600W        W44674  11.410  14.370  11.328  0.0282  0.1994  0.2969
28601W        W44675  19.247  16.251   0.494  0.0537 -0.4716  0.0517
28602W        W44676   7.820   5.697   3.082 -0.0096 -0.1434  0.2336
28603W        W44677   1.952  15.129  10.538  0.1147 -0.1708  0.0122
28604W        W44678   2.822  18.818   4.144 -0.2139  0.0866  0.1236
28605W        W44679  18.132  12.790   2.622  0.0361  0.1291 -0.4975
28606W        W44680  17.359  13.215  14.151  0.0449 -0.0086  0.0163
28607W        W44681   6.296   3.046   0.671 -0.0241 -0.1734 -0.1596
28608W        W44682   6.348  13.859  12.437  0.0087 -0.0022 -0.1655
28609W        W44683   0.450   6.181   4.661 -0.0006 -0.0566  0.4263
28610W        W44684   2.062   2.002  14.076  0.3533  0.3635 -0.3469
28611W        W44685  13.450  17.550  11.020 -0.2208  0.1436  0.1868
28612W        W44686  17.950  15.086   1.462  0.1056  0.0059 -0.1675
28613W        W44687   9.771   6.872   2.871  0.1551  0.3331 -0.4939
28614W        W44688   5.680   7.378   1.933 -0.0379 -0.0640 -0.0292
28615W        W44689   2.488  17.369   4.140 -0.1399 -0.1800  0.0961
28616W        W44690   7.840   6.429   2.165 -0.2745  0.2444  0.4038
28617W        W44691  10.332  18.264  10.077 -0.0063  0.1918 -0.0333
28618W        W44692  11.996   2.707  11.117  0.0943  0.0915  0.1701
28619W        W44693   9.545   5.233  10.404  0.0133  0.1267 -0.3387
28620W        W44694   4.963  13.266  14.191 -0.0020 -0.2901 -0.1891
28621W        W44695  13.194   6.135   3.346 -0.0786 -0.0706  0.1344
28622W        W44696   9.714  19.033   4.590 -0.0540  0.2080  0.1173
28623W        W44697  10.310  16.169  10.385  0.0779  0.1727  0.1610
28624W        W44698   6.025  10.173  13.482  0.0686  0.1935 -0.0513
28625W        W44699  13.342  12.686   3.145  0.2234 -0.2412  0.0208
28626W        W44700  12.480   3.972   2.483 -0.0019  0.0241  0.1998
28627W        W44701   7.927  16.312   1.825  0.0184 -0.0878 -0.3088
28628W        W44702   8.515  15.543   1.189  0.0942 -0.1814  0.3648
28629W        W44703  17.481   4.526  13.275 -0.2658  0.1495 -0.1033
28630W        W44704   9.484  16.876  10.206 -0.0836  0.2804  0.2004
28631W        W44705   9.015   7.861  14.656 -0.1840  0.2919  0.1241
28632W        W44706   8.955   5.823   0.285  0.0894 -0.2793  0.0230
28633W        W44707   3.218   2.062  11.173 -0.1736  0.2424 -0.0198
28634W        W44708  10.127  11.835   2.928  0.1505  0.0628  0.0370
28635W        W44709   8.235  14.377   4.116  0.1779 -0.3318  0.6451
28636W        W44710   8.391  13.760   1.692 -0.1430 -0.2134 -0.0460
28637W        W44711  16.660   6.775  12.815  0.0142 -0.2187 -0.0732
28638W        W44712  13.581  16.778   3.583  0.1263 -0.1610 -0.1411
28639W        W44713   2.343   2.004  14.550  0.0106  0.2355 -0.2426
28640W        W44714  14.327  17.314  14.695 -0.0661  0.0396  0.1570
28641W        W44715   9.750   4.956  14.903 -0.0876  0.0911 -0.0939
28642W        W44716   4.834   0.007   0.087 -0.1133 -0.2917 -0.0516
28643W        W44717   5.498   9.194  12.148 -0.1848  0.2522  0.0727
28644W        W44718   2.810  17.043  10.301 -0.0132  0.0630 -0.1949
28645W        W44719   1.394   1.224  10.448 -0.0381 -0.0973 -0.0138
28646W        W44720   1.070  16.887   1.564  0.1579  0.1204 -0.3285
28647W        W44721   4.324   8.963   4.333 -0.1084  0.2288  0.0395
28648W        W44722  10.108   1.158   1.385 -0.0054 -0.1503 -0.0363
28649W        W44723   3.799   5.110  11.580 -0.0985  0.1559 -0.1077
28650W        W44724  13.755   2.383  14.306 -0.1455 -0.0925 -0.3555
28651W        W44725   1.512   2.210   1.628 -0.1605 -0.2446 -0.1011
28652W        W44726   9.381  17.598  13.832  0.1587  0.1962 -0.3229
28653W        W44727   7.593  17.453   9.406 -0.1622  0.3347  0.1120
28654W        W44728   2.046  18.898  11.275 -0.1294  0.1948 -0.1491
28655W        W44729   9.709  12.432  12.090  0.0921  0.0601  0.0708
28656W        W44730  18.657   1.275   4.655  0.1589 -0.2580  0.1806
28657W        W44731   0.141   0.482  13.079  0.4033  0.1476  0.0769
28658W        W44732  12.722   0.914   0.965 -0.3236 -0.4007  0.1661
28659W        W44733  17.887   4.225  12.101 -0.0431 -0.2595  0.0559
28660W        W44734   6.287   2.554  12.096  0.1274 -0.2550 -0.4076
28661W        W44735   9.849  14.969  12.044 -0.0125 -0.1893  0.0944
28662W        W44736  17.952   5.241  12.906 -0.3698 -0.3105 -0.1699
28663W        W44737   1.371   4.824  12.203  0.3638  0.1661  0.2358
28664W        W44738   3.719   2.573  10.321  0.0882  0.0387  0.1760
28665W        W44739   6.357  13.885  10.481  0.0303  0.0632 -0.3757
28666W        W44740  14.282   3.968   4.892 -0.3101  0.0082  0.1300
28667W        W44741  14.056  12.884   3.852 -0.3761  0.1860 -0.1560
28668W        W44742   1.036   5.418   0.839 -0.0037  0.1808 -0.3431
28669W        W44743  13.476  11.682   2.125  0.0090  0.0678  0.1475
28670W        W44744   7.798  13.259  12.648  0.2628 -0.2773  0.0044
28671W        W44745   6.030   3.671  13.556 -0.0563 -0.2165 -0.0272
28672W        W44746  10.484  12.508   0.782  0.2380 -0.2476  0.0550
28673W        W44747  16.719  16.646   3.209  0.1144 -0.1167 -0.2437
28674W        W44748   3.749  13.381  12.788 -0.1093  0.2435 -0.0193
28675W        W44749   2.860   9.150   0.044  0.0195 -0.1321  0.0227
28676W        W44750  14.345  16.461   4.122 -0.0517  0.0465 -0.0722
28677W        W44751  16.264  14.441  12.078  0.0559 -0.1034  0.0137
28678W        W44752  15.396   5.735  14.489 -0.1044 -0.0004 -0.0481
28679W        W44753  18.821  14.616  12.619  0.1190 -0.1485 -0.2527
28680W        W44754  10.105   3.543  11.030  0.0901 -0.0690 -0.1157
28681W        W44755   4.669   7.907  14.653 -0.2675 -0.0251 -0.0634
28682W        W44756   0.444  14.094  13.848  0.0291  0.2013 -0.0084
28683W        W44757   7.874   2.401   0.530  0.4234 -0.1673 -0.3844
28684W        W44758   2.023   1.194   3.319  0.1780 -0.2023 -0.0629
28685W        W44759   2.527   9.930   4.823 -0.0555 -0.2375 -0.0989
28686W        W44760  12.033  13.763  11.610 -0.1529  0.1732  0.2853
28687W        W44761  18.184   5.471  14.595  0.3612 -0.2633  0.2982
28688W        W44762  16.064   2.994   2.694  0.1942  0.0203 -0.0645
28689W        W44763   6.265  12.824   3.766 -0.4915 -0.1039  0.3798
28690W        W44764   4.908   2.970   0.941 -0.0529 -0.1342  0.2458
28691W        W44765   6.420   6.998  13.794 -0.0033  0.2088  0.2428
28692W        W44766  12.381  17.108  13.739 -0.0324 -0.1583 -0.0985
28693W        W44767  17.303  13.017   1.120 -0.1547  0.1482 -0.0004
28694W        W44768  14.856   9.658   0.553 -0.0755  0.0424  0.0466
28695W        W44769   3.961  15.228   1.821  0.3294 -0.2715  0.3794
28696W        W44770  12.577   0.606  11.287  0.1002 -0.2160  0.0199
28697W        W44771  13.090   0.973   0.326 -0.0871  0.4133 -0.0678
28698W        W44772   7.096  18.514  13.139  0.0076 -0.2353 -0.2507
28699W        W44773   3.196  11.251  13.546  0.1111  0.0493  0.3436
28700W        W44774   9.579   7.546   0.479  0.2413  0.0829 -0.3102
28701W        W44775   7.012   9.919  10.601 -0.0766 -0.2700 -0.0764
28702W        W44776   0.253   3.851   3.442 -0.2966  0.1060  0.3222
28703W        W44777   0.814   2.184   0.597  0.2960 -0.2365  0.1668
28704W        W44778  16.466   0.595   3.982  0.2037 -0.0931  0.1155
28705W        W44779  11.011   5.002   2.771 -0.2689 -0.1540 -0.0769
28706W        W44780   2.605   4.687  11.573  0.0515 -0.0610  0.3973
28707W        W44781  15.130  14.055  10.607 -0.2613 -0.1467 -0.0186
28708W        W44782  12.550   7.665  10.843  0.0115  0.6312 -0.0659
28709W        W44783   4.272  13.868   3.027 -0.1375  0.1442  0.3349
28710W        W44784  14.315  11.453   4.271 -0.0609  0.0249  0.0427
28711W        W44785  10.119   3.686  13.784 -0.0313 -0.3398 -0.2064
28712W        W44786  12.919   0.097  13.969  0.2492 -0.2866 -0.3597
28713W        W44787  11.283   6.713   4.867 -0.1449  0.0268 -0.1710
28714W        W44788  10.785  14.106   2.326 -0.0694 -0.0795 -0.0145
28715W        W44789   2.183   3.758   1.596  0.2469 -0.2338  0.3486
28716W        W44790   3.400   1.877   4.362 -0.2255 -0.1337 -0.1780
28717W        W44791   6.208   0.618   4.277  0.0107  0.1692  0.0998
28718W        W44792   8.687   8.823   0.146  0.1333  0.0905 -0.1749
28719W        W44793   8.469   0.767  13.454 -0.1331  0.1315 -0.0557
28720W        W44794  14.596   5.712   0.968  0.1857  0.2205 -0.0218
28721W        W44795  14.112   3.232  14.486 -0.0852  0.3047 -0.1126
28722W        W44796  16.831   7.676   2.623 -0.1039  0.2091 -0.1380
28723W        W44797   3.272   8.492  13.895  0.2224 -0.0609 -0.3806
28724W        W44798   1.421   8.829   2.931  0.0595 -0.0031  0.1885
28725W        W44799  17.003   9.988  14.245  0.0501 -0.3503 -0.0890
28726W        W44800  17.388   2.400  10.863  0.0790  0.2437  0.2305
28727W        W44801   3.655   2.853   8.981  0.3639 -0.4308  0.1875
28728W        W44802   4.348  16.716   0.893  0.1813 -0.1274  0.1561
28729W        W44803   7.987   0.956  10.973 -0.3469 -0.2379 -0.0499
28730W        W44804  13.768   8.844  11.556  0.0234  0.1888 -0.1536
28731W        W44805  16.774   0.720   5.400 -0.1126  0.1953 -0.0430
28732W        W44806  16.918  17.536   0.060 -0.1795 -0.0929 -0.1042
28733W        W44807  16.420   3.338  14.304 -0.1338 -0.1621 -0.0573
28734W        W44808  11.380  17.490  13.509 -0.1842  0.1732 -0.1096
28735W        W44809   4.858  17.656   4.898 -0.2515 -0.2369  0.0194
28736W        W44810  13.264   4.848   3.801  0.0500  0.5565 -0.0900
28737W        W44811  14.785   3.536  10.645  0.0280  0.2185  0.0457
28738W        W44812  19.090  18.808   4.657 -0.1368  0.0519  0.0305
28739W        W44813  11.790   0.303   1.753  0.0710  0.0930  0.1085
28740W        W44814   9.586  16.328   0.452 -0.0292 -0.1001 -0.0366
28741W        W44815  13.244  13.208  11.261 -0.1523 -0.2007  0.0939
28742W        W44816  14.460   7.305   0.547 -0.1057  0.0414  0.1132
28743W        W44817   6.130   7.801   1.248 -0.2036 -0.2203 -0.1236
28744W        W44818   1.401   5.457  12.191 -0.0061  0.0422  0.0280
28745W        W44819  13.997   9.297  11.018  0.1976 -0.0083  0.1113
28746W        W44820   2.649   0.548  11.329  0.0770  0.1046 -0.1994
28747W        W44821  12.112   4.109   4.328 -0.2116 -0.2797  0.0977
28748W        W44822  17.849  18.337  10.524 -0.1584 -0.0134 -0.1928
28749W        W44823   5.152  10.764   1.364  0.0650  0.0785 -0.1892
28750W        W44824   0.169   9.718   5.886 -0.0370  0.1642 -0.3959
28751W        W44825  10.816   7.020  11.600  0.3204  0.3135 -0.3442
28752W        W44826   9.967  13.934   2.883 -0.2558 -0.0074  0.1493
28753W        W44827  16.307  11.224   4.882 -0.1764 -0.2834 -0.0794
28754W        W44828  14.827   2.384   0.972  0.0430 -0.1468 -0.5117
28755W        W44829   6.758   5.690  13.766  0.0276 -0.0552 -0.1155
28756W        W44830   5.182  17.072   5.328  0.1681  0.0266  0.0882
28757W        W44831  12.118  17.571   1.956 -0.1639  0.1030  0.0407
28758W        W44832   3.481   7.186  14.077  0.0132 -0.3091  0.1688
28759W        W44833   9.963   4.088   4.122 -0.1766  0.0392 -0.1301
28760W        W44834  16.561   4.836  11.715  0.1124 -0.1736 -0.0702
28761W        W44835   1.161  16.350  12.685  0.2793  0.1698 -0.3216
28762W        W44836   7.414   2.272   2.753  0.0355  0.1390 -0.0429
28763W        W44837   6.150  17.438  14.999  0.1851 -0.1755  0.0290
28764W        W44838  11.495  16.076  12.651  0.4260 -0.1365 -0.3855
28765W        W44839   2.778   0.725   3.565 -0.0235 -0.0300  0.4062
28766W        W44840   0.171  17.157   0.767 -0.1116  0.0160 -0.1157
28767W        W44841  14.689   4.334  10.851  0.5399  0.1675 -0.0458
28768W        W44842   0.195  12.570   2.884 -0.0354  0.2264 -0.0094
28769W        W44843  15.391   6.180  11.311  0.3020 -0.6947  0.3660
28770W        W44844  14.956  12.836  12.319  0.0634  0.0200 -0.1084
28771W        W44845   7.250   0.396   2.490  0.3028 -0.2930 -0.0159
28772W        W44846   6.298   0.856   3.716  0.3785  0.2069  0.2268
28773W        W44847  17.412   1.877  13.473  0.0834 -0.1489  0.0735
28774W        W44848  16.459   0.934   3.285  0.3135  0.0204  0.1889
28775W        W44849   6.391   9.944  12.727  0.0534  0.1443 -0.0514
28776W        W44850   2.500  10.126   3.551 -0.1427  0.2547 -0.3244
28777W        W44851   1.095   7.546   2.188  0.1159  0.1143  0.1234
28778W        W44852   5.607  17.596  10.264 -0.2659  0.0269  0.0369
28779W        W44853  10.452   7.681  14.849 -0.1801  0.1511  0.0770
28780W        W44854  16.945  11.188  12.028  0.3137 -0.1289  0.1423
28781W        W44855   5.282  19.142  12.986  0.2565  0.1469 -0.1109
28782W        W44856   2.628  10.958  12.091  0.1541  0.2802 -0.1511
28783W        W44857  10.327  17.407   0.450  0.0289 -0.0290  0.2214
28784W        W44858   2.262  15.601  14.109  0.0338 -0.0721 -0.1922
28785W        W44859   4.263  18.948   3.768 -0.0328 -0.0406 -0.0058
28786W        W44860  17.160  11.124   3.488 -0.1266  0.0511  0.3882
28787W        W44861  10.539   7.585   0.875 -0.1761  0.2766 -0.0130
28788W        W44862  13.271   9.666  11.319  0.2242 -0.0260  0.1107
28789W        W44863   1.213  12.096  14.971  0.0523 -0.2216 -0.0590
28790W        W44864   3.004  15.579   3.113  0.3570  0.0947  0.3517
28791W        W44865   7.758   1.786   4.843 -0.4872 -0.1552 -0.0744
28792W        W44866   4.731   8.266   2.280 -0.1977  0.1500 -0.5070
28793W        W44867  19.191  10.862   1.657  0.0969  0.3603  0.0683
28794W        W44868  19.160   2.111   1.691 -0.2097 -0.1941 -0.0678
28795W        W44869   2.964   1.361  10.251  0.2749 -0.2057  0.0762
28796W        W44870   1.861  14.030  11.831  0.0217 -0.2695  0.2013
28797W        W44871   2.851   1.197  11.819 -0.0053 -0.0688  0.0078
28798W        W44872  13.662   0.319   3.159  0.2106 -0.3053 -0.2236
28799W        W44873  17.045   8.216  11.265  0.0092 -0.1679 -0.0388
28800W        W44874   5.750   1.900   3.479  0.2080  0.3128  0.1510
28801W        W44875   8.918   5.487   3.901  0.0616  0.1837 -0.1640
28802W        W44876  14.577   0.793   5.161  0.1594  0.1773 -0.1503
28803W        W44877   3.846   3.236  10.758  0.2832 -0.0895  0.1972
28804W        W44878   5.721  11.448   3.771  0.1729 -0.2428 -0.0930
28805W        W44879   0.172  11.908   5.254 -0.0936 -0.1845  0.0165
28806W        W44880  17.879  17.404   0.780  0.0575  0.0295  0.3134
28807W        W44881   6.094   0.179  12.333 -0.3015  0.3044 -0.1197
28808W        W44882  12.110  18.570   4.426  0.2127  0.2136 -0.0781
28809W        W44883   6.196  13.391  10.243  0.0047 -0.1030 -0.1227
28810W        W44884  12.243   3.048   0.526 -0.2894 -0.2264 -0.1468
28811W        W44885  16.957  13.155  11.357  0.0265  0.1287 -0.1312
28812W        W44886   8.859   8.597  11.134 -0.1025  0.0161 -0.1328
28813W        W44887   0.924   0.999  14.334 -0.1503 -0.1954 -0.0273
28814W        W44888   9.812  18.474   9.928  0.0390  0.2465  0.1774
28815W        W44889   6.634  15.794  10.504 -0.1906  0.1043 -0.1990
28816W        W44890   7.862   4.834  11.407 -0.2191 -0.1607  0.1090
28817W        W44891  18.206  12.500  14.361  0.0426  0.0120  0.1778
28818W        W44892  17.769  10.812   0.382  0.2554  0.0995  0.4672
28819W        W44893   5.967   1.614  11.940  0.0431 -0.0906  0.2273
28820W        W44894  11.622   3.872   0.025  0.2142  0.1913 -0.0053
28821W        W44895   0.032  13.550  12.137  0.1610  0.4807 -0.3555
28822W        W44896  13.724   7.879   2.897 -0.1659 -0.1234  0.1133
28823W        W44897   6.737   2.744   1.959  0.2677 -0.3492 -0.2135
28824W        W44898   6.730   7.739  11.278 -0.0300 -0.2479  0.1953
28825W        W44899  17.559  11.866  12.002  0.1617  0.0190  0.3742
28826W        W44900   3.571   2.810   3.570  0.3082 -0.0338 -0.0128
28827W        W44901  11.507  11.329   2.380  0.0525  0.2126 -0.2784
28828W        W44902   2.567   5.939   1.679 -0.0346 -0.3544 -0.1575
28829W        W44903   1.336  10.005   1.717  0.1212 -0.1744  0.1311
28830W        W44904  18.561   3.458  11.227 -0.1727  0.1637  0.1401
28831W        W44905   0.224  18.811   3.096 -0.1594 -0.1235 -0.0083
28832W        W44906   8.304  14.922   0.397 -0.0966  0.0990  0.2259
28833W        W44907  10.908   9.029  14.644  0.1372  0.2056  0.1401
28834W        W44908   7.329  16.853   3.226  0.1226  0.3610  0.0790
28835W        W44909   3.826  13.162   0.940  0.1938 -0.1200 -0.1201
28836W        W44910   8.128   1.182  14.091 -0.1097  0.3656  0.1719
28837W        W44911  12.746   6.087   1.602  0.1263 -0.3515  0.0252
28838W        W44912  15.978  10.158  14.365 -0.1716 -0.3220 -0.2181
28839W        W44913  10.470   3.366   3.753  0.2542  0.1727  0.1581
28840W        W44914  17.788  17.699  14.616  0.3106 -0.1377  0.3747
28841W        W44915   4.573  18.181  11.969 -0.1564  0.1375  0.1670
28842W        W44916  18.688   1.974  13.180 -0.2373 -0.0652  0.2475
28843W        W44917   1.983  15.764  13.640  0.1361  0.0354  0.2539
28844W        W44918   3.867   5.337   2.399 -0.1728  0.1476  0.1858
28845W        W44919  17.714   3.228  13.680 -0.0926 -0.0757 -0.0118
28846W        W44920  18.137  17.982   3.955  0.0814  0.0082 -0.2472
28847W        W44921  13.780   2.922   5.142 -0.1943  0.3565 -0.1340
28848W        W44922   8.576  14.743  10.480  0.1468 -0.2476  0.1441
28849W        W44923  14.362   0.508  12.168  0.2659 -0.1298  0.1721
28850W        W44924   9.746  13.254  11.050  0.1030  0.2586  0.0068
28851W        W44925  11.485  16.666   2.412  0.0937  0.3477 -0.2608
28852W        W44926  16.930   3.471   0.768  0.3904  0.1271  0.3303
28853W        W44927  11.259   5.123   0.852  0.0081  0.1875 -0.1515
28854W        W44928  19.326   8.570  10.815 -0.0921  0.1422  0.1746
28855W        W44929  14.881  16.085   2.171  0.2496 -0.2303 -0.2024
28856W        W44930  16.489   6.936   1.767 -0.2194  0.1763  0.1551
28857W        W44931   1.740   2.535   4.900  0.2057  0.0250 -0.1366
28858W        W44932  18.968   5.737   2.033 -0.0257 -0.2303  0.0761
28859W        W44933   9.971  11.746   5.545  0.1938  0.0376 -0.0904
28860W        W44934  13.303  18.052   1.675  0.2284 -0.2223 -0.3325
28861W        W44935   1.690  16.127  12.170 -0.2057  0.1024  0.1379
28862W        W44936   8.586   5.443  13.167  0.3617  0.1266  0.1425
28863W        W44937  14.228   1.179   0.701 -0.0616 -0.0377 -0.1103
28864W        W44938  18.768  16.139  11.633 -0.0461  0.3530 -0.0175
28865W        W44939   2.025  13.901  10.597 -0.4607  0.0038 -0.3192
28866W        W44940  16.812  14.152   5.025  0.5463  0.3584 -0.2919
28867W        W44941   1.476   6.828  13.621  0.2982 -0.0041 -0.1498
28868W        W44942  15.995   0.777   6.121  0.0461  0.0947 -0.1504
28869W        W44943  12.330   1.404   4.698 -0.0909 -0.1238  0.0671
28870W        W44944   4.015   7.515  13.727  0.0672 -0.1612  0.0421
28871W        W44945   2.693   2.899   4.184 -0.0768  0.0582 -0.3829
28872W        W44946   2.635  15.191   4.042  0.3919 -0.4505  0.1568
28873W        W44947   3.648  11.141   5.365  0.1620 -0.1445  0.0974
28874W        W44948   7.161   0.901   0.373  0.0656  0.1091  0.0869
28875W        W44949   4.687  10.753  10.705  0.2648 -0.0366  0.1136
28876W        W44950  12.677   3.382   0.142  0.2342 -0.1048 -0.2869
28877W        W44951   2.121   2.539   9.817 -0.0529  0.1146 -0.0314
28878W        W44952  13.474   1.522   1.320  0.1172  0.0533 -0.0902
28879W        W44953   5.883   2.295   2.955  0.1042  0.2469 -0.1315
28880W        W44954   3.685   3.994   3.349 -0.1862  0.0717 -0.0958
28881W        W44955   6.732  14.428   5.026  0.2315 -0.1553 -0.1641
28882W        W44956  16.206  17.453   1.994  0.0366 -0.0645  0.0618
28883W        W44957  13.833   4.091  12.614  0.0565 -0.0223  0.0052
28884W        W44958  16.628   3.081   0.617  0.0358 -0.1835 -0.0929
28885W        W44959   3.199  12.053   4.053  0.4022 -0.1307  0.1302
28886W        W44960   4.306   1.353   0.794  0.0151  0.1092 -0.3461
28887W        W44961   8.735  17.512  14.655 -0.1395  0.2571 -0.0878
28888W        W44962  13.726   1.390  12.570 -0.0095  0.1668 -0.1652
28889W        W44963  10.131  17.477  10.649 -0.2005 -0.0044  0.2147
28890W        W44964   5.792   1.559  11.471 -0.1584  0.5824  0.1083
28891W        W44965   4.141   2.604  13.038 -0.1033  0.0960 -0.0114
28892W        W44966  13.198   7.866  14.540  0.1190 -0.0387 -0.3231
28893W        W44967   4.339   3.857  13.561  0.1933  0.3170 -0.0261
28894W        W44968  12.471   8.589   2.868  0.0487  0.0046 -0.1300
28895W        W44969  12.381   1.952  11.271  0.1614  0.1704  0.3235
28896W        W44970  14.179   6.808   3.673 -0.2073 -0.1857  0.0074
28897W        W44971  18.808   4.457   0.204 -0.0777  0.2672 -0.1409
28898W        W44972   8.366  18.664  11.664  0.2398  0.1968  0.1289
28899W        W44973  13.747   4.772   0.583 -0.0504  0.1549  0.0054
28900W        W44974  18.352  11.283   4.097 -0.1201  0.4141  0.0166
28901W        W44975   9.251   8.058  10.585  0.0237 -0.0813 -0.3123
28902W        W44976   7.767  14.793   2.627 -0.0807 -0.0988 -0.0536
28903W        W44977  19.019   6.431  12.000 -0.0555  0.1262 -0.2603
28904W        W44978   1.906   9.101   3.621 -0.1645 -0.2274  0.2306
28905W        W44979  17.774   5.696  13.147  0.1283  0.0331  0.0391
28906W        W44980  12.711   1.932   0.335 -0.4077 -0.0883 -0.4717
28907W        W44981  11.024  18.264   3.603  0.0170 -0.4116  0.0194
28908W        W44982   1.174   2.299  12.925 -0.0894  0.2446 -0.2693
28909W        W44983   1.185  13.914  13.109 -0.0734 -0.0563  0.1824
28910W        W44984   5.988  19.208  11.160  0.0160 -0.0179  0.0782
28911W        W44985   1.002  15.413  12.863  0.0723 -0.2232  0.0387
28912W        W44986  18.622   3.489   5.683 -0.0687  0.2047  0.0172
28913W        W44987   6.375   9.078  14.748 -0.2091 -0.2422 -0.3729
28914W        W44988  16.867  16.616  13.985  0.2098  0.1211  0.1455
28915W        W44989   0.521  11.258   3.446  0.0833  0.3428 -0.0470
28916W        W44990  10.798   2.577   2.845  0.0711  0.3614  0.1073
28917W        W44991   1.429   2.197  12.447  0.2391 -0.1469 -0.0655
28918W        W44992   0.941   3.701   0.045 -0.1720  0.3723 -0.1385
28919W        W44993   7.404   1.662   1.672  0.0069  0.0549 -0.2245
28920W        W44994  17.994  16.221   2.784 -0.2368 -0.0251  0.2796
28921W        W44995   2.640  15.002  13.617  0.3063  0.1229  0.0138
28922W        W44996   0.090   2.600  14.050 -0.0404 -0.0580  0.1022
28923W        W44997  11.036  11.116   1.041  0.0950  0.0624 -0.0825
28924W        W44998  13.621   6.126   3.575  0.1304  0.1958 -0.1104
28925W        W44999  11.168   5.928  12.844 -0.0213  0.0252 -0.4399
28926W        W45000  17.674   6.943  13.188  0.3253  0.3903  0.0975
28927W        W45001   8.970  18.876  10.248  0.1059 -0.0698  0.2673
28928W        W45002   8.837   9.729  10.708  0.1369 -0.1853 -0.0619
28929W        W45003  13.902   3.350   1.572  0.0164  0.3593 -0.1865
28930W        W45004  11.064   4.736  14.657  0.1094  0.0692 -0.2425
28931W        W45005  15.953  11.776  11.334 -0.2540 -0.0797  0.0666
28932W        W45006  11.912   8.858  11.202 -0.2401 -0.1475  0.0676
28933W        W45007   9.772  16.603  14.025 -0.2235 -0.1122 -0.1557
28934W        W45008   6.169   1.382  13.325 -0.1326 -0.4147 -0.1367
28935W        W45009  18.588   0.378   2.472 -0.0479  0.2672 -0.0142
28936W        W45010  11.191  12.491  10.871 -0.2825 -0.0537  0.1673
28937W        W45011  11.565  10.442  12.055 -0.4138  0.0472 -0.0979
28938W        W45012   5.035   7.994  11.316  0.0913 -0.0435 -0.1132
28939W        W45013   7.013   9.552  13.811  0.1097 -0.1705 -0.0661
28940W        W45014  15.286   2.044  12.794 -0.0513  0.1973  0.0571
28941W        W45015  12.683  19.320   4.540  0.0741 -0.0605  0.3003
28942W        W45016  15.488  12.570   0.456 -0.0870  0.0304  0.0412
28943W        W45017   3.167   9.722  10.521  0.0158  0.2197 -0.0123
28944W        W45018   5.327  19.158  11.590  0.0308  0.4764  0.0779
28945W        W45019  10.450   0.289  11.029  0.2339  0.1208 -0.0309
28946W        W45020   4.204   3.950  10.401 -0.1826 -0.3328 -0.1943
28947W        W45021   3.542  12.024  10.551  0.2952  0.2169 -0.0980
28948W        W45022  13.544   9.431   5.478  0.1369  0.0016 -0.0174
28949W        W45023  13.096   0.255   4.387  0.1028 -0.1388 -0.1094
28950W        W45024  16.785   0.534   5.912 -0.0771 -0.0638 -0.0357
28951W        W45025  17.599  14.905  13.926  0.2404  0.0641  0.2072
28952W        W45026   5.523  11.378   2.209  0.1201 -0.2423  0.3481
28953W        W45027   5.005  10.392  11.991  0.3987  0.1205 -0.0228
28954W        W45028  19.171  17.800  12.612  0.0948 -0.0295 -0.3003
28955W        W45029  12.068  12.906   1.514 -0.3137 -0.3562 -0.2664
28956W        W45030  18.087   6.244   5.809  0.2584  0.0953  0.0571
28957W        W45031  18.602  18.647   3.975  0.0343 -0.2223 -0.4049
28958W        W45032  13.313  18.697  12.287 -0.1769  0.2114  0.3598
28959W        W45033  14.021   2.589   0.256 -0.0115  0.1059 -0.0211
28960W        W45034  18.660   2.631   9.553  0.1958 -0.0998  0.1574
28961W        W45035  11.222  14.517  14.604 -0.1436  0.0928 -0.0401
28962W        W45036   8.032  17.458   0.495 -0.0200 -0.2248  0.4526
28963W        W45037   3.110   3.561  15.001 -0.1127  0.0596 -0.0997
28964W        W45038   7.121  18.339   4.585 -0.0045  0.2472  0.1199
28965W        W45039  16.201   2.980  11.551  0.1792 -0.3350  0.3169
28966W        W45040  15.776   2.711   3.745 -0.0229 -0.0073 -0.0118
28967W        W45041  19.300   4.366  14.983 -0.1476  0.2224 -0.3598
28968W        W45042  17.041  10.351  10.577  0.0486  0.0246  0.1291
28969W        W45043   1.655  19.019  10.465 -0.2842 -0.3953 -0.1518
28970W        W45044  11.819  14.028  13.686 -0.0507 -0.1411  0.0538
28971W        W45045  11.769  18.276   4.164  0.3124  0.1381  0.1992
28972W        W45046  14.084  16.635  13.419 -0.0646  0.0694 -0.1550
28973W        W45047  14.714   1.563  12.919  0.3895 -0.0877  0.3181
28974W        W45048   1.879  12.875  12.427  0.2553  0.0428  0.0766
28975W        W45049   1.381   4.128   4.747  0.0682  0.0669 -0.0369
28976W        W45050   2.697  13.935  12.291  0.0142 -0.0983  0.0972
28977W        W45051  12.617  19.171  10.988  0.2927 -0.3456 -0.0292
28978W        W45052   7.608  17.467   0.817  0.0032 -0.2180 -0.0964
28979W        W45053  11.214  18.573  13.507  0.2224  0.2184 -0.0974
28980W        W45054  10.408  13.223   0.582  0.0819  0.1734 -0.1024
28981W        W45055  15.624  13.038  14.655  0.3162 -0.0607 -0.1210
28982W        W45056   3.630  10.167   1.640  0.1083 -0.1376  0.0911
28983W        W45057   0.142   6.979   5.368  0.0572  0.0952  0.2236
28984W        W45058   1.917  16.680  13.379 -0.2197  0.2582 -0.1189
28985W        W45059  11.545   4.714   2.111  0.2010 -0.1674  0.0323
28986W        W45060  16.722   1.562   0.945  0.2825 -0.0593 -0.1156
28987W        W45061   7.799  14.646   3.513  0.2796 -0.0643  0.1739
28988W        W45062  16.360  10.195  11.652 -0.0272  0.1477 -0.0027
28989W        W45063   1.271   9.042  13.878  0.2119  0.1489 -0.1812
28990W        W45064  11.174  16.648   1.448  0.3379  0.1321 -0.1422
28991W        W45065   8.790  16.562  14.802 -0.0530 -0.2907 -0.4080
28992W        W45066   6.593   7.354  10.863 -0.0408 -0.0247 -0.2468
28993W        W45067   3.490  16.746  13.604  0.2301  0.1335 -0.2669
28994W        W45068   1.204  15.309  11.988 -0.1847 -0.1694  0.2041
28995W        W45069   1.984  15.903   5.479 -0.0510  0.0236  0.4560
28996W        W45070   5.521   1.702   4.674 -0.1524  0.0515 -0.3002
28997W        W45071   0.547  14.422   0.584 -0.2626 -0.0766  0.2074
28998W        W45072   1.463  15.159  12.896 -0.0650  0.0241 -0.0148
28999W        W45073   2.087   5.704   5.652 -0.0029  0.0161  0.2978
29000W        W45074   6.937   6.915   2.217 -0.0613 -0.0131 -0.1079
29001W        W45075  14.545  13.124   3.844 -0.0574  0.0327  0.1215
29002W        W45076  18.459   6.351  14.122  0.2206 -0.0163 -0.2902
29003W        W45077   9.945  11.547   0.626  0.1799  0.0781  0.0087
29004W        W45078   7.692  14.425   0.426 -0.0490 -0.4530 -0.0588
29005W        W45079   9.070   5.248  11.307  0.0849  0.0109 -0.2102
29006W        W45080  11.013   8.035  14.811 -0.4025  0.0984  0.4433
29007W        W45081  17.542   3.579   1.531 -0.1651  0.1851 -0.0872
29008W        W45082  10.433  13.664   0.836 -0.4606  0.0845  0.2811
29009W        W45083   6.910   4.162  12.713 -0.1315 -0.0635  0.0870
29010W        W45084   9.540   0.263  12.931  0.0713 -0.1018  0.2755
29011W        W45085   8.874   9.833   9.114 -0.2739  0.0029  0.2841
29012W        W45086   8.237  15.547  12.896 -0.1106  0.2371 -0.2415
29013W        W45087   9.050  13.559   3.411 -0.1145  0.1367  0.1877
29014W        W45088  18.801  10.839  12.122  0.1510 -0.0342 -0.0123
29015W        W45089  12.833   6.872   3.921 -0.0837  0.3378 -0.3692
29016W        W45090   5.061  17.664  10.096 -0.0856 -0.1737  0.2904
29017W        W45091   5.584   1.596   2.873  0.1178  0.1981 -0.2477
29018W        W45092  12.214  19.082   3.126  0.1155  0.2194 -0.0019
29019W        W45093   1.364   6.223   2.372  0.0100  0.2046 -0.1542
29020W        W45094  15.285  15.430  10.745  0.0294  0.1890 -0.0962
29021W        W45095  10.936  15.603   0.377 -0.2572 -0.1791  0.0750
29022W        W45096  13.518  18.474  11.535 -0.0651  0.0978 -0.1348
29023W        W45097  18.167  16.386   0.816  0.4722 -0.0367  0.1934
29024W        W45098   9.660   3.835  13.544  0.1144 -0.0658  0.0879
29025W        W45099   1.375  16.441  13.607  0.2703 -0.1613 -0.0306
29026W        W45100   4.167  10.758  14.458 -0.0021 -0.1952  0.1110
29027W        W45101  16.926   6.022  10.272  0.1852  0.4584 -0.1853
29028W        W45102  19.006   6.840  12.442  0.0555  0.0146 -0.1491
29029W        W45103  12.578  14.726  14.755 -0.1998  0.1250 -0.1626
29030W        W45104  15.005   2.663  13.642 -0.1930 -0.0953 -0.0682
29031W        W45105  12.098   9.880   3.392  0.0148  0.0307 -0.0007
29032W        W45106  17.127   2.998   4.139  0.2214 -0.2029 -0.0621
29033W        W45107   3.237  10.222  10.857  0.0349  0.2893  0.2541
29034W        W45108   5.257  12.191   4.555  0.2451  0.0130  0.2134
29035W        W45109  14.997   3.436   0.811 -0.2303 -0.0727 -0.1230
29036W        W45110   5.537   2.742   2.140  0.1197  0.1405  0.1604
29037W        W45111   6.384   1.295   3.946  0.2084 -0.0914  0.1651
29038W        W45112   0.550   7.743  11.326  0.1994 -0.1375 -0.1450
29039W        W45113   1.046  12.363   4.325  0.1004 -0.1296  0.0942
29040W        W45114  18.776  17.160   5.869 -0.0107  0.1850 -0.1526
29041W        W45115  12.028   0.778   5.370  0.0777 -0.1316  0.0574
29042W        W45116   6.417  16.141   8.898 -0.3098  0.0299  0.0094
29043W        W45117  12.133  15.946   3.974 -0.0980  0.2176 -0.1740
29044W        W45118  10.552  12.039  10.483  0.0692 -0.1219 -0.0737
29045W        W45119   8.831   7.678  11.811  0.0676 -0.3523  0.0206
29046W        W45120  15.832  17.669  13.389 -0.2030  0.1350 -0.0009
29047W        W45121   3.816   8.967   4.239 -0.1061  0.1552  0.1498
29048W        W45122   1.829   4.668   4.360 -0.1217  0.0459  0.0395
29049W        W45123  10.417   9.091  11.284 -0.2979  0.0944  0.1753
29050W        W45124  10.458  15.859  13.758  0.0967  0.2767 -0.0022
29051W        W45125  17.330  15.408   3.706  0.3270 -0.0663 -0.1834
29052W        W45126   3.229   3.815   1.584  0.2813  0.0246 -0.0443
29053W        W45127   1.207  14.590   2.986 -0.0267 -0.4704 -0.3287
29054W        W45128  17.854   4.956   0.950 -0.0116 -0.1793  0.0169
29055W        W45129   5.668  12.156   0.002  0.1740  0.3581 -0.5312
29056W        W45130  10.313  16.970   4.231 -0.0019  0.0976 -0.1690
29057W        W45131   3.697   7.318   5.001  0.0462  0.1036  0.0037
29058W        W45132   2.723   6.098   3.410  0.3719 -0.0510 -0.3307
29059W        W45133  17.658   4.920  14.385 -0.6122 -0.0292 -0.3784
29060W        W45134   0.566   9.105   0.080 -0.3415 -0.0427 -0.1330
29061W        W45135  17.963   6.956  11.143  0.0346 -0.3620 -0.2113
29062W        W45136   3.641   1.810  14.008 -0.0745 -0.0042 -0.2196
29063W        W45137   6.341   1.850   5.219 -0.0112 -0.0568 -0.1828
29064W        W45138   4.590  10.711   2.647  0.0342 -0.0275  0.1264
29065W        W45139   7.989   0.726  14.260  0.0546 -0.2022 -0.0288
29066W        W45140   4.840   1.175  11.496  0.1398  0.2406  0.0674
29067W        W45141   2.131   1.669  10.673  0.1237  0.1307  0.0877
29068W        W45142  16.418  17.159  11.265 -0.0228 -0.1246 -0.0775
29069W        W45143  10.963   9.141  12.761  0.1908 -0.1556  0.4031
29070W        W45144   4.915  15.203  11.969 -0.0448 -0.1358 -0.1186
29071W        W45145   1.385  16.552   0.688  0.2617 -0.2749  0.0094
29072W        W45146   7.704   1.732   2.054  0.0354 -0.1873  0.0715
29073W        W45147  13.149  18.526   5.336  0.0218 -0.2053  0.0743
29074W        W45148  14.678  15.175  14.902 -0.0727 -0.1793 -0.0160
29075W        W45149   1.016   7.230   4.673 -0.0581  0.1107 -0.2094
29076W        W45150   9.254   2.309   2.413 -0.1233  0.0811 -0.0043
29077W        W45151  15.854   2.517   0.833 -0.0825  0.2471  0.4082
29078W        W45152   8.284   6.431   3.481 -0.1954  0.3630  0.1846
29079W        W45153  14.937   7.881   9.679  0.0226  0.1208  0.2476
29080W        W45154  17.776   1.787   3.694 -0.0437  0.1084 -0.3422
29081W        W45155  10.682  10.238   1.270 -0.2974 -0.2293  0.1427
29082W        W45156  13.920  18.640  12.463  0.0697 -0.0962 -0.3492
29083W        W45157   3.449   0.859  10.855 -0.1771  0.0753  0.0176
29084W        W45158   2.822   6.984   2.986 -0.2878 -0.2652  0.0330
29085W        W45159   2.601   5.159   1.996 -0.1366 -0.1363 -0.2877
29086W        W45160  19.267  18.894   2.704  0.4085  0.1064  0.2809
29087W        W45161   1.564  11.968   0.722  0.0366  0.2727  0.2843
29088W        W45162  11.126   0.855  10.300  0.1078  0.1868  0.4205
29089W        W45163   5.186  16.095   1.644  0.1837  0.2006  0.1461
29090W        W45164  19.317   7.966   4.992  0.1395 -0.2874  0.1194
29091W        W45165  13.662  14.438   0.283 -0.3245 -0.0301 -0.1452
29092W        W45166  13.360   4.202   1.733 -0.0067 -0.3977 -0.3473
29093W        W45167  15.512  10.135  14.301  0.4021 -0.0334  0.2246
29094W        W45168  10.057   0.258   2.216  0.0398 -0.1186  0.0570
29095W        W45169   3.537  13.807  11.683  0.1293  0.1816 -0.1711
29096W        W45170  17.437   1.695   4.996 -0.1306  0.0459 -0.1347
29097W        W45171  17.661  14.304  14.387 -0.1896 -0.0665  0.1695
29098W        W45172  18.382  18.398  13.742  0.3939 -0.0298  0.1536
29099W        W45173   7.621  12.567   1.802 -0.1889  0.1293 -0.2625
29100W        W45174  15.297  10.638   3.241  0.1680 -0.1069 -0.4405
29101W        W45175  16.282  19.051   0.388 -0.0463 -0.1102 -0.1014
29102W        W45176   5.237  14.778   3.509 -0.2539 -0.0839 -0.2364
29103W        W45177   8.109   4.096   0.842 -0.0261  0.3750 -0.0902
29104W        W45178   2.202   9.153   3.222  0.1690  0.2440  0.2552
29105W        W45179   6.051   5.472   3.838 -0.2126  0.2490 -0.2581
29106W        W45180   3.776  10.779  14.023  0.1046 -0.1116 -0.2150
29107W        W45181  13.685  18.073  13.167 -0.0797 -0.0141 -0.2799
29108W        W45182   2.830  19.305  12.571  0.1439 -0.0721  0.0735
29109W        W45183   2.612  19.292  10.055  0.1095 -0.2242  0.2912
29110W        W45184  16.073   4.570   1.939  0.1843  0.0866  0.3784
29111W        W45185   7.097  14.440  12.094  0.1261 -0.2761 -0.1404
29112W        W45186  14.509   7.951  13.024 -0.2224  0.3033 -0.0016
29113W        W45187  13.925   6.460  12.154 -0.1094  0.0409 -0.0576
29114W        W45188  18.934  16.186  10.313 -0.1243 -0.1661  0.0193
29115W        W45189  18.328   3.327   2.026  0.0606 -0.0744 -0.1928
29116W        W45190   6.252  14.335  12.091  0.0120  0.0008 -0.2931
29117W        W45191  17.223  18.856   2.113 -0.0637 -0.5013 -0.0429
29118W        W45192  16.073   2.940  12.686  0.1212 -0.0552 -0.0654
29119W        W45193  16.079  12.161   2.099  0.0359  0.2592 -0.3193
29120W        W45194  13.481   6.972  12.964 -0.6893 -0.2246  0.4727
29121W        W45195   8.844   0.158   2.376 -0.0685 -0.0454 -0.3230
29122W        W45196   6.187  16.264   3.863  0.1325 -0.2774  0.1659
29123W        W45197   0.213  13.036   3.126  0.1975  0.2487  0.2883
29124W        W45198   7.639   9.757  12.239  0.1005 -0.0189 -0.1226
29125W        W45199  10.379   6.576   0.251  0.0555  0.1571 -0.2798
29126W        W45200   1.375  17.002   3.805  0.0580  0.3915 -0.0759
29127W        W45201  13.793  17.262   2.536 -0.0095  0.2890  0.2951
29128W        W45202  13.330  15.934  14.797 -0.3978  0.0683  0.1910
29129W        W45203   3.543   1.076  13.166  0.1469 -0.0142 -0.0054
29130W        W45204   4.828  17.104  11.871  0.2685  0.0582 -0.0270
29131W        W45205   0.310   4.769   1.212  0.1557 -0.0501  0.0572
29132W        W45206  13.488  11.037  12.527  0.0925 -0.0853 -0.0670
29133W        W45207  15.149   0.461  12.895 -0.0865  0.0282  0.2501
29134W        W45208   6.706  14.868  10.534  0.0853 -0.0478 -0.1457
29135W        W45209   5.769   0.053   1.924  0.1399 -0.2272  0.1576
29136W        W45210   8.893  11.804  14.699  0.5771  0.2650 -0.1387
29137W        W45211   8.378   7.675  12.855  0.0257 -0.0283 -0.1845
29138W        W45212   2.087   8.399   3.374  0.2352  0.1259  0.1139
29139W        W45213   6.398   5.686   4.155 -0.0614  0.1293 -0.0149
29140W        W45214   4.219   5.321  12.440 -0.2368  0.1968 -0.3235
29141W        W45215  18.739   1.294   0.192  0.2149  0.0436 -0.0057
29142W        W45216   8.769   3.660  10.625 -0.0575  0.2187 -0.0173
29143W        W45217   8.178   6.919   3.655  0.1434 -0.3599 -0.0626
29144W        W45218  14.582  10.258   3.503  0.0178  0.0278  0.2065
29145W        W45219  12.794   8.268  11.559 -0.0253 -0.0398 -0.0553
29146W        W45220  18.141   9.495   2.149 -0.1403 -0.3330  0.0838
29147W        W45221  12.794   0.318  10.858 -0.1295  0.0263 -0.1826
29148W        W45222   0.195  12.389   4.872  0.2241 -0.3589 -0.1202
29149W        W45223  18.041  18.478   3.078 -0.0126  0.3078  0.0372
29150W        W45224  10.625   6.724   4.170  0.2629 -0.0877 -0.1067
29151W        W45225  10.620   9.074   4.651 -0.1096 -0.0671  0.0226
29152W        W45226   6.754  13.735   9.269  0.1482 -0.0156  0.0375
29153W        W45227   0.289  17.121   0.105 -0.0382  0.2641  0.0620
29154W        W45228   3.986  15.327  12.902 -0.0143 -0.0388  0.2280
29155W        W45229  18.363   7.811   6.142  0.0425 -0.0472 -0.0071
29156W        W45230   6.248   0.347  14.789 -0.2892  0.3333  0.1452
29157W        W45231  19.155   0.327   3.084  0.4274  0.2650  0.1755
29158W        W45232   5.204   3.166   4.350  0.3021  0.1438 -0.4460
29159W        W45233   1.945  16.423  12.928  0.1326  0.1158  0.0811
29160W        W45234  11.904   8.543   4.505  0.1431 -0.3719  0.2062
29161W        W45235   9.566  15.369  13.595 -0.1248 -0.1717  0.1139
29162W        W45236   5.165   4.271  13.696 -0.2642  0.2674 -0.0545
29163W        W45237  13.427   4.523   2.653  0.1698  0.0743 -0.1822
29164W        W45238  18.262   7.151   1.756 -0.2513 -0.2056  0.0465
29165W        W45239  18.054   5.970  14.717 -0.3334 -0.2037 -0.0589
29166W        W45240   4.280   4.365   0.626  0.3383 -0.0210 -0.1246
29167W        W45241  18.889   8.220   1.050  0.0645 -0.1018  0.0313
29168W        W45242  18.137   8.371   1.681 -0.0743  0.2868  0.2400
29169W        W45243   6.947   7.700  14.158  0.1077 -0.2072  0.2615
29170W        W45244  18.614   6.106  14.974 -0.2948 -0.2093  0.1007
29171W        W45245  11.564  13.895   0.777  0.0869  0.0482 -0.2811
29172W        W45246  12.860   5.853  12.385 -0.1040 -0.1860  0.1830
29173W        W45247  13.272  15.870   1.178  0.1111  0.0063 -0.1371
29174W        W45248   3.200  18.306   2.239 -0.1271  0.2138 -0.0161
29175W        W45249   2.907   5.016  12.662 -0.0019 -0.0110 -0.2149
29176W        W45250   0.288   4.089  11.067  0.0293 -0.0918  0.0223
29177W        W45251   7.076   0.743   4.550  0.2507 -0.1512 -0.0474
29178W        W45252  12.414   1.149  13.029 -0.1057 -0.1687 -0.3475
29179W        W45253  17.755   8.844   4.828  0.0594  0.0804 -0.1347
29180W        W45254  16.093   1.721  13.094 -0.1810  0.0884  0.1539
29181W        W45255  12.048   6.207   4.236  0.2178 -0.1293 -0.0898
29182W        W45256  13.800   7.308  12.811 -0.0473 -0.1491  0.0721
29183W        W45257   8.710  16.390   3.111 -0.1974  0.0688  0.1814
29184W        W45258  15.408  12.907   3.870  0.3342  0.3368 -0.1632
29185W        W45259  18.121  10.590   5.178 -0.2105 -0.0302 -0.3049
29186W        W45260  18.262   7.839   4.590  0.1489  0.3287 -0.1712
29187W        W45261  16.000   5.923   2.415  0.0954  0.0615  0.0548
29188W        W45262   1.869  16.307   0.824 -0.0297  0.0373  0.0977
29189W        W45263  17.273   8.330  13.642  0.0194  0.1419 -0.1192
29190W        W45264   4.505   4.919   4.448 -0.2058 -0.0335  0.3718
29191W        W45265  10.276   0.672   3.549 -0.3140  0.1631 -0.0526
29192W        W45266   4.755  11.805  11.535 -0.2522 -0.2213  0.1379
29193W        W45267  19.066   4.265   4.843  0.0275  0.1570  0.4150
29194W        W45268   6.063  12.161  14.066  0.0053 -0.0100  0.1392
29195W        W45269  17.014  15.710   4.567  0.2801 -0.0376 -0.0617
29196W        W45270   7.838  17.161  11.937  0.2851  0.0403 -0.4067
29197W        W45271   7.341   6.679   4.282  0.2165 -0.0517  0.2002
29198W        W45272   8.847  15.772   2.632  0.0091 -0.1502 -0.1026
29199W        W45273  16.697   0.346   3.548  0.1387  0.0171 -0.1254
29200W        W45274  16.139   8.261  12.950 -0.1474  0.3940  0.2440
29201W        W45275   8.334   7.104   4.098  0.0479 -0.2299 -0.2460
29202W        W45276  11.453   7.484   4.465 -0.1218 -0.1247  0.1772
29203W        W45277  10.104   9.289   1.653 -0.2296  0.0584  0.2259
29204W        W45278   7.662   4.358  13.041  0.0149 -0.1355 -0.0007
29205W        W45279  14.337  12.106   2.917 -0.0603  0.0948  0.1524
29206W        W45280   1.483   5.257   1.566  0.3127 -0.0903 -0.0380
29207W        W45281   0.267  11.995   2.059 -0.0079 -0.1095  0.1854
29208W        W45282   7.319   6.215  11.846  0.1755  0.1519 -0.1340
29209W        W45283  12.335  16.517  13.729 -0.0454 -0.1017  0.0081
29210W        W45284  14.365   4.921   3.105  0.2892 -0.0530  0.1812
29211W        W45285   3.582   3.739  13.295 -0.0012  0.0972  0.2555
29212W        W45286   4.819   1.578   2.296  0.1082  0.0459  0.2455
29213W        W45287  18.989   0.976   4.900  0.2746 -0.0056 -0.1045
29214W        W45288   1.928   2.275  12.065  0.0229  0.0309 -0.0228
29215W        W45289  15.136  17.330  12.791  0.1552 -0.1400 -0.1929
29216W        W45290   0.647  17.684  14.789  0.0735 -0.0879  0.1833
29217W        W45291  11.598   6.409  11.715  0.0794 -0.2100 -0.1220
29218W        W45292   5.515  12.173  14.493  0.0056  0.3541  0.1228
29219W        W45293  14.794  11.155   5.467 -0.2338 -0.1445 -0.0184
29220W        W45294  16.572   4.334  13.504 -0.0821  0.0364 -0.0940
29221W        W45295  12.364  17.220   2.267  0.1308 -0.1167 -0.0489
29222W        W45296  18.556  16.765   0.888  0.0821 -0.0475  0.0267
29223W        W45297   4.193   5.627  10.915  0.0479  0.0359  0.0499
29224W        W45298  17.172   7.546   4.912 -0.3423 -0.1686 -0.3957
29225W        W45299   6.541  10.557   1.868 -0.0073  0.3590 -0.1589
29226W        W45300  15.859  18.938   3.901  0.0365  0.1543 -0.0094
29227W        W45301  10.696  13.519  13.134 -0.3374 -0.2175 -0.0226
29228W        W45302   1.466   1.609   5.039 -0.0146  0.0834  0.1552
29229W        W45303   7.457   4.085   9.459 -0.0379 -0.1264 -0.1784
29230W        W45304  17.665   1.681  11.576  0.1358 -0.1454  0.0640
29231W        W45305  18.091  13.449  14.951  0.1352  0.0969 -0.1932
29232W        W45306  14.671  12.200   0.327 -0.0975 -0.2083  0.5282
29233W        W45307   3.866  19.197  10.407  0.0193 -0.1325 -0.2634
29234W        W45308   7.104   1.280  12.969 -0.1974 -0.0259 -0.1447
29235W        W45309  15.479  15.174   4.882  0.0342  0.1749  0.0452
29236W        W45310   8.749   0.514   4.988  0.1391  0.2168 -0.2587
29237W        W45311   8.419   8.974   0.822  0.0585 -0.1810 -0.3193
29238W        W45312   8.832   3.027   1.942 -0.4287  0.1652 -0.1411
29239W        W45313  17.681   2.401  14.147 -0.0748  0.0857 -0.1403
29240W        W45314   5.595   0.279   0.474 -0.1043 -0.2560 -0.0075
29241W        W45315   3.352   2.272  10.209  0.1789 -0.0098 -0.0186
29242W        W45316  18.264   4.428   1.062 -0.1565  0.0538  0.0812
29243W        W45317   1.647   5.205  11.796 -0.1553  0.1759  0.0544
29244W        W45318  14.589  16.337   1.134 -0.2597 -0.0435 -0.0928
29245W        W45319   9.248  15.374  10.684 -0.0612  0.2338 -0.0751
29246W        W45320   7.232   5.374   4.213 -0.2345 -0.2554 -0.1661
29247W        W45321   9.617   3.390  10.841 -0.2232  0.0122 -0.1212
29248W        W45322   1.857   3.732  13.700 -0.1433  0.3475 -0.1039
29249W        W45323  14.702  12.138   1.872  0.0547 -0.0810 -0.0634
29250W        W45324  15.601   4.539   1.713  0.1854  0.0899 -0.0766
29251W        W45325   6.815  18.969  10.666 -0.1359  0.0609  0.1494
29252W        W45326  11.942   4.717  13.529 -0.2560  0.0917  0.0813
29253W        W45327  16.010   0.186  11.704 -0.0251 -0.0861 -0.4505
29254W        W45328  10.825  15.546  13.940  0.1489 -0.4453 -0.1025
29255W        W45329  14.850  13.445  13.229 -0.1133 -0.0755 -0.0099
29256W        W45330  15.393  19.297   3.883  0.1954 -0.1033 -0.3066
29257W        W45331  14.682  11.719   5.070 -0.2561 -0.0872 -0.4504
29258W        W45332   4.510  15.751   2.837 -0.2021  0.0040 -0.2473
29259W        W45333   3.690  17.284   2.815  0.2532  0.1715  0.0440
29260W        W45334  11.888   8.936  10.111  0.0767 -0.0790  0.2175
29261W        W45335  19.202  12.948   1.334 -0.2702 -0.0277  0.3814
29262W        W45336   3.864   2.499  13.636  0.1314  0.0198 -0.3151
29263W        W45337   4.438   5.691   0.352 -0.0208  0.2845 -0.2346
29264W        W45338  17.942  16.682   4.522 -0.1299  0.0329 -0.0571
29265W        W45339  15.678   0.942   0.149 -0.1398 -0.1321 -0.0382
29266W        W45340  18.810   6.044  12.906  0.0475 -0.0362 -0.2562
29267W        W45341  14.621  13.533   4.161 -0.2713 -0.0621 -0.0895
29268W        W45342   1.555   2.820  13.996  0.0415  0.0124  0.1968
29269W        W45343   8.760   8.833   3.021  0.2236  0.1166  0.0386
29270W        W45344   4.015  16.834   3.573 -0.1850 -0.2058 -0.0030
29271W        W45345  13.486  19.213  12.478  0.0953  0.0060  0.1172
29272W        W45346   7.617  18.387  14.508 -0.0915  0.1622  0.3571
29273W        W45347  11.107  14.881  10.502 -0.1606 -0.0756 -0.3086
29274W        W45348   8.780   7.237  10.611  0.1371  0.0100  0.2150
29275W        W45349   7.455   8.669  14.611  0.0506  0.0023 -0.2578
29276W        W45350   8.147   2.706   2.273 -0.1168 -0.0911  0.1576
29277W        W45351   6.367  16.166   1.436 -0.0965  0.0366 -0.2384
29278W        W45352   0.859   1.423  11.894  0.1565 -0.0836  0.1082
29279W        W45353  13.641   8.479   0.433  0.4075  0.2111  0.3299
29280W        W45354   7.449   4.135   1.508  0.0597 -0.1610  0.0496
29281W        W45355  18.116   1.995   4.509 -0.1921  0.1393 -0.2488
29282W        W45356  11.861   6.865   3.667 -0.1752 -0.0330 -0.0577
29283W        W45357  18.582   6.192  10.855  0.0474 -0.1466 -0.2589
29284W        W45358  16.301  10.793   3.044 -0.2325  0.2042  0.1391
29285W        W45359   0.320  15.740  14.867  0.0186 -0.3623 -0.1238
29286W        W45360   5.316  11.300   4.119 -0.0435  0.0152 -0.0969
29287W        W45361  14.676   4.536  12.572 -0.1504  0.0173 -0.2132
29288W        W45362   6.090   6.505  13.014  0.0636 -0.2565  0.1905
29289W        W45363  17.824  12.793   3.621 -0.0532  0.2097 -0.0193
29290W        W45364   9.318   1.807  13.969  0.4621  0.1369  0.2504
29291W        W45365  12.234  17.630   3.723  0.0006 -0.0106 -0.1457
29292W        W45366   7.147   5.646   1.884 -0.0901  0.2087  0.0011
29293W        W45367  16.874   3.878   4.695 -0.2454  0.2462  0.3457
29294W        W45368   4.291   6.143   4.452  0.2165  0.2197 -0.2644
29295W        W45369   5.158   6.374  14.107 -0.1503  0.1659 -0.2552
29296W        W45370  16.871   3.155  12.299 -0.0307 -0.1974  0.1485
29297W        W45371   8.894   4.473  13.213  0.0115  0.0617  0.2336
29298W        W45372  18.994  15.999   2.762  0.0097  0.1146  0.3682
29299W        W45373  15.427   0.112   2.074 -0.4138  0.0486  0.3665
29300W        W45374   5.513   2.266   4.847 -0.1478  0.2732 -0.1300
29301W        W45375  17.614   3.000   0.273 -0.1084 -0.1280 -0.0232
29302W        W45376  12.753  11.098   4.491 -0.2349 -0.0764  0.0607
29303W        W45377  18.267   4.168   2.216 -0.1348 -0.1104 -0.1194
29304W        W45378  16.709   2.913  14.209  0.3074  0.1130 -0.2049
29305W        W45379   1.050   2.912  11.391 -0.2565 -0.1176  0.2951
29306W        W45380   0.585  13.580   5.326 -0.0347 -0.3678 -0.1926
29307W        W45381  10.729  10.511  13.462  0.1719  0.4258  0.0207
29308W        W45382   1.698  18.988   1.358 -0.0068  0.0148  0.2828
29309W        W45383  18.208  13.433   0.453 -0.2339  0.0517  0.0586
29310W        W45384   8.954   1.687   1.628 -0.0596  0.0427 -0.1701
29311W        W45385   4.052   5.818  12.568  0.1096 -0.2085 -0.0619
29312W        W45386   9.628   9.124  14.956 -0.0863  0.0235  0.2528
29313W        W45387   1.861   7.199   4.536  0.0514 -0.2022 -0.0586
29314W        W45388   9.867  13.795   0.735  0.1705  0.2601 -0.0771
29315W        W45389  13.660   8.940  12.462 -0.0368 -0.3398 -0.1902
29316W        W45390   9.931  17.196   1.778 -0.4700 -0.1209 -0.0660
29317W        W45391   8.088   9.636   4.554  0.1670  0.4390 -0.2259
29318W        W45392   4.745   1.040   2.136 -0.0136  0.3414  0.3577
29319W        W45393   5.709  13.552   0.522  0.2630  0.4693 -0.0082
29320W        W45394   7.488  17.056  11.534 -0.0425 -0.1920 -0.0653
29321W        W45395   0.328  18.876   0.436  0.4376  0.1066 -0.2862
29322W        W45396   7.943   6.320  11.665 -0.0183 -0.0888  0.0786
29323W        W45397   1.457   8.598  10.714 -0.1415  0.2570  0.1489
29324W        W45398   3.943   3.427  11.306  0.0762  0.0264 -0.1249
29325W        W45399   0.535   8.365   5.604 -0.0668 -0.2166  0.3778
29326W        W45400   5.904   8.544  11.711 -0.0768 -0.2154 -0.1727
29327W        W45401  13.237  18.886   3.105 -0.2265  0.3150 -0.1131
29328W        W45402  16.189  15.959   1.488 -0.1143 -0.1151  0.0274
29329W        W45403   2.899   8.032   4.134 -0.0179  0.0580 -0.3960
29330W        W45404   7.576  17.173  14.884  0.1648 -0.0479 -0.1790
29331W        W45405   1.327   2.518   0.864  0.1023  0.1283 -0.0710
29332W        W45406  12.341  14.658   0.659 -0.4000  0.3823 -0.0075
29333W        W45407  15.275  15.445  13.659 -0.0527 -0.0672 -0.0460
29334W        W45408  17.645  11.151  13.682  0.0570 -0.0779  0.0483
29335W        W45409   8.374   0.315  11.294 -0.1433  0.0149 -0.2161
29336W        W45410  13.902   1.906   4.579 -0.1799 -0.2413  0.1488
29337W        W45411  18.729  10.635  14.536 -0.3026 -0.0652 -0.2320
29338W        W45412  14.354  10.597   3.716  0.1280  0.0351  0.1663
29339W        W45413   1.802   7.191   2.262  0.0196 -0.1786 -0.3736
29340W        W45414  18.234  13.482   3.812 -0.0842 -0.1851  0.1654
29341W        W45415  16.215   8.013   5.509  0.1498 -0.0692  0.1394
29342W        W45416  11.037   3.792  10.698 -0.1552  0.4428  0.0921
29343W        W45417  13.420  12.809   3.914 -0.3763 -0.0797 -0.1289
29344W        W45418  15.624   5.603   5.191 -0.1858 -0.1263  0.2214
29345W        W45419  11.287  13.357  12.782  0.3248  0.1157 -0.0580
29346W        W45420  14.331  18.038  13.107 -0.1600  0.1286 -0.3697
29347W        W45421   9.909  17.379  14.846 -0.1958  0.1922  0.3849
29348W        W45422  15.110  18.844   3.241  0.1424 -0.2795 -0.0409
29349W        W45423   1.256  12.256   5.570 -0.0618  0.2257  0.1940
29350W        W45424  13.324  10.932   3.478 -0.4108 -0.0785  0.0783
29351W        W45425  17.123  16.773   4.879 -0.2469 -0.1666 -0.1634
29352W        W45426  18.741   9.601  14.647  0.0143 -0.1456 -0.0916
29353W        W45427   6.283  11.167   4.447  0.0694 -0.0132  0.0842
29354W        W45428  14.291  17.023  10.708  0.0789  0.2136  0.3295
29355W        W45429   3.286   4.501   4.667 -0.1011 -0.3203  0.1343
29356W        W45430   8.129  11.606  12.596 -0.1008  0.0563  0.0730
29357W        W45431   7.433   3.747   3.621  0.0175 -0.0117 -0.3225
29358W        W45432   7.334   3.081  13.479 -0.3910 -0.1399  0.3940
29359W        W45433  15.202   5.772  13.604 -0.0534  0.0361 -0.2331
29360W        W45434   0.157  13.472   4.254  0.1271 -0.1888  0.2493
29361W        W45435  13.467  16.877  11.798  0.0427  0.0777 -0.0612
29362W        W45436   7.161   3.346  12.318 -0.1952 -0.1096  0.1080
29363W        W45437  12.290  12.938   4.744 -0.0758  0.1509  0.1210
29364W        W45438   2.965   0.596  13.896 -0.0469  0.0717 -0.0406
29365W        W45439   9.127   4.086   0.805  0.4348  0.3062  0.0534
29366W        W45440  13.660  11.197   4.891 -0.2395  0.0564  0.2843
29367W        W45441  13.105   5.144  13.765 -0.1675  0.2774 -0.1981
29368W        W45442   9.528  17.335   4.293 -0.1265 -0.3769 -0.0459
29369W        W45443  18.956  12.482   4.495  0.3749  0.0285  0.0390
29370W        W45444   6.898   1.865  11.441  0.1655  0.0716  0.0957
29371W        W45445   2.198   0.493  14.317  0.0038 -0.0875 -0.0554
29372W        W45446  17.782  10.552   4.289  0.1763  0.1755 -0.1803
29373W        W45447   8.618  13.741   3.374 -0.0697 -0.2094  0.1054
29374W        W45448   8.521   9.240   1.236  0.0893 -0.0529 -0.2344
29375W        W45449  17.783   2.046  14.498  0.1336  0.0776  0.1442
29376W        W45450   0.659   7.983  13.341  0.1251 -0.0756 -0.0012
29377W        W45451  19.240  15.660  10.127  0.1620 -0.1629 -0.0827
29378W        W45452   1.237   5.730   2.442  0.2904 -0.0254  0.0711
29379W        W45453   7.287   3.326  14.005 -0.1943 -0.0264 -0.3763
29380W        W45454  16.384  10.375  11.140 -0.0352  0.1205  0.2410
29381W        W45455  18.058  18.228  13.322 -0.1145  0.0122  0.1613
29382W        W45456  19.089  11.988  12.629  0.2580  0.1167 -0.0348
29383W        W45457  18.313  16.475   4.993  0.0498 -0.0828  0.0009
29384W        W45458   6.400   5.302  11.027 -0.1807 -0.0143 -0.1082
29385W        W45459  17.275   8.026   1.246  0.3399  0.1658  0.1217
29386W        W45460  18.611  11.684   4.169 -0.0743  0.1065  0.1627
29387W        W45461   8.702   1.755   4.330 -0.0854 -0.1514  0.1075
29388W        W45462   0.233   7.591  13.799  0.1968 -0.2311  0.1921
29389W        W45463  18.089  19.307   3.670 -0.2605  0.0122  0.1286
29390W        W45464  11.216  12.244   0.168  0.0826 -0.2820 -0.0591
29391W        W45465   2.015  13.255   2.446  0.2139 -0.0297  0.2067
29392W        W45466   4.127   8.306  11.308 -0.2378  0.2013 -0.1924
29393W        W45467  16.111  15.404   4.326 -0.0095 -0.5575 -0.3432
29394W        W45468   6.449   9.768   1.581  0.2203 -0.1682 -0.0417
29395W        W45469   1.294   8.808  11.674  0.2675  0.2618  0.0928
29396W        W45470  13.964   3.836  14.344  0.1505 -0.1253 -0.3545
29397W        W45471  15.935   0.209   2.141 -0.0001 -0.1956 -0.1617
29398W        W45472   0.827   4.298  14.741  0.0428 -0.0537  0.2131
29399W        W45473   9.039   7.075   4.422  0.0282 -0.0911 -0.0237
29400W        W45474   7.485   9.862   3.344  0.0459 -0.0540 -0.1777
29401W        W45475   9.464  11.542   0.539  0.0849 -0.3685 -0.2003
29402W        W45476   8.909   4.480   0.972  0.3052 -0.1606  0.1631
29403W        W45477  15.149  12.110  12.422 -0.0002  0.0053  0.0259
29404W        W45478   4.449  17.492   3.396  0.0145  0.2312  0.0677
29405W        W45479  13.982   8.228   1.415  0.4382 -0.2387 -0.1626
29406W        W45480   0.290  10.136   5.495 -0.1681  0.3017  0.1054
29407W        W45481   7.708   5.409  12.185  0.0285 -0.1646  0.0538
29408W        W45482  11.563   4.083   0.796  0.3937  0.4211  0.2646
29409W        W45483  15.435   9.932   2.738 -0.2638 -0.0360 -0.3372
29410W        W45484   6.028   5.707   4.474  0.0110 -0.1702 -0.1689
29411W        W45485  16.930  10.154   6.632  0.1056  0.1534 -0.2541
29412W        W45486   6.218  12.345  12.782  0.2142 -0.1421  0.0546
29413W        W45487  16.206  16.615   3.271  0.3389  0.4334 -0.0522
29414W        W45488   3.759  13.511  14.154  0.0425 -0.4488 -0.1365
29415W        W45489   6.051   4.179  12.042  0.1198 -0.1676  0.0415
29416W        W45490  10.929  15.207   1.358  0.1384 -0.1546  0.0058
29417W        W45491  12.278   7.316   0.783 -0.1997 -0.2211  0.0960
29418W        W45492   0.369   6.644   5.038  0.0169 -0.0015 -0.0571
29419W        W45493  17.078  13.537   2.541 -0.3878 -0.0509 -0.1216
29420W        W45494   0.269  17.798  11.307 -0.0704 -0.0857 -0.1035
29421W        W45495   0.206  18.197  13.065 -0.1468  0.0617  0.1151
29422W        W45496  17.754  15.873   0.113 -0.2355  0.1135  0.1480
29423W        W45497   1.197  14.919   0.182 -0.0091  0.0832 -0.0576
29424W        W45498  12.280  11.667  10.338  0.1129  0.0487  0.2236
29425W        W45499  18.815   8.879   4.111 -0.1989 -0.1700 -0.1555
29426W        W45500   5.634   6.561   3.179 -0.0129  0.0906  0.4901
29427W        W45501  15.119   8.988  11.818  0.0408  0.4639  0.0247
29428W        W45502   4.205   6.848  11.305  0.2623  0.3019  0.0527
29429W        W45503  13.791   3.679  12.267  0.2076 -0.2349 -0.2123
29430W        W45504   2.321  12.944  12.652  0.1013  0.1099  0.0389
29431W        W45505  10.437   0.780   4.879  0.2100  0.0768 -0.0277
29432W        W45506  18.649  16.180  13.020 -0.2742 -0.0329 -0.1296
29433W        W45507   0.669  16.826   4.071 -0.1527  0.2054 -0.2620
29434W        W45508   5.765  14.974  10.409  0.0746 -0.0417 -0.2086
29435W        W45509  11.477   1.060   2.333  0.1047  0.1047  0.4435
29436W        W45510  10.650  16.207   3.601  0.2621  0.0984  0.2107
29437W        W45511  18.715   9.249  11.182  0.0383 -0.1306 -0.0567
29438W        W45512  11.864   8.036   1.788 -0.0429 -0.3518 -0.1294
29439W        W45513  16.724   3.597   2.031 -0.4844  0.2070 -0.5332
29440W        W45514   6.433  12.788  13.159  0.1554 -0.1195  0.1408
29441W        W45515  16.630   7.295  10.866  0.1108  0.0611 -0.2196
29442W        W45516  10.637  16.836  13.057  0.2697  0.1628 -0.2614
29443W        W45517   8.602  17.636  13.421 -0.2065 -0.2740 -0.1462
29444W        W45518   8.098  18.502  13.310  0.0983 -0.2320 -0.0755
29445W        W45519   6.296  14.372   4.807 -0.1284 -0.0129  0.1332
29446W        W45520  17.668  13.897   1.130 -0.0341  0.2318  0.1570
29447W        W45521   7.567   5.418  12.678  0.0280  0.0659  0.0094
29448W        W45522  13.384   0.484   2.030  0.0305 -0.2040 -0.0657
29449W        W45523   0.148  15.595   2.574  0.1491 -0.1454  0.0330
29450W        W45524   3.962  11.110  11.903 -0.2572 -0.1643  0.1032
29451W        W45525  18.282   7.732   2.723 -0.1273 -0.0687 -0.0183
29452W        W45526   6.892   2.607   4.955  0.0650  0.3075 -0.1646
29453W        W45527   6.340  15.021  14.648  0.2359  0.4474 -0.0927
29454W        W45528  12.635  13.966  12.208 -0.2733  0.2320 -0.2276
29455W        W45529  19.320   8.867   4.150 -0.1850 -0.0436  0.0916
29456W        W45530  10.400   1.259   2.315 -0.2154 -0.1535  0.0696
29457W        W45531  10.359   2.180   2.990  0.1965  0.1186  0.3080
29458W        W45532  14.525  17.344  12.038 -0.0932  0.1050  0.6669
29459W        W45533  13.966  18.433   1.199 -0.3278  0.0799  0.0793
29460W        W45534  16.882   0.999   2.326 -0.1561  0.0038 -0.0445
29461W        W45535  10.077  11.905  14.390  0.4222  0.1157 -0.2100
29462W        W45536  18.342   0.362   3.856  0.2035  0.1387 -0.4748
29463W        W45537  16.490  11.714  10.659  0.2524 -0.0387  0.0356
29464W        W45538  18.132   3.988  13.880  0.1830 -0.0389  0.1733
29465W        W45539  11.699  10.936   1.286  0.0700  0.0362 -0.1243
29466W        W45540   2.349   2.112  11.837 -0.1330  0.0410 -0.2661
29467W        W45541   3.570   6.640  10.509  0.0230 -0.2399 -0.4353
29468W        W45542   6.271  12.569   3.307 -0.0366 -0.0565  0.0437
29469W        W45543  14.885  14.805  12.920 -0.0713 -0.2185  0.3719
29470W        W45544   3.948   3.945   0.468 -0.2296 -0.0048 -0.3750
29471W        W45545   3.760  10.317   0.620 -0.0122 -0.1176 -0.3738
29472W        W45546   1.056   1.845  12.252  0.1204  0.4194  0.1352
29473W        W45547  10.158  11.056  11.560  0.1640  0.0361 -0.0395
29474W        W45548   0.460  11.208   2.479 -0.2010  0.0952  0.2346
29475W        W45549  13.074   8.425   0.959 -0.2110  0.0167 -0.0754
29476W        W45550   7.027  11.637   3.949 -0.0256 -0.0877 -0.0472
29477W        W45551  19.023  15.949   4.266  0.2977 -0.0543  0.0767
29478W        W45552  19.245  13.395   1.135 -0.1581 -0.1394  0.2681
29479W        W45553  15.215   8.987  12.281 -0.0616  0.2649 -0.3275
29480W        W45554   9.620  14.125  13.468 -0.1788  0.0189 -0.0235
29481W        W45555  13.541   9.794   5.026 -0.2395 -0.3341  0.1741
29482W        W45556  10.620   2.234   9.981  0.2051  0.0542  0.2196
29483W        W45557  14.337   5.060   1.622  0.2154  0.0583 -0.0802
29484W        W45558   1.513  19.287   5.313  0.0030 -0.0640  0.1485
29485W        W45559   0.562  14.825   4.614  0.0110  0.1173  0.3715
29486W        W45560   3.711  18.565  11.733 -0.0012  0.6404  0.1520
29487W        W45561  11.073  11.096   3.707  0.2162 -0.0472 -0.1130
29488W        W45562   1.819   1.288   0.296  0.1016  0.0140 -0.2612
29489W        W45563   2.546   6.873  14.434  0.2251  0.0007  0.2747
29490W        W45564   3.633  19.260  13.838  0.2843  0.2649 -0.1893
29491W        W45565   2.770  10.251   2.644 -0.2537  0.3162  0.0262
29492W        W45566   2.112  16.682   1.834 -0.1220 -0.0753  0.0683
29493W        W45567   6.373  19.239  12.588 -0.4157  0.4268  0.0463
29494W        W45568   3.119   3.846   4.071  0.0510  0.1206 -0.0532
29495W        W45569  15.781   1.348  14.804  0.0986  0.1905 -0.4355
29496W        W45570   3.383  15.175   4.065  0.1930 -0.6103  0.1367
29497W        W45571  13.056   5.765  13.338  0.1216 -0.1424  0.0897
29498W        W45572  13.951   6.902  13.187 -0.4213  0.1173 -0.1404
29499W        W45573  14.095   8.141  13.210 -0.0651  0.1735  0.2896
29500W        W45574  13.120   4.479  14.401 -0.1326 -0.0226  0.0779
29501W        W45575   5.926  11.571   3.022  0.0494 -0.1480 -0.2496
29502W        W45576   3.253   9.178   3.543  0.0671 -0.1637  0.0437
29503W        W45577  14.476   6.850   0.329 -0.0876 -0.1784 -0.2259
29504W        W45578  12.079  13.647  10.825 -0.1064  0.0901  0.0249
29505W        W45579  10.479  16.623  10.089 -0.0111  0.0229 -0.1099
29506W        W45580   6.265   8.507   3.224 -0.1008  0.2135 -0.0923
29507W        W45581  17.277  14.366   5.320 -0.3662 -0.0502  0.3159
29508W        W45582   3.604  13.119  11.180 -0.0833  0.1946  0.1140
29509W        W45583   3.192   4.221   1.829 -0.0616  0.0100  0.0517
29510W        W45584   4.889   4.499  10.254 -0.0973 -0.2140 -0.0253
29511W        W45585   8.531   5.328   1.589 -0.0928  0.1512  0.1762
29512W        W45586   0.659   3.705  13.323  0.3010 -0.0581  0.1426
29513W        W45587  11.484   3.333   1.816 -0.2828  0.0562  0.1193
29514W        W45588   2.746  17.149   4.571 -0.1764  0.1731 -0.1779
29515W        W45589  17.742   2.902  13.192 -0.1433  0.0943 -0.0784
29516W        W45590  14.073  14.213   5.096 -0.2249 -0.1172 -0.2392
29517W        W45591   6.283   0.383   3.799 -0.1496 -0.0667 -0.0029
29518W        W45592   3.326   2.742   3.008 -0.0093 -0.3065  0.1656
29519W        W45593   8.453   9.075   1.844  0.1341  0.1003 -0.0108
29520W        W45594   0.318   6.079  13.433 -0.2956  0.0825  0.2911
29521W        W45595   1.174  12.599  11.399  0.1148  0.2106 -0.0703
29522W        W45596   0.484   6.189   5.232  0.0491 -0.3126 -0.0581
29523W        W45597  18.568   1.005   3.541  0.0281 -0.2181  0.3668
29524W        W45598   2.570   8.036   0.673  0.0138 -0.1805 -0.1101
29525W        W45599  18.978   9.624  13.469  0.2919  0.2277 -0.0032
29526W        W45600  15.630   6.898   2.849 -0.1795  0.3086  0.0004
29527W        W45601  17.643  11.792  10.571  0.0935 -0.0586 -0.0792
29528W        W45602  13.129   3.700   1.765 -0.2606 -0.0510 -0.0159
29529W        W45603   8.143   7.198  13.722  0.1197  0.1892 -0.2575
29530W        W45604   9.537   7.449   1.330 -0.3655 -0.0854  0.0926
29531W        W45605  12.651  17.706   0.811  0.0977  0.1618  0.1677
29532W        W45606   0.386   7.794  12.803 -0.0230  0.1469 -0.0253
29533W        W45607   4.144  13.146  12.282 -0.2267  0.1554  0.1581
29534W        W45608  17.043   8.384   1.053  0.1352 -0.1033  0.0915
29535W        W45609  15.919  11.578  14.567  0.1801  0.0033 -0.1556
29536W        W45610   3.100   7.618   4.390 -0.0486 -0.1460  0.2137
29537W        W45611  14.794  16.325  11.362 -0.0430 -0.0907  0.0683
29538W        W45612   3.580   8.764   5.034  0.1313 -0.0489 -0.0179
29539W        W45613  15.274  11.782   2.393  0.2065 -0.3093 -0.2830
29540W        W45614   5.104   8.253  14.627  0.2803 -0.1432  0.0560
29541W        W45615   7.835   1.736  14.286 -0.1034 -0.0723  0.2257
29542W        W45616  14.483   8.101  11.489 -0.2962  0.0159  0.0055
29543W        W45617  14.706   7.192   1.407 -0.0317 -0.1707  0.1234
29544W        W45618  17.751   6.374  11.748 -0.1105 -0.3006 -0.0072
29545W        W45619   8.393   2.825  13.359  0.1762 -0.0991  0.2145
29546W        W45620  15.842   7.592   0.450 -0.2994  0.2336  0.0852
29547W        W45621   1.852  10.773   1.733 -0.0335  0.1075  0.1979
29548W        W45622   3.380  12.160  13.341 -0.0591  0.3179  0.2563
29549W        W45623   0.910   9.802  11.864  0.1098  0.0126 -0.2512
29550W        W45624  17.218   6.341  11.932  0.1070 -0.2627  0.0495
29551W        W45625  17.596   5.728  14.722  0.0775 -0.4787  0.1972
29552W        W45626   2.143   3.565  10.045  0.2379 -0.0597  0.0079
29553W        W45627   3.318   7.049   3.093 -0.0490  0.2409 -0.0235
29554W        W45628   8.245  14.462  10.228  0.0701 -0.1264 -0.0493
29555W        W45629  16.517   6.913  12.290 -0.4942  0.1044 -0.0810
29556W        W45630   7.657   1.038  13.972  0.1038 -0.2703 -0.1378
29557W        W45631   2.852  10.865  10.838 -0.1835  0.4030 -0.0831
29558W        W45632   4.319   3.372   2.420 -0.0443  0.0131  0.2640
29559W        W45633  16.437  12.207   0.386 -0.1600 -0.0545  0.0358
29560W        W45634   1.420   7.988   3.220  0.0618  0.0184 -0.1282
29561W        W45635  15.096  15.477   0.184 -0.0908 -0.2597  0.0277
29562W        W45636  19.284  16.679  11.441  0.0235  0.0327 -0.2263
29563W        W45637   8.738  15.114  14.442 -0.0608 -0.3425 -0.3295
29564W        W45638   4.359   1.039  12.267 -0.0181 -0.0522 -0.0736
29565W        W45639  17.124   9.208  11.247  0.0561  0.2553  0.1574
29566W        W45640  17.826  11.117   1.917  0.0297  0.3302  0.3344
29567W        W45641  14.616   0.243   0.419 -0.0968  0.2196 -0.1930
29568W        W45642  17.374   2.508   3.202  0.1049 -0.0147 -0.1223
29569W        W45643   5.323   0.002  14.151  0.3402 -0.2255  0.3266
29570W        W45644   0.849  12.731  11.076 -0.3159 -0.2813  0.0487
29571W        W45645  12.433   2.868  10.771  0.0472  0.0928  0.0933
29572W        W45646   9.295   8.821   2.965  0.2684  0.1678 -0.0434
29573W        W45647  18.528   3.504   4.521 -0.0563  0.1296 -0.1858
29574W        W45648   5.176   0.497  13.316  0.0253 -0.4195  0.2373
29575W        W45649  16.193   1.947   3.644 -0.2718  0.2169 -0.1437
29576W        W45650   1.520   7.329   0.474 -0.1167 -0.2362  0.0191
29577W        W45651  13.679   2.430   1.138 -0.0059  0.3204  0.1105
29578W        W45652   6.835   4.677   3.993 -0.0918  0.0199  0.1645
29579W        W45653   0.642  14.428  11.972 -0.2002  0.2027  0.0752
29580W        W45654   1.298   8.299  11.701  0.1213  0.0242 -0.0751
29581W        W45655   9.522  13.364   3.602  0.0504  0.1217 -0.4032
29582W        W45656  16.549   1.660  10.069 -0.0168  0.2913  0.0109
29583W        W45657   7.797  10.799  13.261  0.2221 -0.1508 -0.1086
29584W        W45658  12.026  12.473  13.476  0.1142  0.2744  0.1953
29585W        W45659   5.562   8.922  11.110  0.0205 -0.0263 -0.2558
29586W        W45660   2.006  10.150   4.186 -0.0312 -0.2726 -0.1167
29587W        W45661  16.074  13.162  11.400 -0.3143 -0.0541  0.0131
29588W        W45662   1.798  11.765   1.155  0.0216  0.2639 -0.0584
29589W        W45663   7.592   0.295   1.062  0.0487  0.2928 -0.1368
29590W        W45664   5.186   7.274  10.688  0.1214 -0.1247 -0.0006
29591W        W45665  15.314   8.553   0.449  0.1009 -0.3913  0.0443
29592W        W45666  14.923  11.307   2.392 -0.1122 -0.0202  0.1526
29593W        W45667  18.654   3.836  10.875  0.1529  0.0678 -0.1907
29594W        W45668   2.386   5.105  13.040  0.0973 -0.1894  0.0259
29595W        W45669   6.464  13.577   0.949  0.1755 -0.0264  0.1991
29596W        W45670  13.721  19.183  13.216  0.1304  0.1568 -0.1346
29597W        W45671   8.093  18.298   9.271  0.5409  0.0012 -0.2895
29598W        W45672  10.951  10.379   4.404  0.0034  0.1957  0.0439
29599W        W45673  17.101  12.417   1.963 -0.0077  0.0845  0.1785
29600W        W45674   2.990   9.028  11.740 -0.1619 -0.3946 -0.0036
29601W        W45675   7.204  14.975  10.668  0.1539  0.0652 -0.1195
29602W        W45676   6.108   3.228   1.724  0.0735  0.2445 -0.0229
29603W        W45677   6.928  12.148   3.970  0.2158 -0.1419 -0.1994
29604W        W45678   4.478   5.314  10.610 -0.1839  0.0599 -0.1131
29605W        W45679  14.308  12.838   2.218 -0.0460 -0.0831 -0.3545
29606W        W45680   6.786   7.565  12.237  0.6906  0.0846 -0.0179
29607W        W45681  18.917  15.189   0.388  0.0813  0.2840 -0.2956
29608W        W45682  10.014   8.132   0.835  0.2011 -0.2700 -0.0652
29609W        W45683  18.808  11.453  11.169  0.0762  0.1610  0.0417
29610W        W45684  18.691  15.113   2.056  0.0863  0.3259 -0.2324
29611W        W45685  15.086  17.538   1.298 -0.0533  0.0740  0.1551
29612W        W45686  16.435  16.332   3.875  0.0434 -0.2055 -0.2137
29613W        W45687   4.459   4.962  11.570  0.1125  0.2955 -0.1785
29614W        W45688   7.490   7.287   0.803 -0.0739 -0.0792  0.0623
29615W        W45689   1.616   4.555  13.514  0.2578 -0.3423  0.1948
29616W        W45690  10.303  13.672   0.302  0.0224  0.0819  0.0758
29617W        W45691   8.086   2.128  13.588 -0.1691  0.3196  0.4333
29618W        W45692  11.453   1.842  13.416  0.1708 -0.0336  0.0102
29619W        W45693  14.810   5.564   4.864 -0.1328  0.4069 -0.1890
29620W        W45694  10.677   2.142  13.134  0.0523  0.1540  0.0972
29621W        W45695  14.131  19.338   2.964 -0.1262 -0.3813 -0.3030
29622W        W45696   1.411  16.512   4.752 -0.0086  0.2157 -0.1297
29623W        W45697   4.277   8.202   1.342  0.2337 -0.0313  0.0707
29624W        W45698  10.903   6.952  14.591  0.2291  0.1234 -0.0294
29625W        W45699   0.549  15.923   2.261 -0.0736 -0.3654 -0.1382
29626W        W45700   7.385   3.550  13.256 -0.0287  0.0357  0.0237
29627W        W45701  13.145  15.483   4.707  0.1227  0.0211  0.1462
29628W        W45702  10.021   0.353  11.200 -0.0240 -0.0856  0.0268
29629W        W45703   4.468  15.118  10.788  0.0328 -0.1765 -0.1159
29630W        W45704   3.671  16.951  12.051 -0.0795  0.0594 -0.0630
29631W        W45705  11.436   8.509  10.726 -0.1006  0.1945  0.1247
29632W        W45706  17.864  16.226   4.300 -0.2281 -0.0562  0.0331
29633W        W45707   6.516   9.790   0.561  0.1152 -0.2519 -0.0021
29634W        W45708  15.857  11.393   4.696 -0.0950  0.1245 -0.2097
29635W        W45709  12.379   4.806   2.227 -0.1371  0.1105  0.1756
29636W        W45710  17.096   0.102   0.515 -0.0775  0.3919  0.3739
29637W        W45711   0.047  16.036  13.789 -0.0746 -0.1541  0.0033
29638W        W45712   5.402   3.648  11.664  0.0377 -0.3586 -0.0680
29639W        W45713  16.508   1.282  11.498  0.1789  0.1857  0.2866
29640W        W45714  10.916  18.789   3.828 -0.1397 -0.3421 -0.0134
29641W        W45715   3.709  14.879  14.201 -0.2789 -0.1581  0.4304
29642W        W45716  11.811  18.330  13.779  0.1640  0.0396 -0.1607
29643W        W45717  11.041   3.724  13.012  0.0826 -0.2044 -0.3997
29644W        W45718  16.694  17.120   6.079 -0.0313  0.1321  0.2129
29645W        W45719  10.052   6.190  12.403  0.4565  0.0714 -0.0666
29646W        W45720   6.172  10.098   0.473  0.1482 -0.1822 -0.2003
29647W        W45721  18.624  17.005  14.039 -0.1723  0.0678  0.1738
29648W        W45722   9.667  17.975  13.427  0.1793  0.1852  0.0996
29649W        W45723  15.992  15.813   3.590 -0.1780 -0.2770  0.0084
29650W        W45724  10.283   7.991  13.918  0.1364 -0.0511 -0.0777
29651W        W45725  11.792   3.035   5.004  0.2379  0.2331  0.2331
29652W        W45726   7.352   8.992   4.886 -0.3272 -0.0669  0.1014
29653W        W45727  10.989   1.482   1.119 -0.1405 -0.1179  0.2249
29654W        W45728   9.165   4.970  11.775 -0.1492  0.0674 -0.2148
29655W        W45729  16.918  14.659  11.496 -0.0845 -0.0342 -0.0255
29656W        W45730   9.018   8.188  12.056 -0.0891  0.1807  0.2288
29657W        W45731   6.832  12.745   3.593 -0.0378 -0.3381 -0.0181
29658W        W45732  18.489  12.994   0.608 -0.0359 -0.0933 -0.1655
29659W        W45733  14.019  17.898   3.401  0.0758 -0.2648 -0.2294
29660W        W45734  12.616  17.810   4.158  0.0410  0.5723  0.1050
29661W        W45735   0.309   7.240   2.148  0.1165  0.0408  0.0315
29662W        W45736  19.127  14.226  12.621 -0.0969 -0.2401 -0.1279
29663W        W45737   3.367  11.156  10.199 -0.1890  0.0354 -0.0349
29664W        W45738  11.629   3.342  12.011  0.2077 -0.2322 -0.0912
29665W        W45739  15.322   0.641   4.436  0.2693 -0.0153  0.1268
29666W        W45740   5.639   6.110   1.700 -0.2506  0.0782  0.0469
29667W        W45741   2.229   3.934   0.722  0.2051  0.3158  0.0707
29668W        W45742  12.953  10.468  11.450 -0.2139 -0.1655  0.1957
29669W        W45743  14.395  18.903  13.785  0.0938  0.1223 -0.1502
29670W        W45744  16.887   5.206   1.356  0.0064 -0.0309  0.1218
29671W        W45745  18.834   2.642   3.236  0.1826 -0.2621 -0.2718
29672W        W45746  16.581  12.908  12.751  0.0663 -0.0657 -0.0011
29673W        W45747   0.323  18.696   5.875 -0.0390  0.2996  0.0521
29674W        W45748   2.606   4.158   5.153 -0.0863 -0.0068 -0.4053
29675W        W45749  14.251  12.927  11.529  0.2802 -0.4399 -0.0199
29676W        W45750   2.801  13.623   4.197  0.0493 -0.0557  0.3477
29677W        W45751   8.411   5.250   1.020 -0.1012 -0.1425  0.0358
29678W        W45752  18.451   8.697  14.242 -0.0795  0.3561  0.2618
29679W        W45753  17.472   7.892  12.605  0.2862 -0.1589 -0.1507
29680W        W45754   1.714   1.746  13.410 -0.2017 -0.0749 -0.3754
29681W        W45755   2.901  11.619   3.609 -0.2024  0.1164 -0.0601
29682W        W45756   5.398   4.048   2.519  0.1952  0.1128  0.3816
29683W        W45757  14.410  10.512  14.225 -0.3811 -0.2592 -0.1965
29684W        W45758   5.260   9.445  13.282 -0.1046  0.1027  0.0168
29685W        W45759  15.135   0.901  14.279  0.2752 -0.1065  0.0683
29686W        W45760   1.859  13.359   1.997 -0.2188  0.0210 -0.0435
29687W        W45761  11.535  10.762  10.626 -0.1345 -0.2158 -0.3355
29688W        W45762   1.169   8.577  12.877  0.1430  0.2856  0.0143
29689W        W45763   9.213  12.881  14.182  0.1939 -0.0615 -0.5092
29690W        W45764  19.175  18.278  12.545 -0.1422  0.1116  0.4218
29691W        W45765   5.864   5.024  11.096  0.0675  0.1502 -0.1060
29692W        W45766  10.076  14.724  14.663  0.1221  0.3116  0.1812
29693W        W45767  17.763  14.342   3.636  0.0133  0.2459 -0.0889
29694W        W45768   0.872   8.158  11.956 -0.0726 -0.0742 -0.1351
29695W        W45769  17.304  16.015   4.907 -0.0327  0.2687  0.1145
29696W        W45770   6.762  15.790   1.423  0.0866 -0.2504 -0.1461
29697W        W45771   7.230   4.531  13.290  0.1108 -0.3333  0.2488
29698W        W45772   4.182   3.732  14.052  0.2091  0.1058  0.3584
29699W        W45773  10.578   1.256   3.187  0.0240 -0.1180  0.0993
29700W        W45774  11.914   1.295   2.273  0.1773  0.2225 -0.1650
29701W        W45775   1.510  17.272  14.941 -0.2540 -0.1484  0.1831
29702W        W45776  14.877  13.123   4.450 -0.0490  0.4082 -0.2251
29703W        W45777   0.438  13.039   2.681 -0.1796 -0.1428 -0.0773
29704W        W45778   9.252   1.384   2.937 -0.0985  0.2614  0.2198
29705W        W45779   7.786  14.838  10.378  0.1158 -0.2666 -0.0659
29706W        W45780  19.002   1.739   3.521  0.0131 -0.1382  0.0378
29707W        W45781   0.083   1.721   0.148  0.0636  0.0371  0.4449
29708W        W45782  18.608  15.703  10.170 -0.2096 -0.0267 -0.0750
29709W        W45783  11.847  19.025   3.498 -0.0757 -0.2472 -0.1893
29710W        W45784   6.799   6.265  14.058 -0.1839 -0.0095 -0.0338
29711W        W45785   6.611   5.248   2.925 -0.2550  0.5094 -0.0491
29712W        W45786  12.045   6.061  12.463 -0.2729  0.4223  0.3048
29713W        W45787   5.103   5.996   2.263 -0.1118 -0.3847  0.1352
29714W        W45788   0.077   4.733   3.282 -0.2274  0.2009 -0.3067
29715W        W45789  12.597  18.278   0.947  0.0770  0.4240  0.0732
29716W        W45790   4.957  12.273   4.973  0.6057  0.0324 -0.2154
29717W        W45791  19.039   3.596   4.775 -0.0986  0.1958 -0.3991
29718W        W45792   0.441  14.473   0.095  0.0045  0.1658  0.1167
29719W        W45793   7.831   7.494   3.159 -0.0648 -0.0612 -0.2695
29720W        W45794   5.214  14.482  14.330  0.2018 -0.0051 -0.0243
29721W        W45795  19.313  12.738   0.852  0.3559 -0.2477 -0.2856
29722W        W45796   6.977   4.972  13.230 -0.0526  0.1846  0.0697
29723W        W45797   9.523   8.186   2.986  0.3590 -0.1961  0.1952
29724W        W45798  12.326  14.228   0.457  0.1056  0.3033 -0.3231
29725W        W45799   3.116   5.955  13.124  0.2267  0.2299  0.0136
29726W        W45800   2.866   4.900   3.623  0.0267  0.0153 -0.2297
29727W        W45801  13.801  13.538   2.834  0.0127  0.2215  0.0441
29728W        W45802  15.549   9.130   2.308  0.1672 -0.0908 -0.2210
29729W        W45803   2.612  18.830   1.694  0.0524  0.1388  0.1665
29730W        W45804   1.379   1.168  11.884  0.1095 -0.0698  0.0414
29731W        W45805  16.094   7.234   3.816 -0.1238  0.0024 -0.0584
29732W        W45806   5.287   3.525   2.304 -0.2081  0.1149 -0.3280
29733W        W45807   9.174  15.990   0.661 -0.1086  0.3630  0.0966
29734W        W45808   7.520  13.440   4.567 -0.1132  0.1000 -0.1045
29735W        W45809  16.748  13.340   2.891 -0.1946 -0.1291 -0.0803
29736W        W45810   0.371   1.252   5.157 -0.0134 -0.0530  0.1492
29737W        W45811   3.804   0.831  10.037  0.2728  0.0893 -0.1401
29738W        W45812  10.307   3.815   3.677 -0.2809 -0.2098  0.0634
29739W        W45813   8.552   2.405  13.714 -0.2153 -0.2269  0.1006
29740W        W45814   9.288  12.275  11.938  0.0700 -0.0615 -0.1817
29741W        W45815  17.692  16.549   0.725 -0.0202  0.3881  0.1002
29742W        W45816   8.287  18.683   3.999  0.0689 -0.0274  0.1148
29743W        W45817  14.062   2.298   2.433 -0.1836 -0.0710  0.1110
29744W        W45818   5.965   1.290   3.065 -0.2443  0.3586 -0.1234
29745W        W45819  17.089  13.238  10.856 -0.2503 -0.0235 -0.1968
29746W        W45820  10.758   2.616  12.907 -0.0370 -0.1901 -0.1388
29747W        W45821   7.407   7.027  10.149  0.1689 -0.0355  0.1498
29748W        W45822   3.201  15.680   0.257 -0.0388 -0.0856  0.3068
29749W        W45823   5.255  13.930  11.893  0.1039 -0.2476  0.0576
29750W        W45824  15.918  17.329  13.783 -0.0103  0.1572  0.2159
29751W        W45825   4.491   0.381  12.911 -0.1712 -0.6590 -0.0419
29752W        W45826  14.001  10.422   0.512  0.0574  0.2454 -0.0512
29753W        W45827   7.261  13.417  12.075 -0.1414  0.3170  0.0514
29754W        W45828   7.072   9.029   1.529 -0.1696 -0.0569 -0.1401
29755W        W45829  11.572   7.664   1.492  0.2718  0.3270  0.0392
29756W        W45830  16.970  13.193   5.517 -0.3117 -0.0514  0.3468
29757W        W45831   4.441   3.198  11.545 -0.1509  0.2281 -0.0805
29758W        W45832   9.396  11.320   3.155  0.2544  0.4462 -0.0869
29759W        W45833   6.047   1.157   0.401 -0.0211 -0.1335 -0.1083
29760W        W45834   2.554   1.719   2.599 -0.0340 -0.0544 -0.0035
29761W        W45835  16.986  15.623   3.998 -0.3127  0.0157 -0.0970
29762W        W45836  11.671   2.216  14.822 -0.5564  0.0737 -0.0140
29763W        W45837  13.443  11.490   3.017  0.1983 -0.0889  0.2274
29764W        W45838   5.717  16.430   3.946  0.0600  0.3776  0.0661
29765W        W45839   0.049   0.848   2.240  0.0667  0.2364 -0.1217
29766W        W45840   1.978   6.172  12.389  0.1092  0.0866 -0.1640
29767W        W45841   2.040   9.460   4.147  0.2667 -0.0571  0.1090
29768W        W45842  14.381   9.639   4.874  0.2798  0.3156  0.1082
29769W        W45843  15.867  16.358   5.268  0.1686  0.1830  0.0470
29770W        W45844  15.956  12.506   1.704 -0.5302  0.1126 -0.2740
29771W        W45845   8.336   1.956  12.596  0.0268  0.2195 -0.1106
29772W        W45846   3.169   2.739  13.219  0.0453 -0.1082  0.3627
29773W        W45847  13.933   6.462   1.874 -0.0442  0.0567  0.2490
29774W        W45848  10.779   5.376   3.731  0.0966  0.2565  0.1082
29775W        W45849  13.782  13.356  13.809 -0.2335  0.4464 -0.1695
29776W        W45850   1.700   9.634   0.794 -0.0852  0.2720  0.1096
29777W        W45851   9.139   6.899   2.358  0.0362 -0.2754 -0.0505
29778W        W45852   6.497  17.198  11.213  0.3927  0.0078  0.0040
29779W        W45853  18.243  18.961  13.525 -0.0735 -0.2007 -0.2986
29780W        W45854  14.115   3.318  11.758 -0.1158 -0.1322  0.3734
29781W        W45855   1.551   8.260  13.178  0.1034  0.4118  0.0597
29782W        W45856  15.075   2.229   4.907  0.1094  0.0067 -0.0574
29783W        W45857  12.710   6.747   0.540 -0.0251 -0.0171  0.0218
29784W        W45858   7.160  12.428  13.896  0.0257  0.0280  0.0666
29785W        W45859  17.893  16.178   4.814 -0.2797 -0.0873 -0.2402
29786W        W45860  12.428   4.908   0.364  0.1036 -0.1525 -0.2298
29787W        W45861   9.180   5.606   2.920 -0.0676 -0.0507 -0.0010
29788W        W45862   6.170  16.135  13.974  0.4953 -0.0320 -0.4249
29789W        W45863  17.519  11.068   4.230  0.1377 -0.1318  0.1456
29790W        W45864   6.180  10.792   2.154 -0.2321 -0.1923  0.1607
29791W        W45865   2.751   8.732  13.567 -0.0377 -0.0363 -0.1986
29792W        W45866  10.062   7.348  12.380  0.1345 -0.2114  0.0309
29793W        W45867   9.467   7.668  14.266 -0.4526  0.0776 -0.0730
29794W        W45868   7.135   0.757  12.027 -0.1419  0.2796  0.1524
29795W        W45869  10.265   8.691  13.976 -0.0366 -0.3474 -0.0112
29796W        W45870   8.383   6.237  13.567 -0.2925 -0.4861  0.1886
29797W        W45871  15.182  11.793  12.819 -0.0674  0.2497  0.3463
29798W        W45872  13.036  11.668   5.430  0.0390  0.1946 -0.0786
29799W        W45873   8.481   4.299  10.308  0.1901  0.0548  0.0025
29800W        W45874   8.173  11.319   1.670 -0.0511 -0.0524  0.1502
29801W        W45875  18.335   0.714   9.762 -0.1978 -0.1456 -0.1125
29802W        W45876   9.393   2.851   2.238  0.0651  0.2572  0.1031
29803W        W45877   7.423   1.218  14.988  0.4014 -0.2484  0.1163
29804W        W45878  16.688  16.671   2.372  0.0037 -0.3072  0.2411
29805W        W45879  12.019   0.473   1.293 -0.1914  0.1456  0.0132
29806W        W45880  17.991   3.378   0.155 -0.1948 -0.1692  0.2084
29807W        W45881   4.005  13.713   0.189 -0.0305  0.1231  0.0228
29808W        W45882   6.090   9.376  11.660  0.1940 -0.0525  0.2083
29809W        W45883   5.002   3.363   2.845  0.0228 -0.1275 -0.1362
29810W        W45884  12.791  13.137   4.739  0.3472  0.1321  0.2173
29811W        W45885   2.975  13.095  13.193 -0.1473 -0.1164 -0.1595
29812W        W45886   9.411   6.005   1.492  0.0440 -0.3148  0.0929
29813W        W45887   7.018   1.549  13.765  0.2039  0.0620  0.0567
29814W        W45888  12.767  10.586   4.523 -0.0166  0.1383 -0.0784
29815W        W45889   3.677   1.580   2.793 -0.3654 -0.1410  0.1647
29816W        W45890  15.749  19.235  12.717  0.0170 -0.1830 -0.1505
29817W        W45891  18.022   3.876   1.193 -0.0994  0.1306  0.1338
29818W        W45892  16.463  11.516   6.214 -0.3830  0.0329 -0.0064
29819W        W45893   2.689  13.867   1.906  0.0164 -0.0813 -0.2864
29820W        W45894  19.152   1.422   3.890 -0.1921 -0.2324 -0.2708
29821W        W45895   1.577   3.795  12.259 -0.0516  0.0789  0.1153
29822W        W45896  17.739  16.399  11.181 -0.0010  0.0474  0.0706
29823W        W45897  11.014  15.260  13.018  0.2488 -0.0740 -0.0814
29824W        W45898   3.744  16.806  14.121 -0.0316 -0.4113 -0.2764
29825W        W45899  13.876   7.048   1.918 -0.0174  0.0622  0.0876
29826W        W45900   0.474   5.128  14.423  0.1232  0.4647 -0.3595
29827W        W45901   1.267  18.744   0.704 -0.1245  0.2155  0.0075
29828W        W45902   8.888  10.115   1.969 -0.0344  0.1636  0.3938
29829W        W45903   4.551   5.054  12.710 -0.1976  0.3147  0.1867
29830W        W45904  14.110   9.637  11.335 -0.3693 -0.1439 -0.0984
29831W        W45905   4.182   4.751   4.886 -0.2247  0.3426 -0.0203
29832W        W45906  14.602  15.426  13.017  0.1238 -0.2180  0.1266
29833W        W45907   7.120   2.314  11.494 -0.4002  0.1369 -0.3254
29834W        W45908  13.284   2.810  11.847  0.2589  0.1611 -0.4212
29835W        W45909  17.683  15.084   9.514 -0.0126  0.0855 -0.0553
29836W        W45910  16.969   5.884   2.550 -0.1173  0.1125 -0.0045
29837W        W45911  15.944   8.850   0.029  0.0759 -0.2710  0.0125
29838W        W45912  14.496   3.131   1.606  0.0521  0.3085 -0.1095
29839W        W45913   7.403   6.229   0.125 -0.0118 -0.1496  0.1017
29840W        W45914  10.648  11.192   3.420 -0.3548  0.2499 -0.3981
29841W        W45915   2.579   0.837  14.113 -0.0894  0.0057  0.2737
29842W        W45916  16.645  12.349   3.817 -0.4175  0.1234  0.0527
29843W        W45917  17.607   1.474   1.974  0.3294 -0.2480 -0.2734
29844W        W45918   9.111   1.479  12.474  0.1113  0.4163  0.2634
29845W        W45919  11.865  17.143   0.987  0.3639 -0.1462  0.3829
29846W        W45920  15.137   0.890   2.100 -0.3009  0.1531 -0.0349
29847W        W45921  17.669   8.474   5.908 -0.0469 -0.1333 -0.2077
29848W        W45922  16.104  16.330   4.850  0.0494 -0.4247 -0.0240
29849W        W45923  17.364   9.429   0.657 -0.0312  0.1116 -0.2405
29850W        W45924  15.426   6.154   0.878 -0.1674 -0.3427 -0.0127
29851W        W45925  11.782   2.887   2.448 -0.2658 -0.3320  0.1000
29852W        W45926   4.343  13.803   0.603  0.2630  0.0817  0.1204
29853W        W45927  11.230  12.934  11.132 -0.0148 -0.2474  0.0998
29854W        W45928  18.987   0.031   1.068 -0.0256  0.0041 -0.1254
29855W        W45929  17.956  14.584   1.530  0.1158  0.0370 -0.2099
29856W        W45930   9.095   5.121   1.734 -0.2074 -0.1472 -0.2291
29857W        W45931   2.395  12.047  10.776 -0.2942  0.0716 -0.0477
29858W        W45932  11.660   9.539  13.222  0.1202  0.1820  0.0851
29859W        W45933  19.120   2.441  14.816  0.1715  0.1575  0.0503
29860W        W45934   6.135   4.538  14.073  0.3807  0.1707  0.1199
29861W        W45935  14.900   3.354  13.767 -0.0680 -0.0588 -0.2443
29862W        W45936  18.858   9.184  12.054  0.1781  0.3932 -0.0263
29863W        W45937  16.360   6.361   2.069  0.0982  0.3374 -0.5314
29864W        W45938  13.625  14.651   4.349  0.1244  0.5034  0.1606
29865W        W45939  17.766   7.897  12.241  0.1240 -0.0824  0.0565
29866W        W45940   0.649   7.661   0.487 -0.0290 -0.2048 -0.1256
29867W        W45941  14.289  11.171  13.019  0.0871  0.3585  0.1464
29868W        W45942  15.826   5.366   4.231 -0.1065  0.2836 -0.2369
29869W        W45943   1.083  16.677   2.006 -0.2658 -0.0635  0.0662
29870W        W45944   1.692   9.046  11.510 -0.1118  0.1689 -0.2934
29871W        W45945  14.123   7.816   3.428 -0.0358 -0.2540 -0.3112
29872W        W45946  13.020   5.278   5.516 -0.0604 -0.2054 -0.3743
29873W        W45947  11.678  18.942  11.926 -0.2084  0.1487 -0.1739
29874W        W45948  10.292  10.243  10.891  0.1245 -0.0288 -0.1086
29875W        W45949  10.869  12.315   1.704 -0.3485  0.0809 -0.1361
29876W        W45950  11.328  10.695   4.266 -0.2913 -0.0391 -0.0114
29877W        W45951   8.038   2.540   9.759  0.1552  0.0516  0.1449
29878W        W45952  16.062  13.878  13.715  0.1153  0.1374  0.1604
29879W        W45953   4.944  13.966  14.335 -0.0847 -0.1802  0.0676
29880W        W45954   4.401  15.083   3.657  0.2004 -0.3424  0.2427
29881W        W45955   9.267   9.615  12.246  0.3655  0.1992 -0.0282
29882W        W45956   1.216  11.799  11.038 -0.1446 -0.1278  0.1119
29883W        W45957  16.040  13.567  13.055 -0.0376  0.0332 -0.0529
29884W        W45958  11.555   3.977  11.551 -0.0094 -0.1178  0.0469
29885W        W45959   0.780   3.186  11.026 -0.0213  0.1831  0.0936
29886W        W45960  17.108  12.903   1.857 -0.0823  0.0335  0.1597
29887W        W45961  17.192  12.320   3.574 -0.2449  0.0329 -0.1035
29888W        W45962  11.765   2.280  10.289  0.2179 -0.1266 -0.0556
29889W        W45963  13.794   6.480  14.003 -0.0945 -0.0600 -0.0564
29890W        W45964   1.402   0.864   1.834 -0.1604  0.0059  0.2164
29891W        W45965   1.592   1.762   4.521  0.0749  0.1983  0.1155
29892W        W45966   8.329  10.646   9.811 -0.1566 -0.1588  0.0999
29893W        W45967   7.689  15.603  13.946 -0.0184  0.0927 -0.0193
29894W        W45968   4.995   7.022   3.134 -0.0276  0.0279 -0.2097
29895W        W45969   5.519   8.494   4.185 -0.2765 -0.1071 -0.1649
29896W        W45970  10.952  13.128   1.398  0.0346  0.3400  0.0078
29897W        W45971  11.985  10.766   3.341 -0.0236 -0.2247 -0.4479
29898W        W45972   6.967  18.450   2.100 -0.2074 -0.1133 -0.0294
29899W        W45973  15.918   0.102  14.711  0.1312 -0.0557  0.1032
29900W        W45974   7.135   1.037  11.407  0.1962 -0.3748  0.0590
29901W        W45975  18.383  14.172   2.140  0.2279 -0.0701 -0.0355
29902W        W45976  12.197  16.968  12.058  0.0792 -0.2093 -0.1527
29903W        W45977  13.994   8.112   2.021 -0.0473  0.2974 -0.0437
29904W        W45978  14.176   6.042   5.262 -0.2702  0.0826  0.0780
29905W        W45979   8.565  14.241   1.523  0.1217  0.5409 -0.1906
29906W        W45980   9.189   2.529  12.533 -0.3723  0.0342  0.1436
29907W        W45981   3.228   3.782  11.936  0.3573  0.0967  0.0394
29908W        W45982   8.705  14.356   4.265 -0.0342  0.0995 -0.0093
29909W        W45983  18.040   1.061   6.207 -0.1674  0.0841  0.2183
29910W        W45984   9.455   8.216   2.136  0.0954 -0.0094  0.0267
29911W        W45985  13.751  13.535  13.285 -0.3443 -0.2606 -0.2748
29912W        W45986  11.048  19.105   1.409  0.1142  0.0643 -0.0176
29913W        W45987  18.001   9.643  12.172  0.1253 -0.1021 -0.0208
29914W        W45988   0.068  12.892   5.038 -0.1841 -0.4062  0.0604
29915W        W45989  19.015  15.124   2.667  0.3812  0.1063 -0.2208
29916W        W45990   6.951  18.851   4.165  0.0488 -0.0871  0.2460
29917W        W45991  10.751   0.176   9.926  0.2345 -0.2506  0.0573
29918W        W45992   1.351   8.529   3.619  0.1169  0.0366 -0.1491
29919W        W45993   1.049   0.151  12.855  0.0760 -0.2149 -0.1854
29920W        W45994   4.231   7.358  11.925  0.0662  0.1866 -0.0972
29921W        W45995  13.990  17.026  11.921 -0.0457  0.0356 -0.1268
29922W        W45996   5.698   5.463  11.858 -0.1666 -0.4520 -0.0443
29923W        W45997   6.332  17.571  11.489  0.2779  0.3468  0.1390
29924W        W45998   7.252  17.522   0.451  0.0199 -0.0683 -0.0404
29925W        W45999  14.669   4.148  13.283  0.0052  0.2663  0.0629
29926W        W46000   4.611   8.105   4.099 -0.0511  0.0786  0.0337
29927W        W46001   3.375   2.394  13.570  0.1988  0.0596  0.1096
29928W        W46002   7.471  10.852   4.650  0.0570 -0.2205 -0.0434
29929W        W46003  14.857   2.639   9.612  0.1888  0.0823 -0.2865
29930W        W46004  12.567  16.898   3.917  0.1067  0.0396 -0.1092
29931W        W46005   6.418  18.060  11.667 -0.1727 -0.3466  0.1784
29932W        W46006   2.470  11.979  13.987  0.0047  0.4952  0.1460
29933W        W46007   9.662  16.040  12.143 -0.0690 -0.0675 -0.4366
29934W        W46008   3.184  13.566   1.565 -0.0850  0.1105  0.0684
29935W        W46009   1.354   4.115   2.823  0.2337 -0.3371 -0.2450
29936W        W46010  12.980  10.492  13.036 -0.0880 -0.0675  0.2834
29937W        W46011   5.907   8.686  13.769  0.0876 -0.1310 -0.1221
29938W        W46012   7.192   8.927  10.368  0.0800 -0.2688 -0.2371
29939W        W46013  12.272  13.544   2.701 -0.0421  0.1557 -0.0147
29940W        W46014   7.048   8.579   1.709 -0.1009  0.0625  0.1641
29941W        W46015   8.341   1.036  14.526 -0.0518  0.0006  0.1095
29942W        W46016   5.433  19.204   4.816 -0.0023  0.1146 -0.0942
29943W        W46017   5.380  13.148  11.483 -0.1073 -0.2113 -0.1722
29944W        W46018  12.209   6.801  11.162  0.0841 -0.1946 -0.1405
29945W        W46019  16.262   9.709   3.133  0.0984 -0.0616 -0.1878
29946W        W46020  13.800  18.079   2.889 -0.3014  0.2251  0.1897
29947W        W46021   6.469  10.454  13.688 -0.0029  0.1276 -0.2619
29948W        W46022  17.115  18.543  12.511 -0.5357 -0.4142  0.3545
29949W        W46023   1.315  19.175   0.933  0.1691  0.0969 -0.0601
29950W        W46024  10.290   1.422  12.015  0.0084  0.1025 -0.2004
29951W        W46025   1.527   9.565  10.661 -0.2842 -0.1976  0.0857
29952W        W46026  10.746  12.873   1.902 -0.4301 -0.5182 -0.0088
29953W        W46027  15.680  15.296   1.572  0.1282 -0.2724  0.1596
29954W        W46028  15.525  17.574   2.207 -0.0972  0.0036  0.1560
29955W        W46029   9.811   7.742  12.603 -0.0359  0.2375  0.1268
29956W        W46030   0.699   6.698   2.423 -0.2214  0.0262  0.2382
29957W        W46031  18.931   7.693   3.283 -0.1159  0.2226 -0.1930
29958W        W46032   9.440   4.752   0.199  0.2551  0.0198  0.3070
29959W        W46033  15.951   8.263  11.856 -0.1466 -0.0902  0.0060
29960W        W46034  16.743   0.996   2.866  0.0127  0.2140 -0.0493
29961W        W46035  14.985   7.647   5.324  0.1889 -0.0867  0.0123
29962W        W46036   6.005   2.021   0.937 -0.2160 -0.1710  0.2551
29963W        W46037   7.646   5.063  11.794  0.0732 -0.2119  0.2378
29964W        W46038   6.502  16.510  11.996 -0.2751  0.2217  0.0298
29965W        W46039  16.699  12.896   0.904 -0.0472 -0.0092  0.1161
29966W        W46040  15.236   5.230  13.302  0.3034 -0.2405 -0.2494
29967W        W46041   8.022  11.085   3.283  0.0450  0.0869 -0.0435
29968W        W46042  19.181   9.147   2.961  0.1494 -0.2645 -0.0848
29969W        W46043   5.392   6.116   3.183  0.6015  0.0787  0.1006
29970W        W46044  12.069   8.844  10.610  0.0632 -0.0673  0.1963
29971W        W46045  13.931   2.386   4.164 -0.4166  0.0174 -0.0891
29972W        W46046  18.238   1.038  12.651 -0.0457 -0.1080  0.0917
29973W        W46047   7.772  18.880   0.445  0.0581  0.0114 -0.1887
29974W        W46048  12.906   2.298  14.949  0.0195  0.1240  0.4840
29975W        W46049   5.756  16.252  10.689 -0.0771 -0.1330 -0.0206
29976W        W46050   1.768   6.083  14.472  0.1451 -0.2237  0.2399
29977W        W46051  10.908   3.374  12.383  0.0956  0.2718  0.0410
29978W        W46052  17.870  14.401  11.419 -0.0921 -0.0531  0.0834
29979W        W46053  13.731  12.845  13.775 -0.0050 -0.0937 -0.1529
29980W        W46054  10.157  15.225   2.584 -0.3431 -0.1647 -0.2231
29981W        W46055   9.360   3.820  12.854 -0.1872  0.0011 -0.0834
29982W        W46056   9.681   8.781  10.109  0.1381 -0.2205  0.0893
29983W        W46057   5.381  16.607   2.661  0.1584  0.0297 -0.3372
29984W        W46058   5.940  14.324  12.922  0.2054 -0.1573 -0.0354
29985W        W46059   8.166   8.786   9.918 -0.2259  0.1445  0.1605
29986W        W46060   0.569  17.738   1.454  0.3993 -0.2687  0.0063
29987W        W46061   6.471   9.964  11.334  0.1830 -0.0700 -0.1187
29988W        W46062  15.359   3.567   3.248  0.0368 -0.1455  0.0747
29989W        W46063   5.407   5.291   4.937  0.1376 -0.1308  0.2498
29990W        W46064   8.645   7.467  14.909 -0.0073  0.0237 -0.0613
29991W        W46065   9.426  15.578  14.936 -0.1035 -0.2593 -0.1529
29992W        W46066  15.026   7.299  11.812  0.0332 -0.1116  0.1085
29993W        W46067  12.369  15.551   5.437  0.1686 -0.2573  0.0672
29994W        W46068  13.927  13.231   1.535  0.1426 -0.3004 -0.1680
29995W        W46069   0.079   2.260  14.440  0.2769  0.1415 -0.1576
29996W        W46070   2.046   8.232  13.117 -0.3495  0.2435  0.1812
29997W        W46071   8.530  14.467  13.415  0.0953  0.2089  0.0423
29998W        W46072  15.405   1.573   0.095  0.1385  0.1255 -0.0285
29999W        W46073   1.598  18.098  12.514 -0.0126 -0.0872 -0.1705
30000W        W46074   1.003  15.544   4.583  0.0447  0.2386 -0.1025
30001W        W46075  17.874  17.737  12.463 -0.4802  0.2841  0.0505
30002W        W46076   1.814  10.363  14.404  0.2590 -0.0465  0.1796
30003W        W46077  16.065   2.768  11.059  0.0295  0.1274 -0.2066
30004W        W46078   0.689  15.946   4.627 -0.4495 -0.0244 -0.1731
30005W        W46079   9.604   7.690   1.996 -0.2831  0.0011 -0.1447
30006W        W46080  13.478  10.195   4.583  0.1803  0.5816 -0.0363
30007W        W46081  13.862   2.975   3.381  0.3015  0.2492 -0.0155
30008W        W46082   8.799  12.801  10.769  0.0646  0.3451 -0.2117
30009W        W46083   6.269  16.580  10.909 -0.1906  0.0297 -0.1344
30010W        W46084   4.166   7.835   2.745  0.3849 -0.2816 -0.2764
30011W        W46085  17.814  13.349  10.278  0.1162 -0.4363  0.1145
30012W        W46086   7.231   0.072   3.059 -0.0931  0.0523 -0.1399
30013W        W46087   3.184   3.641   5.463 -0.2593 -0.3235 -0.0298
30014W        W46088   7.585  19.026  11.289 -0.0648 -0.2787 -0.1411
30015W        W46089  14.839  14.665   1.626 -0.1125  0.3181 -0.3163
30016W        W46090  19.333  13.981  13.546  0.0496 -0.0658  0.2021
30017W        W46091  18.136   0.691   4.498 -0.0560 -0.0096  0.2383
30018W        W46092   5.499   5.669  10.132  0.2282 -0.0615 -0.0802
30019W        W46093   1.625   9.408   2.096  0.3910  0.1586  0.2747
30020W        W46094   7.894  12.433   2.311 -0.1926 -0.0682 -0.0132
30021W        W46095   5.043   9.623  13.722  0.1892  0.0130 -0.0486
30022W        W46096   7.590  12.640  14.037  0.0234 -0.1960  0.2172
30023W        W46097   0.147  11.593  13.879  0.0472 -0.0782  0.4561
30024W        W46098  18.108  18.734  14.644  0.1090  0.1506 -0.1121
30025W        W46099  10.949  15.784  11.076  0.0938 -0.1603 -0.2621
30026W        W46100   0.618   3.539  14.137 -0.0439  0.2408 -0.0055
30027W        W46101   9.723  15.778   1.019  0.5942  0.0751  0.1666
30028W        W46102  14.189  16.927   3.460  0.4119 -0.0806  0.2021
30029W        W46103   3.588  14.334  14.061  0.1208 -0.0989  0.1227
30030W        W46104   2.614  12.366  11.985 -0.2781 -0.3324  0.4551
30031W        W46105  15.825  18.755   1.090 -0.0363  0.0171  0.2558
30032W        W46106  11.688   2.105   2.994  0.2496 -0.0051 -0.0890
30033W        W46107  10.970  15.203   3.621  0.0313 -0.0864 -0.0047
30034W        W46108  13.830  14.191  11.424 -0.0753 -0.1292  0.0764
30035W        W46109  13.500  17.397   0.897  0.1142 -0.0081 -0.2063
30036W        W46110  17.777   1.503  14.249  0.1160 -0.0276 -0.1725
30037W        W46111  11.260  11.459  14.254 -0.3195 -0.3205 -0.3857
30038W        W46112   1.381   1.283   0.046 -0.1857 -0.0719 -0.0194
30039W        W46113   2.875  10.739   2.292 -0.1055  0.0192 -0.2318
30040W        W46114  17.849  13.246   3.996  0.0348 -0.0707  0.2190
30041W        W46115   1.078   5.086  12.940 -0.2324 -0.1225 -0.4221
30042W        W46116  11.238   7.166  14.906  0.2788  0.0599 -0.1618
30043W        W46117   0.315   5.619  13.596  0.0776 -0.1628  0.2061
30044W        W46118  13.184  18.038   3.729 -0.1697  0.4368  0.2210
30045W        W46119   5.852   8.807   2.459  0.4638  0.1008  0.2300
30046W        W46120  12.721  18.608   1.716  0.0242 -0.0960  0.4071
30047W        W46121  14.169  13.240   4.170  0.1196 -0.0113 -0.2313
30048W        W46122  18.262   4.800  13.209  0.4387 -0.1338  0.0326
30049W        W46123   5.447  10.468  11.773 -0.1063  0.1733  0.1244
30050W        W46124  11.067   5.805   2.033 -0.3108  0.0840  0.1741
30051W        W46125  11.919  16.437  11.566  0.1992  0.2724  0.0817
30052W        W46126   4.787  16.288  14.526 -0.0577  0.0338 -0.2449
30053W        W46127   7.195   2.709   9.851  0.1291 -0.2976 -0.1627
30054W        W46128   8.103  11.727  13.582 -0.1192 -0.2863  0.1270
30055W        W46129   6.959   5.741   4.008  0.3113 -0.1408 -0.2728
30056W        W46130   0.235   9.786   3.735 -0.2480 -0.0160 -0.0579
30057W        W46131  14.514   9.706  12.120  0.0040  0.1304 -0.2015
30058W        W46132   4.921   6.333   3.653 -0.0506  0.0325 -0.2014
30059W        W46133  16.765  10.975   5.013 -0.0268  0.2327 -0.3612
30060W        W46134   6.556  10.934  11.346 -0.0335  0.2491 -0.1601
30061W        W46135   0.717   1.084   3.816  0.2240 -0.0281 -0.3369
30062W        W46136   7.875   5.620   2.496  0.1737  0.0325 -0.3126
30063W        W46137  13.464  13.832  13.016  0.0596  0.1221 -0.0573
30064W        W46138  14.467  14.571  12.719  0.0447 -0.0436 -0.1233
30065W        W46139   6.216  12.424   4.536  0.0395  0.1176  0.2212
30066W        W46140  19.166   7.739  14.143  0.2177  0.2032  0.2237
30067W        W46141  10.140  16.478  14.565 -0.0505  0.0137  0.1632
30068W        W46142  10.922  12.108   2.356 -0.0682  0.1628 -0.1955
30069W        W46143   3.998  18.647   0.332  0.0591 -0.0460  0.0498
30070W        W46144   8.330  13.575   0.406 -0.2817  0.2444 -0.5311
30071W        W46145   3.425   5.104  14.180 -0.2529  0.0816  0.0697
30072W        W46146  15.882   4.958  12.321 -0.1502 -0.0684  0.0308
30073W        W46147  18.065  11.126  12.669  0.0886 -0.0015  0.0149
30074W        W46148   1.485  14.310   0.088 -0.0652  0.1846 -0.1119
30075W        W46149   6.802   7.435   9.775 -0.1715  0.2291 -0.0385
30076W        W46150   3.278   3.376   1.884 -0.0775 -0.2440  0.0012
30077W        W46151  16.997  12.276   1.501 -0.0751 -0.0229 -0.0323
30078W        W46152  18.141   1.867  10.525 -0.0423 -0.0528 -0.0249
30079W        W46153   9.631   9.016   0.555 -0.1695  0.1057 -0.0176
30080W        W46154  17.848  15.222  13.125  0.2389  0.0896  0.2319
30081W        W46155  13.381  14.423   3.980  0.3431 -0.1030  0.2106
30082W        W46156  19.065   2.103   4.963  0.2693  0.4798 -0.1543
30083W        W46157  14.916   6.783  11.746 -0.3872 -0.1555 -0.1984
30084W        W46158   7.998  18.263  12.262 -0.1773  0.3226  0.1370
30085W        W46159  14.737  12.402   3.337  0.0253 -0.0447 -0.1133
30086W        W46160  10.576   9.975  12.278  0.0691  0.0812 -0.0678
30087W        W46161  13.008  15.606   3.622  0.0448 -0.2112  0.1293
30088W        W46162   4.008   9.474  14.680 -0.3534  0.1134  0.2664
30089W        W46163   2.961  14.595  11.055 -0.0691  0.1042 -0.0725
30090W        W46164  10.171  14.534  10.327  0.0721  0.1291  0.0457
30091W        W46165   1.648   1.018  13.119 -0.0173  0.1665 -0.0334
30092W        W46166  10.078  13.334   3.697 -0.1227  0.2206 -0.0347
30093W        W46167   2.782  19.139  14.178 -0.0167 -0.0170  0.2625
30094W        W46168  10.117   1.230   3.445 -0.1818 -0.2115 -0.0254
30095W        W46169  13.528  13.614   0.954  0.0188  0.2979 -0.1673
30096W        W46170   3.500  11.181   0.108 -0.2251  0.0077  0.0393
30097W        W46171   7.662   3.961   1.038  0.0236  0.2800 -0.0716
30098W        W46172   4.586  15.532  14.986  0.0870 -0.1259  0.0907
30099W        W46173   6.418   8.233   1.251 -0.0925  0.1132 -0.1122
30100W        W46174   4.739   9.999   4.853  0.0835 -0.0888 -0.0167
30101W        W46175   2.592   8.293   2.741 -0.2422  0.2491  0.1722
30102W        W46176   8.300  19.103   4.275 -0.0541 -0.1002  0.2568
30103W        W46177  15.248   8.478  14.434  0.5633  0.2185 -0.1171
30104W        W46178  16.295  10.467   3.419  0.1041 -0.0059  0.0625
30105W        W46179   0.880   1.207  10.423  0.0474 -0.1000  0.3155
30106W        W46180   1.022  17.717   1.681  0.0512 -0.0357  0.0078
30107W        W46181  11.572   8.788   2.037  0.0589 -0.2600 -0.3692
30108W        W46182  10.935  12.307  10.304 -0.0656 -0.0667  0.3509
30109W        W46183  13.247  10.143  11.190 -0.1823 -0.1217  0.1313
30110W        W46184  11.125   4.615   4.192 -0.0509 -0.1547 -0.1755
30111W        W46185  10.730  11.386  13.999 -0.1739  0.0524  0.0738
30112W        W46186   1.891   5.638   5.124 -0.1888  0.2025  0.0953
30113W        W46187  11.731  10.679   0.825  0.0829  0.0776 -0.0697
30114W        W46188   9.543  16.284  13.729  0.0951  0.2618 -0.0679
30115W        W46189  15.916   1.917  11.358 -0.2429 -0.2367 -0.0650
30116W        W46190   1.165  15.663  11.364  0.2887  0.0557 -0.0437
30117W        W46191  10.114   4.207   5.247  0.0977  0.2588  0.1387
30118W        W46192   8.575   3.840   3.199  0.2338  0.0150  0.0514
30119W        W46193  17.344   6.183  14.087  0.1137  0.0676  0.1128
30120W        W46194   2.156  16.158  10.133  0.0094 -0.2431 -0.1691
30121W        W46195  10.605   3.048  13.646  0.0891 -0.0579 -0.2292
30122W        W46196   3.195  13.140  14.623 -0.0586 -0.0684  0.0621
30123W        W46197  16.084   6.003  13.373  0.0814  0.1158  0.1365
30124W        W46198  12.726   7.850   3.617  0.0174 -0.0160 -0.2949
30125W        W46199   7.041  13.251   2.742  0.0778  0.1961 -0.2725
30126W        W46200  15.076   8.457  13.954 -0.1989 -0.2761  0.0672
30127W        W46201  16.045   5.328  13.602 -0.1047  0.1186 -0.1822
30128W        W46202   5.560  15.380   9.399  0.3554  0.1270 -0.3209
30129W        W46203   5.438  12.149  13.369  0.4133 -0.1245 -0.2403
30130W        W46204  15.062  15.610  11.172 -0.1744  0.0427  0.2483
30131W        W46205  16.127   8.825  14.154  0.0001  0.0959  0.2634
30132W        W46206  13.676  14.697  10.471  0.2693 -0.2314 -0.1150
30133W        W46207   7.413   9.187  13.683  0.2684  0.0666  0.1375
30134W        W46208   0.288   2.468   0.495  0.1258  0.2080  0.1263
30135W        W46209  17.955   8.954   0.048 -0.1873  0.1503 -0.0931
30136W        W46210   9.167   7.415  14.538  0.2223 -0.0840  0.1712
30137W        W46211  16.457  10.257   2.948 -0.1003 -0.1450 -0.0375
30138W        W46212   9.471   8.273  13.252 -0.2642 -0.1116 -0.4261
30139W        W46213   5.070  11.563   2.183 -0.1967  0.2973 -0.0674
30140W        W46214  17.359  13.534  13.113 -0.1113  0.0628  0.1847
30141W        W46215   7.243  11.212   2.657 -0.2353 -0.0636  0.2427
30142W        W46216  11.767   9.034   3.525  0.0228 -0.1279  0.0892
30143W        W46217  16.053  13.853  14.615  0.2999  0.4898  0.0418
30144W        W46218  12.364   8.609  14.380 -0.2443 -0.1434 -0.3110
30145W        W46219  11.658   1.895   0.859  0.0566  0.0093  0.0213
30146W        W46220   0.186   4.506   4.924 -0.0297 -0.2285 -0.2928
30147W        W46221   0.541  14.672   1.058 -0.0184  0.1065  0.0587
30148W        W46222   7.581  10.271   0.340  0.0227 -0.1748  0.1830
30149W        W46223  12.875  12.289  11.321  0.0148  0.1894 -0.0471
30150W        W46224  18.483   5.942   5.042 -0.0898  0.0539 -0.2356
30151W        W46225  10.813  10.039  11.136 -0.1063 -0.1980 -0.1472
30152W        W46226  11.270   1.033  12.734  0.0379  0.1621 -0.3127
30153W        W46227  16.629  12.871  13.302  0.3540 -0.1861  0.1048
30154W        W46228   1.954   1.370  13.111 -0.0605 -0.1385 -0.2084
30155W        W46229  18.047  18.111  14.532  0.1731 -0.0425  0.1211
30156W        W46230  10.029   6.477   5.012  0.2405 -0.3190  0.0816
30157W        W46231   2.245   4.966  10.575 -0.1369 -0.0869 -0.3122
30158W        W46232   2.570   8.726  11.740 -0.2297 -0.0365  0.1460
30159W        W46233   5.283   0.646   0.208  0.2079  0.1723 -0.1501
30160W        W46234  15.538  12.229   0.095  0.2695  0.1250  0.0553
30161W        W46235   3.028   2.242  13.231  0.0861  0.2165 -0.1206
30162W        W46236  12.566   2.491   3.884  0.0003 -0.0094 -0.1785
30163W        W46237   9.314  16.286  12.463  0.2237  0.0946 -0.0015
30164W        W46238   5.317  13.301   5.162  0.1255 -0.1725 -0.0431
30165W        W46239   5.034   7.208  11.781  0.1684 -0.0294 -0.1808
30166W        W46240   6.125  11.691   1.209  0.0012 -0.0250 -0.2377
30167W        W46241  12.104  10.952   2.690  0.0091 -0.1805  0.4842
30168W        W46242  13.898   4.798   2.897  0.0680  0.0321  0.0035
30169W        W46243  16.780   5.453  12.567  0.0225 -0.3686 -0.1563
30170W        W46244   9.685  17.630   3.862 -0.0386  0.0659  0.2127
30171W        W46245   7.371   0.472   1.953  0.0356  0.0037  0.0084
30172W        W46246   2.294  14.152   2.214  0.0645  0.3957 -0.0667
30173W        W46247  12.175  16.843  11.179  0.1670 -0.1266  0.2490
30174W        W46248   7.957   7.900  14.406 -0.0019  0.2580  0.3095
30175W        W46249   2.461   2.337  14.045  0.4764 -0.1491  0.1176
30176W        W46250  18.914   1.145   4.258 -0.0445  0.0798  0.1037
30177W        W46251   0.338  17.593   2.402 -0.0599  0.4988 -0.0121
30178W        W46252   6.586   7.279  14.249 -0.2140  0.1102 -0.4818
30179W        W46253   5.736  17.978  10.707 -0.1783  0.1891 -0.2463
30180W        W46254   5.204  11.155  11.843 -0.0022  0.1463 -0.2408
30181W        W46255  10.554   7.580  10.900 -0.1537  0.0466 -0.1923
30182W        W46256  13.285   0.388  11.086  0.0304  0.1722  0.2281
30183W        W46257   3.824  15.819   0.969  0.4332  0.1514  0.4106
30184W        W46258   5.995  13.010  13.265  0.0210 -0.1913 -0.0545
30185W        W46259   8.370  12.820   3.638  0.0472 -0.2077  0.0840
30186W        W46260   4.520  16.135   0.853  0.2938  0.6130  0.1384
30187W        W46261   5.689  14.454  14.483 -0.3417 -0.2455 -0.1297
30188W        W46262   5.588   3.519  12.647 -0.3392 -0.0513 -0.2488
30189W        W46263  13.278   3.379   2.383  0.2302 -0.0337  0.0215
30190W        W46264   6.694  17.482   4.583  0.0786 -0.0135  0.0566
30191W        W46265   0.523   7.887   2.969 -0.4260 -0.1580  0.1380
30192W        W46266  11.928   2.245  10.758 -0.1529  0.0803 -0.0246
30193W        W46267  14.601   3.417  14.549 -0.1240  0.1749  0.0001
30194W        W46268  14.900   5.200  11.979  0.0050 -0.3540  0.1894
30195W        W46269   1.359   7.098  11.349 -0.2363  0.0004  0.0712
30196W        W46270  11.941  14.016   3.425  0.3812 -0.2863 -0.2324
30197W        W46271   7.609  15.869   3.689  0.0094  0.1507 -0.0363
30198W        W46272   7.359   1.046   1.687 -0.1368  0.0914  0.2786
30199W        W46273  18.241   9.587   0.936  0.2169 -0.0249 -0.0331
30200W        W46274   5.583  18.662   0.541 -0.0897  0.1959 -0.0480
30201W        W46275   7.015  19.196  13.827  0.0243  0.3346  0.0932
30202W        W46276   1.585   4.692   4.799 -0.1469 -0.0806  0.1103
30203W        W46277   3.598   3.284   3.723 -0.1243  0.0257 -0.3408
30204W        W46278   2.347   0.420  13.370  0.1863 -0.1360 -0.0707
30205W        W46279   7.394   3.713  14.762  0.3115 -0.1052 -0.3732
30206W        W46280   1.451   5.600   3.765  0.1469 -0.0395  0.0733
30207W        W46281   9.651  12.606  13.317  0.0663 -0.3002 -0.2127
30208W        W46282  11.456  16.507   9.037  0.0513  0.2122  0.0713
30209W        W46283  15.303   3.244  14.755  0.0161  0.2313 -0.0015
30210W        W46284  16.226   8.045   4.985  0.1575 -0.1106  0.1657
30211W        W46285   8.212  15.601  13.402 -0.1122  0.0879 -0.1409
30212W        W46286   7.615  18.398  13.958  0.1035  0.2659 -0.2261
30213W        W46287  13.858  11.251   4.419  0.0772 -0.3094  0.0728
30214W        W46288  14.954   7.403   2.643  0.0179  0.1521 -0.0652
30215W        W46289  10.311   8.408   0.263 -0.1525 -0.1776  0.3411
30216W        W46290  16.765   6.209   1.276  0.2765 -0.2351  0.0924
30217W        W46291   8.190   2.248   2.403  0.1473  0.2034  0.1099
30218W        W46292  15.081   7.902   3.338  0.2069 -0.1146  0.1581
30219W        W46293   0.907   8.647  13.723  0.1175  0.1632 -0.2456
30220W        W46294  16.207  18.086  13.483  0.2556  0.0150 -0.0725
30221W        W46295   9.641  14.186   3.369 -0.1038 -0.1166 -0.4701
30222W        W46296  15.860   0.628   1.447 -0.2525 -0.0599  0.0021
30223W        W46297   4.909   4.642   2.852 -0.1308 -0.2574 -0.1360
30224W        W46298  16.681  13.839   2.820 -0.1160 -0.1059 -0.1174
30225W        W46299  10.135  16.790   2.956 -0.1918  0.1260 -0.1783
30226W        W46300   4.992  12.168   5.463 -0.1001 -0.1552  0.2020
30227W        W46301  14.252   9.114   0.727 -0.0364 -0.1512  0.2818
30228W        W46302  16.640  18.399  13.453  0.0822 -0.2036  0.1544
30229W        W46303   8.770  17.335  10.532 -0.0708  0.0261 -0.0791
30230W        W46304   0.267  12.105  10.032 -0.2920 -0.0247 -0.0937
30231W        W46305  11.066  10.275  12.225 -0.0273  0.1539  0.0318
30232W        W46306   2.965   3.243  13.263  0.1365  0.0354  0.3157
30233W        W46307  19.253  17.782   4.705 -0.0344  0.0287 -0.1919
30234W        W46308  11.873  10.448   4.473  0.0520  0.4062  0.1663
30235W        W46309  10.133  14.024   1.974  0.3131 -0.1642  0.1568
30236W        W46310  11.896  17.236   5.371 -0.4603  0.1745 -0.3882
30237W        W46311   3.865   4.790   2.856  0.1016 -0.2777 -0.0587
30238W        W46312   2.822   9.711   6.224 -0.0566 -0.2629 -0.1823
30239W        W46313   8.370  18.086  13.393  0.5003 -0.1326  0.0132
30240W        W46314  10.066  14.229  13.237 -0.2393  0.1834 -0.1166
30241W        W46315   6.512  12.363  11.197 -0.2446 -0.0455  0.0048
30242W        W46316   5.069   6.094   4.352 -0.1727  0.2388 -0.0145
30243W        W46317  15.054   7.576  12.222 -0.1454 -0.4067  0.3001
30244W        W46318   7.622  15.597  14.515  0.0116  0.0810 -0.1479
30245W        W46319   2.389   9.097   2.709 -0.2050 -0.0034  0.1184
30246W        W46320   5.216   0.190  13.709 -0.0559  0.0797  0.0458
30247W        W46321   4.839  15.492   4.746  0.0478  0.0700  0.2408
30248W        W46322  14.023  14.705  11.008  0.0895 -0.2007  0.2642
30249W        W46323   3.004   9.049  11.012 -0.0998 -0.1363  0.3258
30250W        W46324  19.323   9.985   5.101 -0.2284  0.1200  0.0840
30251W        W46325   4.801  14.184  10.171  0.0128  0.1149 -0.2510
30252W        W46326   1.884  11.134   5.469 -0.1727  0.0235  0.1494
30253W        W46327   8.035   3.670   2.495 -0.3202  0.4466  0.0837
30254W        W46328   3.356  16.209  13.250 -0.0605 -0.2683 -0.0587
30255W        W46329  10.476   8.644  13.156  0.2925 -0.2900 -0.2502
30256W        W46330   1.940  11.123  12.073 -0.4924  0.0168  0.3506
30257W        W46331  16.665   3.105   5.511 -0.1434  0.1423 -0.1418
30258W        W46332  11.669  19.302   2.478  0.1248  0.0551 -0.1157
30259W        W46333  12.432  18.357  10.261  0.0873  0.0012 -0.0445
30260W        W46334  18.588  11.490  14.905  0.1269  0.1120 -0.0653
30261W        W46335  17.733  16.966   4.849  0.3946 -0.3108  0.0863
30262W        W46336   8.773   1.662   2.072  0.0165 -0.2859 -0.1967
30263W        W46337   3.189  13.161   5.002 -0.1023 -0.2053  0.0588
30264W        W46338  16.720   4.220  12.578 -0.0701 -0.0877 -0.1267
30265W        W46339  14.337  18.969  11.589  0.2602  0.1515  0.0402
30266W        W46340   3.660   2.803  13.070 -0.3490  0.1462 -0.3650
30267W        W46341   5.765  13.219  10.559 -0.1027  0.0820  0.0296
30268W        W46342   0.694  16.726   9.738 -0.4519  0.1080  0.0084
30269W        W46343   7.557  12.593  12.181  0.0705 -0.0531  0.0319
30270W        W46344   2.265  12.656   1.408  0.1875  0.2351  0.1991
30271W        W46345   6.775  17.037  12.055 -0.0787  0.1159  0.0212
30272W        W46346  11.352   1.879   1.844 -0.0326 -0.0244  0.1971
30273W        W46347  15.398  18.910  12.966  0.1364  0.1225  0.0113
30274W        W46348   5.494   5.441   3.927  0.1292  0.2866 -0.4251
30275W        W46349  16.745  12.999  14.788 -0.6015 -0.1080 -0.0870
30276W        W46350   0.164   2.182   2.511 -0.2571 -0.1600  0.2024
30277W        W46351  14.169   9.658  12.522 -0.1797 -0.0506 -0.1998
30278W        W46352   6.508   3.271   3.510  0.1170 -0.1022  0.0875
30279W        W46353  10.843  15.850  11.853 -0.1408  0.0445  0.1038
30280W        W46354  13.809   2.841  11.930 -0.0701  0.1883  0.0068
30281W        W46355  16.319   9.573   5.295 -0.2487  0.0614  0.0990
30282W        W46356   6.622  16.872   2.152 -0.0800 -0.1841 -0.1635
30283W        W46357   4.156   4.573  11.903  0.1116 -0.0413  0.0481
30284W        W46358   0.453  14.990  14.472  0.0604 -0.2937  0.1023
30285W        W46359   9.987  10.894  13.100 -0.0658  0.1621  0.2006
30286W        W46360   6.313   8.939   3.439 -0.0536 -0.1607 -0.2232
30287W        W46361   3.434   5.886   3.803  0.1356 -0.2372 -0.0676
30288W        W46362   4.852  11.144   4.919 -0.1866 -0.1425 -0.3618
30289W        W46363  11.599   9.999  11.808  0.0728  0.0856 -0.0730
30290W        W46364   8.110  16.424   1.398  0.0628  0.1180 -0.0425
30291W        W46365   4.761  19.090  12.895  0.0068 -0.1783  0.1759
30292W        W46366   3.756  10.852   0.492 -0.1273 -0.3472  0.0415
30293W        W46367   8.648   4.860   1.929 -0.0922  0.0320  0.1125
30294W        W46368   2.805  14.621  10.557 -0.1040  0.2786  0.2571
30295W        W46369  15.066  11.718  10.096  0.0590 -0.1449 -0.3002
30296W        W46370  18.981   8.051   0.578  0.1566 -0.1912 -0.1093
30297W        W46371  19.070  13.033  10.886  0.1693 -0.0904 -0.0092
30298W        W46372  19.169   4.583  12.707 -0.0404  0.0945 -0.3051
30299W        W46373  10.785   6.363  12.286 -0.3316  0.3377 -0.1683
30300W        W46374   3.248  12.342   3.633  0.1638 -0.2758 -0.0749
30301W        W46375   8.192  13.846   3.157 -0.1444  0.0249 -0.2670
30302W        W46376  12.408   5.192  10.600  0.2414  0.5150  0.0529
30303W        W46377   0.283  15.111   1.571 -0.0646 -0.0307  0.0106
30304W        W46378   0.781  14.926   2.879 -0.1482 -0.1611  0.2273
30305W        W46379   9.370  14.116  13.042 -0.1620  0.1004 -0.0280
30306W        W46380  12.102  15.578  14.872  0.0481  0.3257  0.0814
30307W        W46381   1.993   6.701  11.944 -0.0244 -0.0307  0.0633
30308W        W46382  15.438   4.767  13.029  0.0037 -0.1050  0.1678
30309W        W46383  14.572  12.679   0.303 -0.0832 -0.0495  0.4320
30310W        W46384  16.342  16.147   0.589 -0.1387  0.2041 -0.0927
30311W        W46385  16.703  13.267   2.368  0.1077 -0.1207 -0.2251
30312W        W46386   2.490  10.383   2.092 -0.2558 -0.1466 -0.0158
30313W        W46387  17.225   2.241  13.794  0.1372 -0.0371 -0.2361
30314W        W46388   2.539  15.485  13.663 -0.1466 -0.0658 -0.0542
30315W        W46389   8.310   2.335  11.055  0.0335  0.1110 -0.0841
30316W        W46390  15.382   4.163  10.413  0.0927 -0.2777  0.2124
30317W        W46391  16.695  17.551   3.284 -0.1341  0.0947 -0.4043
30318W        W46392   8.597  19.157  14.473  0.1728 -0.1041 -0.3013
30319W        W46393   2.937  14.688   3.265 -0.0489 -0.1480 -0.2101
30320W        W46394   1.271   0.179  11.373 -0.1292 -0.1856  0.1872
30321W        W46395   5.166   7.929   3.145 -0.0589 -0.2555  0.1531
30322W        W46396  11.064  12.296  13.703 -0.2219 -0.2123  0.0402
30323W        W46397  17.202   9.837  10.245  0.2131 -0.1246  0.0056
30324W        W46398  16.092  17.008   0.252 -0.0833 -0.2352 -0.3372
30325W        W46399   8.939   6.197  14.948 -0.0135  0.1243 -0.1444
30326W        W46400  15.039  17.842  12.673 -0.1745 -0.1103 -0.0324
30327W        W46401   8.680  12.769   4.452  0.2052 -0.2262 -0.0783
30328W        W46402   5.635  13.929   1.332  0.0084  0.1411 -0.2089
30329W        W46403  10.755   5.218   9.993 -0.1064 -0.0391  0.0944
30330W        W46404   1.630   9.314   0.419  0.0287 -0.1274 -0.1260
30331W        W46405  18.870  14.923   3.804  0.2757 -0.0332  0.1886
30332W        W46406  14.138  10.419   2.244 -0.5745 -0.3747  0.2606
30333W        W46407   8.110   6.687  12.854 -0.1157 -0.4320  0.1135
30334W        W46408  11.590  11.109   3.443 -0.0419 -0.0278 -0.0997
30335W        W46409  13.764  18.449  14.287 -0.0106 -0.1580 -0.2096
30336W        W46410  16.714   8.909  14.264  0.1595  0.0364 -0.1345
30337W        W46411  16.263   7.139   4.964 -0.0463  0.1290  0.0911
30338W        W46412  10.656  16.811   9.535  0.0125  0.0348 -0.0718
30339W        W46413   7.882   5.198  10.452 -0.0321 -0.2040  0.1896
30340W        W46414  10.931  16.992  10.005 -0.4340  0.1473  0.1082
30341W        W46415   5.398  10.397   2.825 -0.1902 -0.1769  0.3621
30342W        W46416   0.090   6.759  11.816 -0.1036 -0.1424 -0.4944
30343W        W46417   6.180   8.192  11.675 -0.1922  0.0384 -0.0282
30344W        W46418  14.053  15.781   0.410 -0.0330  0.1181 -0.0523
30345W        W46419  16.638  10.425   6.350 -0.1183 -0.1078 -0.1783
30346W        W46420   1.583  15.289  11.160 -0.2560  0.0125  0.3173
30347W        W46421  14.278  15.232   2.373 -0.0434  0.0921  0.0699
30348W        W46422  13.794   8.060  14.317 -0.2367  0.0321 -0.3493
30349W        W46423  15.187  11.944   5.874 -0.0192  0.1823  0.2501
30350W        W46424  14.370   5.594   1.553  0.0687  0.2917  0.1790
30351W        W46425   6.531   4.324   3.586  0.1187 -0.3510  0.0934
30352W        W46426   0.742  14.042   5.218 -0.1654  0.0259  0.0823
30353W        W46427   7.205  12.790   0.944  0.0994 -0.0549 -0.0522
30354W        W46428   6.165  15.283  13.599  0.1770 -0.0060 -0.0526
30355W        W46429   2.235   4.094  11.058 -0.6478  0.0762  0.0324
30356W        W46430   7.063  13.689   4.610  0.1345 -0.1187  0.1728
30357W        W46431  11.884   5.146   2.953  0.0298 -0.1865  0.0187
30358W        W46432  18.150   8.808  12.459 -0.0950  0.1299  0.0796
30359W        W46433   9.683   3.846   0.207  0.1799  0.1516 -0.3123
30360W        W46434  13.657  13.317  12.403 -0.1906 -0.0013 -0.0813
30361W        W46435  15.779   1.122   1.048 -0.0349 -0.0150  0.0829
30362W        W46436   1.489   1.594   1.590  0.1010 -0.1315 -0.3596
30363W        W46437  16.680   7.198   5.277  0.1962  0.1522  0.2093
30364W        W46438   8.284  13.292  10.133  0.3897  0.3643  0.0264
30365W        W46439  10.122   4.308   3.637  0.1668 -0.0357 -0.0073
30366W        W46440  15.413  10.758  11.608  0.1707 -0.1102  0.0242
30367W        W46441  17.737   6.137   3.257  0.3722  0.2056  0.0942
30368W        W46442  10.030   4.553  14.681 -0.0580  0.1666 -0.0919
30369W        W46443  13.672   9.561   0.474  0.1643 -0.0417 -0.1672
30370W        W46444   3.538  18.531  12.183 -0.2740 -0.2065 -0.2186
30371W        W46445   0.052  11.417   0.725  0.1819 -0.1062 -0.0888
30372W        W46446  10.556  12.642   2.990 -0.0078 -0.1927  0.0277
30373W        W46447   1.754   8.626   2.599  0.2598  0.2392  0.1082
30374W        W46448  12.883  15.595   2.226 -0.1006  0.3797 -0.5940
30375W        W46449   3.684   2.103  14.428  0.2583 -0.1049 -0.0689
30376W        W46450   4.507   7.013  14.626 -0.0964  0.0602 -0.3707
30377W        W46451   4.012  10.866  13.578 -0.1309 -0.3482 -0.0595
30378W        W46452  12.714  18.880  14.839 -0.1435 -0.0371  0.1876
30379W        W46453  10.044   7.653   0.687  0.0728 -0.0987 -0.0962
30380W        W46454   1.030   7.331   0.323 -0.0074 -0.0146 -0.0589
30381W        W46455  12.492   4.225  14.216  0.0234 -0.1275  0.0441
30382W        W46456   6.040   1.142  10.241 -0.1379 -0.3840  0.0421
30383W        W46457  11.217   2.579   4.509 -0.0049  0.2181  0.1365
30384W        W46458  17.490   3.168   2.729  0.4836 -0.0405 -0.4707
30385W        W46459  16.664  14.558   3.685  0.0770 -0.2541 -0.0641
30386W        W46460  10.965   9.294   2.915 -0.3949  0.1388 -0.1229
30387W        W46461  10.103   3.889  11.424 -0.2866 -0.1157 -0.0055
30388W        W46462  13.117   7.722   4.235 -0.0476  0.0323  0.0309
30389W        W46463  14.005   1.562   0.251  0.2859  0.1686  0.0975
30390W        W46464  18.917   8.278   5.318 -0.0245  0.0653  0.1049
30391W        W46465   4.633  11.225  13.746  0.2461 -0.0782  0.2041
30392W        W46466   1.803   8.818  11.071  0.0066  0.3343  0.0701
30393W        W46467  15.386   1.365  11.947  0.2601 -0.4578 -0.1077
30394W        W46468  17.458  13.078   5.570  0.3001 -0.0443  0.0661
30395W        W46469  14.377  18.908  12.398 -0.0871  0.3830 -0.2916
30396W        W46470   6.062  14.213   3.699 -0.3385 -0.0054 -0.1165
30397W        W46471  10.337  14.057   0.011 -0.3764  0.2151  0.0620
30398W        W46472  12.600  19.310  12.864 -0.0686 -0.1443  0.1685
30399W        W46473  11.240   9.387  10.732 -0.2812 -0.0571  0.0045
30400W        W46474   0.887   2.378  13.365  0.2437 -0.0608  0.2524
30401W        W46475   8.624  16.314   4.844  0.1418 -0.1232  0.1138
30402W        W46476   5.042  11.120   3.684 -0.1508 -0.0199 -0.0550
30403W        W46477   8.825  10.113  13.239 -0.1818 -0.0969  0.3286
30404W        W46478  14.749   6.016  13.749  0.2449 -0.0170  0.0161
30405W        W46479   3.680  11.230  13.730 -0.1173 -0.0085 -0.2296
30406W        W46480  13.038   9.455  13.425 -0.0895  0.4891 -0.0998
30407W        W46481  12.804  14.062   1.209  0.0669  0.0377  0.1175
30408W        W46482  11.592   8.147   0.665 -0.0698 -0.0618 -0.5434
30409W        W46483   7.315   7.768   3.912  0.0579  0.1288 -0.0164
30410W        W46484  17.740  11.705   4.641  0.1650 -0.0657  0.1750
30411W        W46485  14.352  18.514  13.362 -0.0127  0.1942  0.0134
30412W        W46486   6.207  19.000   0.879 -0.0757 -0.1509 -0.3047
30413W        W46487  16.249  14.041   5.666  0.1873  0.1756  0.0294
30414W        W46488   8.281  11.736   4.754  0.1394 -0.1230  0.1898
30415W        W46489  15.073   4.241  11.763 -0.0527  0.1496  0.1941
30416W        W46490  18.885  19.143   5.156 -0.1281  0.1088  0.1604
30417W        W46491   3.617   5.535  14.836 -0.3292  0.0253 -0.3259
30418W        W46492   3.422   0.866   2.865 -0.2304 -0.0586  0.2860
30419W        W46493  13.311   8.603   4.316  0.0433  0.4066 -0.0213
30420W        W46494   9.559   5.201  11.466  0.1742  0.1110 -0.2150
30421W        W46495   7.531  11.557   2.261 -0.0167  0.3683 -0.1109
30422W        W46496   4.101  13.649   5.056 -0.1048  0.0306 -0.0729
30423W        W46497   2.650  16.031   4.662  0.0006 -0.3776  0.3039
30424W        W46498  13.951  13.780   0.639  0.0563 -0.0453 -0.2021
30425W        W46499   2.176   4.783   1.209  0.0442 -0.4030  0.0903
30426W        W46500  18.750   4.645  11.423  0.0307  0.0988 -0.0009
30427W        W46501  15.729   4.907  10.918 -0.3179  0.0206  0.2969
30428W        W46502  17.495   1.190  12.659  0.1147  0.2493 -0.3150
30429W        W46503  17.495   3.774  14.973 -0.0339  0.0633  0.2481
30430W        W46504   7.343  11.581   1.694 -0.1241 -0.2493 -0.0295
30431W        W46505  16.703   9.870  11.439 -0.2272  0.1765  0.0953
30432W        W46506  16.131  11.173  12.434 -0.4356 -0.0647  0.1869
30433W        W46507  18.986  16.105  12.116 -0.3341  0.1923  0.0813
30434W        W46508  18.865  11.741   0.337  0.0092  0.1779 -0.1949
30435W        W46509  12.047   4.333   2.686 -0.2313  0.2727  0.1373
30436W        W46510   2.289   3.466  10.542  0.0724 -0.0908  0.1698
30437W        W46511   6.796  10.840  10.864  0.1279 -0.5097  0.1020
30438W        W46512  12.898   5.926   0.301 -0.4611 -0.0138  0.0380
30439W        W46513   6.421  19.272   4.813 -0.1698 -0.1982 -0.5556
30440W        W46514  15.816  16.186   1.814  0.2534  0.2057  0.2483
30441W        W46515  15.609  13.769   4.189  0.2089  0.0192 -0.1082
30442W        W46516   2.718  13.933  11.552 -0.0248  0.1223  0.0544
30443W        W46517  11.398   7.712   0.598  0.1037 -0.0041 -0.0309
30444W        W46518  13.102   0.740  13.106 -0.1215  0.0496 -0.2940
30445W        W46519  12.846  11.933  12.216  0.5474  0.0412  0.0549
30446W        W46520   4.547   8.621   1.186  0.1698  0.1321  0.1193
30447W        W46521  10.837   2.033  14.221  0.2285 -0.2493  0.0397
30448W        W46522   3.510   5.686   1.454  0.0266  0.3504  0.1121
30449W        W46523   1.893  19.124   0.839 -0.0484 -0.2032 -0.1225
30450W        W46524   1.232  15.981   4.794 -0.1218 -0.1008  0.1379
30451W        W46525   6.799  17.871  10.692  0.1243  0.3160 -0.0895
30452W        W46526   1.892  17.135   9.883 -0.0192  0.1201 -0.0373
30453W        W46527   8.088   5.322  12.657  0.0599  0.0037  0.3525
30454W        W46528   2.070   9.421  11.369 -0.0563 -0.0883 -0.1594
30455W        W46529   4.820   4.339  10.798  0.4259  0.0418 -0.0147
30456W        W46530   1.831   4.576   0.300  0.2634 -0.1673 -0.0847
30457W        W46531  11.091  13.724   3.423  0.1111  0.1454 -0.3688
30458W        W46532   6.122   8.315   4.966  0.0262  0.1576  0.0297
30459W        W46533  11.141  11.080   3.199 -0.1026  0.4462 -0.1927
30460W        W46534  10.265   6.793   1.396 -0.0215  0.1416 -0.1530
30461W        W46535   5.729   3.741   2.212 -0.1146 -0.2007 -0.1906
30462W        W46536  18.830  17.345  11.441 -0.0704  0.0402  0.4522
30463W        W46537   2.803  10.645   0.730  0.2766  0.3176 -0.4711
30464W        W46538  13.498   0.926  11.823 -0.0595  0.0513 -0.2704
30465W        W46539   1.291   3.974  14.671 -0.0184 -0.0020 -0.1097
30466W        W46540   1.913  15.826   2.470  0.0091  0.0602 -0.0254
30467W        W46541  13.363  17.112   1.283 -0.2022  0.3884 -0.0352
30468W        W46542   9.355   7.161   2.770  0.0841 -0.1646  0.2036
30469W        W46543  18.241  14.487  12.454  0.1509 -0.2002 -0.0604
30470W        W46544   1.700   6.666   4.510 -0.0766 -0.0078  0.0198
30471W        W46545  18.560  15.306  10.550  0.1219  0.0247 -0.2338
30472W        W46546   9.849  14.567  14.158  0.0491  0.1066 -0.1141
30473W        W46547   9.468   6.140  13.891 -0.2502 -0.3719  0.0220
30474W        W46548   3.207  17.879   2.481 -0.1646  0.1425  0.1159
30475W        W46549  18.328   0.624  11.626  0.3467 -0.3066 -0.5573
30476W        W46550   5.305   0.280  10.213 -0.0377  0.0083  0.4070
30477W        W46551  19.073   5.906   5.150  0.1043 -0.1758  0.1879
30478W        W46552   1.629   0.163   4.882  0.2799 -0.0865 -0.0747
30479W        W46553   7.867  15.286  11.893 -0.2895 -0.1217  0.3171
30480W        W46554  13.822   0.999  14.268  0.2616 -0.0166 -0.0894
30481W        W46555  10.082  11.315   4.682  0.2357 -0.1144  0.0863
30482W        W46556   2.139   3.923  14.670  0.0206  0.0247  0.0168
30483W        W46557   7.722   2.029  13.301 -0.0129 -0.0542  0.2448
30484W        W46558   3.974  12.614   0.134  0.0437 -0.1938 -0.0565
30485W        W46559  18.485   0.166  12.701 -0.0608  0.0207  0.2760
30486W        W46560   9.144   7.396   3.171  0.0956  0.3561 -0.0037
30487W        W46561   5.711   8.215  14.998  0.1475 -0.2839 -0.3589
30488W        W46562   5.023  13.940  11.371 -0.1224 -0.0411 -0.3772
30489W        W46563  18.367  12.908  12.616 -0.3312  0.3026  0.0491
30490W        W46564   2.944  10.240  13.299  0.0242 -0.2938  0.0902
30491W        W46565  12.205   1.116  10.357 -0.0770 -0.0654  0.2832
30492W        W46566   4.206  16.736   4.083 -0.2160  0.1029 -0.0794
30493W        W46567   8.542   5.443  13.652 -0.0337  0.2082  0.0143
30494W        W46568   4.862   5.994   5.429 -0.1286 -0.0237  0.2499
30495W        W46569   0.970  10.900   0.911  0.2681  0.7224 -0.2717
30496W        W46570  11.788  14.957  12.555  0.0323 -0.2225  0.4452
30497W        W46571  14.406  12.031   3.631  0.1446  0.1837 -0.2441
30498W        W46572  13.797  12.912   5.501 -0.0177  0.0157 -0.3417
30499W        W46573   3.630  13.438   4.213 -0.3488 -0.0794  0.4360
30500W        W46574   0.756  15.769  13.166  0.0239  0.1352  0.2990
30501W        W46575   1.772  14.436   3.704  0.0197  0.2287 -0.1206
30502W        W46576  14.390   8.975  14.091 -0.1502  0.1662  0.0690
30503W        W46577   1.121   0.799   2.632  0.4120  0.1915 -0.4010
30504W        W46578  17.184   1.563   3.124 -0.0747  0.0865 -0.3723
30505W        W46579  11.088  12.026  14.386  0.1993 -0.1793 -0.1498
30506W        W46580   5.203  15.568  12.764  0.0794  0.0148 -0.0357
30507W        W46581   5.111   5.047  12.893 -0.1209 -0.0533 -0.2343
30508W        W46582   8.346   4.289   1.851  0.0133  0.4574 -0.1709
30509W        W46583   3.399   9.340  11.957 -0.0157 -0.0680 -0.1334
30510W        W46584   6.399  12.528  14.204 -0.0713  0.5232 -0.0605
30511W        W46585  12.627   4.691   3.215  0.1290  0.0877 -0.2424
30512W        W46586  12.515   7.534  11.409 -0.2407  0.0346  0.1417
30513W        W46587  12.584  17.155  11.123  0.1612 -0.0690  0.1310
30514W        W46588  18.155  16.013  12.414 -0.0497 -0.0620  0.1192
30515W        W46589   3.719   1.370  12.748  0.4173 -0.3538  0.1466
30516W        W46590  16.351   2.702  13.102  0.1362  0.2587 -0.0710
30517W        W46591  16.556   0.828   0.055 -0.1210  0.3720 -0.2129
30518W        W46592  16.183  18.669   0.698  0.0099 -0.0043 -0.0436
30519W        W46593  10.400   8.908   5.041 -0.2963 -0.2038  0.0721
30520W        W46594  13.539  10.498   2.123 -0.1185 -0.3849  0.0917
30521W        W46595   1.176   6.408   3.670 -0.0962 -0.0250 -0.2721
30522W        W46596   8.632   4.576   4.077  0.2113 -0.1442  0.3372
30523W        W46597   7.009   7.633   3.311  0.1524  0.2925  0.2034
30524W        W46598  10.701   7.917   0.187 -0.1709 -0.3422 -0.3777
30525W        W46599  12.793  14.712  12.034 -0.1142  0.0091 -0.0669
30526W        W46600   5.362   5.028   3.502  0.2804 -0.1447  0.0794
30527W        W46601   6.306  15.251   3.911  0.5119 -0.1066 -0.0097
30528W        W46602  17.359  17.622  12.280  0.0606 -0.0440 -0.1018
30529W        W46603   7.325  17.509  10.735 -0.1761  0.2021 -0.1196
30530W        W46604   1.471   0.641   2.964 -0.0094 -0.2399 -0.0820
30531W        W46605  15.511   7.318  11.548 -0.1123  0.0601  0.0447
30532W        W46606   9.835  14.823   2.512 -0.0154  0.3648  0.1423
30533W        W46607  18.758   8.081  12.947 -0.1324  0.0622 -0.0555
30534W        W46608  17.326   2.383  14.568 -0.0805  0.1834 -0.0930
30535W        W46609   7.432  16.660   4.323  0.1508  0.2261  0.0984
30536W        W46610   5.173  15.614  12.218 -0.1012  0.0352  0.3162
30537W        W46611   2.085  13.895  13.597  0.2458 -0.0031 -0.1001
30538W        W46612  13.734  16.187  13.608 -0.1457 -0.1954  0.0883
30539W        W46613  14.195  11.170   1.746  0.0775  0.0278 -0.3640
30540W        W46614   5.784   2.471  14.962 -0.1613 -0.1664  0.0051
30541W        W46615   5.934   5.964  14.100 -0.3611 -0.2124  0.0390
30542W        W46616  19.284  12.608  10.669 -0.1785  0.0057  0.0307
30543W        W46617   4.854  10.743  13.042 -0.1234  0.1426  0.0669
30544W        W46618  15.799   9.482   5.118  0.0545 -0.0557 -0.0586
30545W        W46619  14.318   5.797  13.928  0.0072 -0.2257  0.1869
30546W        W46620  15.939   8.918   4.511 -0.1571 -0.0965 -0.1279
30547W        W46621  17.325   3.498  12.064 -0.3212  0.2513  0.2275
30548W        W46622  16.372   1.521   3.886 -0.0606  0.2033 -0.0661
30549W        W46623  17.284  11.390   1.076  0.0091 -0.2285  0.2187
30550W        W46624   9.309   5.309   2.405 -0.2122  0.3436 -0.0997
30551W        W46625   2.303  16.469   1.037 -0.4232 -0.2397 -0.1404
30552W        W46626  10.160  13.818  11.712  0.2089  0.0815 -0.2871
30553W        W46627   3.455  12.516  10.407 -0.1932  0.1325  0.0559
30554W        W46628   9.537  13.596  11.725  0.1091 -0.2330 -0.1864
30555W        W46629   1.657   0.145  10.481 -0.1667  0.1194 -0.0297
30556W        W46630  15.913   0.061   0.521 -0.0701 -0.2546 -0.1796
30557W        W46631  17.825   5.662  13.761 -0.1262 -0.0744  0.2468
30558W        W46632   2.824  11.213  11.618 -0.1939  0.2242 -0.2155
30559W        W46633   7.074  19.276  11.509  0.1158 -0.2812 -0.0124
30560W        W46634  13.919  16.394   1.799 -0.0624 -0.1562  0.3599
30561W        W46635  10.682  17.921  10.103  0.3449 -0.2583 -0.1647
30562W        W46636  16.779  10.610   2.634 -0.0064 -0.1718 -0.1278
30563W        W46637   9.885  14.632   3.344  0.1055  0.0552  0.0563
30564W        W46638  16.461   3.053  11.022 -0.0655 -0.0379  0.2966
30565W        W46639   9.385   4.123  10.042 -0.2932  0.1608 -0.1874
30566W        W46640   6.018  18.181   2.146  0.0149  0.1161  0.3238
30567W        W46641   0.483   7.532  13.348 -0.0713  0.1668  0.3244
30568W        W46642   7.014   4.366   2.759  0.0624 -0.4979  0.0691
30569W        W46643   5.923  14.764  12.161  0.0190 -0.3233 -0.0787
30570W        W46644   9.939   2.468   1.872  0.2424 -0.1210 -0.2539
30571W        W46645  18.393   0.813  14.616 -0.0804  0.0275 -0.0793
30572W        W46646   5.616   0.359  12.415 -0.0352  0.0471  0.0635
30573W        W46647   3.378   1.578  13.243  0.0777  0.1891 -0.1301
30574W        W46648   2.670  18.315   9.637 -0.0375 -0.0333  0.0987
30575W        W46649   9.254   7.778  11.460 -0.2146  0.1864 -0.3441
30576W        W46650   8.876  15.258  13.418  0.4947  0.0545 -0.2013
30577W        W46651   4.326  11.312   4.155  0.3685 -0.2406 -0.1247
30578W        W46652   3.039   8.376   2.937 -0.0057 -0.2673 -0.0976
30579W        W46653   1.401  13.007   0.096  0.0643 -0.0705 -0.4065
30580W        W46654   1.570   9.492  11.241  0.0179  0.0119  0.3025
30581W        W46655   2.247  11.384   2.756 -0.3266 -0.4643 -0.0084
30582W        W46656  15.069  11.052   0.098 -0.2820 -0.0584 -0.2353
30583W        W46657  17.432   5.233   0.640 -0.1354  0.0213  0.2462
30584W        W46658   8.773  13.087  10.109  0.1096  0.3344 -0.3123
30585W        W46659  13.867   7.112  12.309  0.3266 -0.0329 -0.3785
30586W        W46660  16.484   4.140  13.936  0.0619  0.5324  0.0547
30587W        W46661   9.785   4.116  13.148  0.0452 -0.4342 -0.2781
30588W        W46662   2.687   4.650  12.975  0.1182 -0.3214 -0.3162
30589W        W46663  13.312   1.519  12.821  0.0304 -0.1558  0.2811
30590W        W46664  17.884   4.184  10.988  0.3236  0.1631  0.0222
30591W        W46665   6.425   3.897  13.246 -0.0966  0.1424  0.2062
30592W        W46666  11.457   8.444   3.271  0.2104  0.0452  0.3041
30593W        W46667   0.399   7.137  14.595 -0.0467  0.2858 -0.1764
30594W        W46668  14.779   6.537   0.129 -0.4133  0.0073 -0.1215
30595W        W46669   8.131   4.277   0.400 -0.2614 -0.0530  0.2023
30596W        W46670   1.881  11.816  13.790  0.0082 -0.1362  0.1399
30597W        W46671   1.072   9.879   3.030 -0.0779  0.0508  0.4270
30598W        W46672   0.438   1.350  12.959 -0.1090 -0.1316  0.1500
30599W        W46673   3.356   5.917   4.955 -0.0226 -0.2170  0.1838
30600W        W46674  11.278   1.342   5.471 -0.0982  0.2347  0.3453
30601W        W46675  13.402   0.548   4.106  0.0826  0.0085  0.0054
30602W        W46676   5.410   1.539  11.853 -0.2456  0.2828  0.1472
30603W        W46677   4.954   8.715   3.470 -0.2229 -0.3146  0.0988
30604W        W46678   8.057  12.642  13.797  0.0806 -0.2528 -0.0751
30605W        W46679  15.965   9.523  13.245 -0.1227 -0.1834  0.0094
30606W        W46680  12.035  12.216  10.930 -0.1511  0.1875  0.1162
30607W        W46681  11.270  18.217   1.763 -0.1250  0.0336 -0.3063
30608W        W46682  17.281   1.424   1.552 -0.0044  0.4685 -0.0381
30609W        W46683  13.586  16.358  12.349 -0.1391  0.2389  0.0032
30610W        W46684   6.543   1.891  11.059 -0.0449  0.4875 -0.2518
30611W        W46685  18.277  11.942  13.736  0.3435  0.0897  0.0060
30612W        W46686  15.475   7.569   5.100 -0.2223  0.2248  0.1279
30613W        W46687  12.462   3.064   1.017 -0.1833 -0.2289 -0.0630
30614W        W46688   6.831  11.925  13.518  0.1576  0.3390 -0.2871
30615W        W46689  14.857  18.775   0.835  0.2399 -0.1991 -0.1622
30616W        W46690   6.326  13.632   1.904  0.0489 -0.2397 -0.0086
30617W        W46691   5.939  10.070   5.328 -0.1227 -0.2137 -0.1457
30618W        W46692   1.165   2.083  10.315  0.0630 -0.0575  0.1183
30619W        W46693  17.396  11.574  10.933 -0.4515 -0.2300  0.4170
30620W        W46694  16.145  15.189  11.702 -0.0112 -0.1753 -0.0957
30621W        W46695   2.558  17.877  12.045  0.1651  0.2128 -0.0755
30622W        W46696  10.428   8.263   5.257 -0.0620 -0.0970 -0.0372
30623W        W46697  15.688   6.949  12.399 -0.0003 -0.0344 -0.0082
30624W        W46698  17.758   0.199  14.726 -0.3758 -0.1060  0.1061
30625W        W46699  14.465  12.996   3.358 -0.2072 -0.0973 -0.0229
30626W        W46700  12.426  18.153   2.776  0.2783  0.1574  0.1818
30627W        W46701   5.018  12.063  10.599  0.0273  0.1749 -0.0749
30628W        W46702  13.578  12.391   3.481 -0.1037 -0.0461 -0.0976
30629W        W46703   8.891   7.413   4.786  0.2156 -0.0219  0.0812
30630W        W46704  11.716  17.093   1.436  0.2478  0.0865  0.1901
30631W        W46705   0.810  11.669   3.756  0.0491  0.2310  0.0086
30632W        W46706   5.672   8.367  12.551  0.0170 -0.0488 -0.1757
30633W        W46707  12.170   9.294   2.113 -0.2261  0.3285  0.2589
30634W        W46708  18.125  16.887   0.186  0.1449  0.0687 -0.0120
30635W        W46709  16.438   1.855   4.927  0.1467 -0.4557  0.1146
30636W        W46710   4.222   5.520   2.899  0.0337  0.0354  0.0581
30637W        W46711   4.017   7.280   2.257  0.1239  0.1492  0.1095
30638W        W46712   2.391   1.676  13.237  0.6393  0.0813 -0.0063
30639W        W46713  17.994   0.379   2.284 -0.0652 -0.7308  0.2614
30640W        W46714  16.089   7.899   0.153  0.2586 -0.1195  0.0757
30641W        W46715   8.178   5.808  13.884  0.2146  0.1030 -0.0515
30642W        W46716   2.142   7.682   3.836  0.0558  0.1596 -0.3905
30643W        W46717  13.093   0.778   1.522 -0.2090 -0.2882 -0.4372
30644W        W46718  15.955  12.420   0.445  0.0337  0.1659  0.2162
30645W        W46719   3.468  16.724   2.139  0.1797  0.0656 -0.1297
30646W        W46720   6.695   7.352   1.474 -0.1471 -0.1931  0.0914
30647W        W46721   6.134  13.385   4.029  0.0555  0.4611 -0.0496
30648W        W46722   4.552   7.873  11.126 -0.1396  0.1179 -0.1913
30649W        W46723   3.777   9.766   1.881 -0.0245  0.3185 -0.0855
30650W        W46724   5.674   7.573  14.571 -0.0063  0.1460 -0.2154
30651W        W46725  11.004   1.739  11.385 -0.1300 -0.1491  0.0404
30652W        W46726  17.797  10.400   4.871 -0.0783 -0.0960  0.2203
30653W        W46727  14.863  16.385   5.691 -0.1493  0.3934 -0.2176
30654W        W46728  12.445   9.108  13.343 -0.1811 -0.3686  0.2131
30655W        W46729  17.491  17.113  14.572 -0.1257  0.0248 -0.3328
30656W        W46730   8.468  15.040  13.559  0.2278 -0.0328  0.1304
30657W        W46731  11.300   4.716   1.196  0.0537  0.1105 -0.1264
30658W        W46732   0.984  13.395  12.850 -0.0714  0.1317 -0.1547
30659W        W46733  10.306   7.262  14.637  0.0639  0.0804 -0.0948
30660W        W46734  17.309  14.443  11.139  0.0021 -0.1790 -0.1936
30661W        W46735   5.366  11.244   1.211  0.0451 -0.1811 -0.1574
30662W        W46736   2.283  14.662  12.798 -0.1512 -0.1357  0.3389
30663W        W46737   4.098   4.754   0.929  0.2653  0.3402 -0.0745
30664W        W46738   0.151  15.274  12.879  0.1740  0.1757  0.0970
30665W        W46739   0.755   0.761   3.430  0.0100  0.0295 -0.2129
30666W        W46740   9.880  15.618  14.545 -0.0122 -0.0194  0.1109
30667W        W46741  19.132  13.849   4.415 -0.0669 -0.4191  0.0048
30668W        W46742  18.715  19.312  14.515 -0.2195  0.0192 -0.2069
30669W        W46743   4.002  11.752  12.252  0.4193 -0.0040 -0.2678
30670W        W46744  12.851  18.929  12.365  0.1167  0.1495 -0.1848
30671W        W46745  10.589  11.861  12.377  0.2034 -0.0257  0.0287
30672W        W46746  13.004  16.575   3.650  0.1604  0.1474 -0.3488
30673W        W46747   2.294   7.288  14.556  0.0103 -0.0640  0.0868
30674W        W46748   1.267  18.550   2.944  0.2708 -0.2035  0.2331
30675W        W46749  14.301   9.638   2.737 -0.0958  0.2033  0.2543
30676W        W46750  17.544  14.235   1.468 -0.0525  0.3072  0.0197
30677W        W46751   4.027   9.774   4.031 -0.0394 -0.0025  0.1492
30678W        W46752  10.449   6.563  10.734 -0.3958  0.2508  0.1658
30679W        W46753  15.734   7.007   5.033 -0.0292 -0.0616 -0.1616
30680W        W46754  12.832  18.057   2.490 -0.2185  0.2786  0.0619
30681W        W46755   5.949  11.403  11.113 -0.0907 -0.2259  0.0790
30682W        W46756   2.135  11.714  12.096  0.3551  0.1161 -0.1154
30683W        W46757   4.890   2.515  13.985  0.0874 -0.1567 -0.2451
30684W        W46758  17.674   6.212  14.480 -0.1883  0.1672 -0.2743
30685W        W46759   6.690   1.271   1.953  0.1185 -0.2699 -0.0352
30686W        W46760   6.984  17.941   2.284 -0.2151 -0.0386  0.4249
30687W        W46761   6.571  16.519   0.304 -0.1560 -0.2404  0.0377
30688W        W46762  18.848   7.081  13.915 -0.2986  0.1684  0.2437
30689W        W46763   7.587  12.530  13.477 -0.0423 -0.1402  0.1627
30690W        W46764  19.137  10.451  14.790  0.1081  0.2190 -0.0635
30691W        W46765   7.283   9.479   1.308 -0.0099  0.0509 -0.0898
30692W        W46766  15.078  18.331   2.692  0.2639  0.0956 -0.0568
30693W        W46767  12.324   8.868   3.281 -0.2029 -0.0582  0.0528
30694W        W46768  15.765  15.270  14.084  0.3285  0.0785  0.1894
30695W        W46769  18.770  14.436  11.327  0.0190 -0.0314 -0.0539
30696W        W46770  16.639   3.120   3.934  0.0328 -0.0224  0.1877
30697W        W46771  12.003  17.755  13.912 -0.0361 -0.2053  0.3009
30698W        W46772  10.721   1.697  12.900  0.0463 -0.0176  0.0047
30699W        W46773  12.519  17.480  11.494 -0.0660  0.2090  0.0614
30700W        W46774  13.740   1.289   0.585 -0.0368 -0.4664  0.1067
30701W        W46775  14.127   5.720   3.202 -0.0339 -0.1307  0.0462
30702W        W46776   1.622   3.627  10.897  0.4270  0.0068  0.4293
30703W        W46777  16.410   9.725   1.426 -0.1370  0.1164 -0.0035
30704W        W46778   1.083  18.696   2.081  0.1512 -0.2790 -0.0334
30705W        W46779   4.751  12.923  12.854 -0.0466 -0.3021 -0.0551
30706W        W46780  15.663  14.838  14.463 -0.1566 -0.2091  0.1523
30707W        W46781  10.144   3.148  10.269  0.0298 -0.3039 -0.1358
30708W        W46782  13.236  16.150   9.794 -0.2083 -0.2103 -0.2360
30709W        W46783  12.330   7.992  11.108  0.0630  0.2342 -0.2339
30710W        W46784   9.808   8.899   4.412  0.0170  0.1320 -0.0707
30711W        W46785  10.107  17.874  13.593 -0.3601 -0.0658  0.0347
30712W        W46786  17.133   4.117  14.461 -0.0851 -0.1321 -0.0780
30713W        W46787   5.097  13.551   2.781  0.2781 -0.0220 -0.0266
30714W        W46788   9.912  11.917  11.256 -0.3558  0.1820  0.0786
30715W        W46789   3.115  10.389  14.643 -0.1276 -0.0620  0.2040
30716W        W46790   7.411   4.980  14.407  0.1797  0.2254 -0.1023
30717W        W46791   2.638   1.427   3.812  0.0114  0.0847 -0.0192
30718W        W46792   4.981   6.538  12.622  0.1632  0.2429 -0.0194
30719W        W46793   7.549  15.320   2.569 -0.1026 -0.0458  0.1789
30720W        W46794  17.289   7.532  10.638  0.1653  0.0925 -0.2163
30721W        W46795   8.295   7.611   2.737 -0.1194 -0.1239 -0.1300
30722W        W46796   0.946  14.269  12.857  0.0427  0.3559  0.0911
30723W        W46797   6.885  10.385  11.251 -0.0399  0.1954 -0.1769
30724W        W46798  13.714   6.805   1.506 -0.0144 -0.2396 -0.3137
30725W        W46799  13.935   3.946  10.500  0.1317  0.2449  0.0221
30726W        W46800   6.401   2.772  12.538 -0.2188 -0.0208  0.1147
30727W        W46801   5.797  18.212   3.821 -0.0672 -0.5086  0.1291
30728W        W46802   5.579  10.200  14.872 -0.1263 -0.0405  0.0596
30729W        W46803   9.505   4.328   2.101  0.1662 -0.3736  0.3857
30730W        W46804   7.415  12.770   0.453  0.0562  0.2108  0.2211
30731W        W46805   8.160  13.234  12.241  0.1842  0.1468  0.3094
30732W        W46806   7.452  10.785  10.742 -0.0748  0.2110  0.0433
30733W        W46807   9.551  12.535   1.221 -0.0227 -0.3482 -0.0897
30734W        W46808   4.445  12.469   0.210 -0.1978 -0.0724 -0.1737
30735W        W46809   1.079   1.947   1.695 -0.0373  0.1633 -0.0385
30736W        W46810   5.198  17.786  14.556 -0.3762 -0.0537  0.0155
30737W        W46811  12.919   2.199  13.288 -0.1309 -0.0214 -0.0808
30738W        W46812   2.710   6.675   0.622  0.1538  0.2365 -0.1281
30739W        W46813   4.285  15.799  11.744  0.3082  0.1779 -0.1384
30740W        W46814  18.472  19.289  13.849  0.2709  0.3345 -0.3639
30741W        W46815   0.857  14.501  10.314 -0.1049  0.1841 -0.0078
30742W        W46816   1.820  15.327   4.089 -0.0326 -0.1533  0.0290
30743W        W46817   4.156  13.495  13.119  0.1621 -0.2688  0.0415
30744W        W46818   2.616  17.390   2.285  0.0346  0.0911 -0.0295
30745W        W46819   9.611  18.717  14.504 -0.3027  0.2245  0.1421
30746W        W46820  15.818  12.850   1.273 -0.1019 -0.1011  0.1801
30747W        W46821   3.024  16.700   1.693  0.1319 -0.0585 -0.2033
30748W        W46822  19.285   0.665  10.179  0.2948  0.1282  0.1110
30749W        W46823  14.810   2.079   0.517 -0.1208 -0.4214  0.1054
30750W        W46824   3.408   4.018  11.548  0.0337  0.2582 -0.1509
30751W        W46825  16.954   1.934  10.076 -0.0850  0.3439  0.3130
30752W        W46826   2.721  13.131   5.655 -0.3292  0.2312 -0.0597
30753W        W46827  10.074   3.922   1.838 -0.0622 -0.0722 -0.5327
30754W        W46828   2.275   0.848   3.647 -0.1800  0.1283 -0.0551
30755W        W46829  18.970   3.585   0.535 -0.0424 -0.3053 -0.0587
30756W        W46830  14.955  17.884   0.502 -0.2378 -0.0184 -0.0560
30757W        W46831  14.139   0.083   3.429 -0.1505  0.0456  0.0324
30758W        W46832   3.365   7.840   3.067 -0.2971 -0.1051 -0.0506
30759W        W46833  19.135   7.688  12.042 -0.1563 -0.1784  0.3260
30760W        W46834   9.825  17.851   1.382 -0.5249  0.3651  0.1123
30761W        W46835   7.603  12.179   1.512  0.0140 -0.2005 -0.4857
30762W        W46836  15.050  16.126  10.794  0.3598 -0.2546  0.1747
30763W        W46837  13.866  16.372   3.805  0.0183 -0.0093 -0.1978
30764W        W46838   9.543   0.720   1.738 -0.2783 -0.2657  0.0010
30765W        W46839   2.210   9.039   0.129 -0.0630  0.1417  0.2620
30766W        W46840   0.446   8.908  10.999 -0.0374 -0.0770 -0.2102
30767W        W46841   9.829  13.859  13.090  0.1994 -0.0596  0.5418
30768W        W46842   7.634   4.247   4.095  0.2575  0.1978 -0.2226
30769W        W46843  17.526   5.044  13.143 -0.2508  0.0746  0.3149
30770W        W46844   2.351   9.890   2.718 -0.0367  0.2468 -0.1186
30771W        W46845  16.544  18.434  11.342 -0.2063 -0.0309 -0.0680
30772W        W46846  14.592   1.385   4.315 -0.2384 -0.1453 -0.1860
30773W        W46847   5.862  15.179   0.497 -0.0910 -0.1160 -0.1519
30774W        W46848  10.046   6.559   3.753 -0.0932 -0.4667  0.2652
30775W        W46849   3.851   0.763  12.845  0.2854  0.0488  0.3160
30776W        W46850   6.980   8.647  14.751  0.4584 -0.1189 -0.3508
30777W        W46851  17.324   5.800  13.252  0.0771 -0.1224 -0.0263
30778W        W46852  16.337   9.096   0.753 -0.0584 -0.3452 -0.0769
30779W        W46853   3.980   0.895  14.842  0.1427 -0.1968  0.1682
30780W        W46854  10.350  12.913  10.605  0.0445 -0.0404  0.0095
30781W        W46855   1.354  11.402  12.668  0.0391 -0.0196  0.0170
30782W        W46856   3.201  14.576   5.276 -0.1246 -0.2977  0.2649
30783W        W46857  13.649  16.852  10.434 -0.3175 -0.1557 -0.2420
30784W        W46858   9.358   0.712  14.138  0.0064  0.1659 -0.0433
30785W        W46859   5.589  16.778  11.614  0.1860  0.3300  0.1648
30786W        W46860  17.108  18.361   2.104  0.1386  0.5228  0.0380
30787W        W46861  15.021   5.526   3.177 -0.3107 -0.0033  0.2811
30788W        W46862  17.612  10.446   0.845 -0.0877 -0.0551  0.0530
30789W        W46863  11.902   6.247   3.562 -0.2087 -0.2341  0.0096
30790W        W46864   7.904   7.561  11.580  0.3246  0.1052  0.3618
30791W        W46865  18.281   5.288  11.265 -0.3786  0.0020 -0.4001
30792W        W46866   4.556  11.952   0.512  0.1842  0.2810  0.1560
30793W        W46867   6.922   1.523  14.354  0.0200 -0.3370 -0.0555
30794W        W46868   9.790  13.839   2.380  0.2520 -0.1864 -0.2772
30795W        W46869  12.581   3.810   4.805  0.1938 -0.2997 -0.1348
30796W        W46870   7.286   1.608   3.967 -0.2020  0.3038 -0.2117
30797W        W46871   1.169  16.122  14.632 -0.2635  0.1970  0.3219
30798W        W46872  10.344  16.758   1.100 -0.0161  0.2044  0.0341
30799W        W46873   1.323   2.341   0.298  0.1408 -0.2565  0.0203
30800W        W46874   6.393  17.800  13.192 -0.1675  0.2137 -0.0536
30801W        W46875   5.534   9.127  12.978 -0.1267  0.0643  0.0131
30802W        W46876   0.389  16.919  10.422 -0.2184 -0.0574 -0.0508
30803W        W46877  11.819   2.372   9.032  0.1419 -0.0601  0.2407
30804W        W46878   5.821  18.679  11.972 -0.1907 -0.0866  0.3194
30805W        W46879  12.744   6.069   2.627 -0.2216 -0.0024  0.0277
30806W        W46880  15.089   1.661   0.478 -0.0560 -0.1164 -0.1834
30807W        W46881  11.005  15.087   2.228  0.3034  0.2028  0.2343
30808W        W46882  18.597  10.021  13.963  0.0859 -0.2004  0.0761
30809W        W46883   3.031   5.883   2.523  0.0598  0.0120  0.0334
30810W        W46884  16.036   2.027  14.769  0.1129 -0.1137 -0.1623
30811W        W46885  11.403   3.095  12.392  0.0243  0.2237  0.0425
30812W        W46886   3.622   1.757  11.289  0.2169 -0.1629 -0.0514
30813W        W46887  10.562   6.376  13.947  0.3200 -0.2627  0.1311
30814W        W46888   2.907   5.915   5.169  0.1393  0.1319  0.2351
30815W        W46889   7.866  15.588   4.066  0.2421  0.0334 -0.4834
30816W        W46890   5.794  17.965   1.325  0.0234 -0.1749 -0.1825
30817W        W46891  13.692  10.261   1.621 -0.4237  0.4341 -0.3576
30818W        W46892  11.546   0.446   1.061 -0.1652  0.1485 -0.0821
30819W        W46893   6.337  19.021   3.420 -0.0833  0.2005 -0.2659
30820W        W46894  19.172   4.892   1.474 -0.0303 -0.0596 -0.0360
30821W        W46895   1.804  15.102   9.246 -0.2711 -0.0977 -0.2074
30822W        W46896  17.973   1.019  11.131  0.0756  0.1134 -0.3007
30823W        W46897   5.337   9.297  14.050 -0.0774  0.1293  0.3421
30824W        W46898   4.452   0.617   0.764 -0.3377  0.1290 -0.0635
30825W        W46899   2.720   6.192   3.953 -0.3308 -0.0636 -0.1211
30826W        W46900  18.310  10.984  12.256 -0.0719 -0.0986 -0.1615
30827W        W46901  14.559  11.977  12.935  0.3872 -0.0085 -0.0040
30828W        W46902   1.575  18.331   3.243 -0.2015 -0.2132  0.0141
30829W        W46903  15.167   6.847   1.428  0.0067 -0.2741 -0.0987
30830W        W46904  18.773  11.195  13.252 -0.1493 -0.1358  0.2111
30831W        W46905   8.006   1.357  12.782 -0.2478  0.0672  0.0936
30832W        W46906   7.566   0.050  13.212 -0.0183 -0.0834  0.2053
30833W        W46907   3.885  11.967   3.392  0.0568 -0.1698  0.0075
30834W        W46908  19.021  18.604  10.850  0.0065  0.4023 -0.0110
30835W        W46909   9.560   2.127  14.890 -0.0679 -0.2821  0.0439
30836W        W46910  10.213  12.070  12.247  0.1975 -0.1082  0.1447
30837W        W46911   4.190  13.610  12.554 -0.1253  0.1017 -0.2379
30838W        W46912  11.799   6.591   2.678  0.0106 -0.2041 -0.0581
30839W        W46913  17.814  16.481  10.376  0.4237 -0.1608 -0.1556
30840W        W46914   1.597   0.139  13.940  0.2722  0.2420  0.1329
30841W        W46915   3.745   2.431   0.468 -0.1885  0.4787 -0.0357
30842W        W46916   2.177  18.404   9.751 -0.2289 -0.0836  0.2184
30843W        W46917  17.054  11.564   5.461 -0.0973  0.1644 -0.1481
30844W        W46918   5.543   1.503   3.703  0.1311  0.3812 -0.1129
30845W        W46919   0.342   2.431   1.405 -0.1899 -0.0954 -0.1684
30846W        W46920  11.838   4.660   1.115  0.3510 -0.0480 -0.1012
30847W        W46921  13.987  10.306  11.744  0.1133 -0.2002  0.4169
30848W        W46922   4.442  13.361   1.811 -0.2353 -0.0497 -0.1519
30849W        W46923  18.839   0.647  11.495 -0.0316  0.1191 -0.2010
30850W        W46924   9.557  17.787   0.125  0.0986  0.0614  0.0950
30851W        W46925  14.110  17.397   3.760  0.2778 -0.0099  0.0960
30852W        W46926   0.603  10.989   5.401 -0.1428  0.0907 -0.1621
30853W        W46927   2.985   2.306   4.499 -0.0767 -0.2583  0.1646
30854W        W46928   9.819   9.212   3.622  0.2083 -0.0901  0.3380
30855W        W46929   5.842  15.758  11.754 -0.0887  0.2503  0.0801
30856W        W46930   8.756  10.520  14.241  0.1094 -0.2965 -0.2976
30857W        W46931  14.745   0.488   3.979 -0.0205 -0.3506 -0.2748
30858W        W46932   4.459   2.349  13.373  0.0707  0.1606  0.1212
30859W        W46933   0.753   8.349   2.801 -0.1518 -0.1237  0.2124
30860W        W46934   1.330   2.639   1.737  0.3426 -0.1818  0.1426
30861W        W46935  16.705  14.493   4.356  0.1894 -0.0523  0.1670
30862W        W46936  15.093   1.746   4.655  0.0390  0.2508  0.0727
30863W        W46937  13.704   9.715  11.073  0.3559 -0.1345  0.0750
30864W        W46938  12.263  10.503  13.684 -0.1064 -0.0449  0.1348
30865W        W46939  19.239   1.318   5.267 -0.0808 -0.0407  0.0487
30866W        W46940  14.856  15.692   1.824 -0.1462  0.0847 -0.3778
30867W        W46941   7.530  19.081   1.781 -0.3409 -0.0506 -0.2425
30868W        W46942  13.166   7.022  11.298  0.0066  0.1266  0.3522
30869W        W46943   3.264   5.527   4.421  0.0138  0.2208 -0.3009
30870W        W46944   3.641   6.502  14.627  0.0041 -0.1764 -0.0574
30871W        W46945   6.049   6.221   3.113 -0.0238  0.0604 -0.4427
30872W        W46946   5.920   2.656   0.409  0.0352  0.3972 -0.0679
30873W        W46947   9.197   1.815   5.619 -0.2728 -0.2361 -0.2737
30874W        W46948   2.259   0.764   9.888 -0.0742 -0.0837 -0.3371
30875W        W46949  14.864   2.273   4.039 -0.1473 -0.0681 -0.1934
30876W        W46950  18.119  18.466  10.932 -0.1616 -0.0383  0.0392
30877W        W46951   0.160   2.249  13.699  0.0250 -0.1554  0.0926
30878W        W46952  17.121   3.733  10.601 -0.0146 -0.2014 -0.0190
30879W        W46953   4.884   7.851   5.022  0.0506 -0.0219  0.1006
30880W        W46954   4.272   4.820  13.868  0.1274 -0.3560 -0.2736
30881W        W46955   5.032   3.313   1.820  0.1042  0.4080 -0.1728
30882W        W46956   5.592  13.496  12.421  0.2243  0.1015 -0.0013
30883W        W46957   8.195  17.242   2.646  0.1018  0.1525  0.4602
30884W        W46958   1.433  18.587   1.178 -0.1697 -0.0835 -0.0756
30885W        W46959   9.094  16.105  13.502  0.1861  0.2659 -0.0949
30886W        W46960  16.462  11.733   4.463 -0.0218  0.2672  0.0293
30887W        W46961  19.338  11.991  13.528 -0.2692  0.1155  0.1956
30888W        W46962   2.074   7.464  12.360  0.2945 -0.4327  0.1208
30889W        W46963   8.327   0.704  10.145  0.0766 -0.1237 -0.2126
30890W        W46964   9.032  16.011   3.104 -0.1985  0.1151  0.0209
30891W        W46965   4.564  15.358   2.446 -0.1744 -0.6977  0.0345
30892W        W46966   1.273  12.993   4.974 -0.1609 -0.4891 -0.0432
30893W        W46967  12.783   6.470  10.737  0.3932  0.0317  0.3177
30894W        W46968   7.297   3.680  11.691  0.2914  0.0506 -0.0723
30895W        W46969  16.322  18.701  13.161 -0.0587  0.0688 -0.0792
30896W        W46970   8.702  17.970   0.227  0.1749 -0.0777  0.0443
30897W        W46971   0.535  15.252  15.003  0.0880  0.2033 -0.0882
30898W        W46972   1.704   6.702   0.749 -0.0641  0.0192  0.1502
30899W        W46973  13.307  11.460   0.886  0.1342 -0.1002 -0.1862
30900W        W46974   4.981   1.843   3.563 -0.2224 -0.0189  0.2100
30901W        W46975  13.723   8.053  10.792  0.0889  0.0412  0.2769
30902W        W46976  13.887   5.129   2.503  0.0969  0.0202  0.0828
30903W        W46977   0.359  10.995  11.495 -0.1789 -0.2049  0.0158
30904W        W46978   7.041  10.661  13.695  0.0842 -0.3595  0.0244
30905W        W46979   9.189  13.287   1.227  0.0792  0.4151 -0.2189
30906W        W46980   7.727   2.415  12.083 -0.3069 -0.2325  0.0401
30907W        W46981   7.061  14.005  14.262  0.3489 -0.1329 -0.0240
30908W        W46982   3.450   2.547   0.000 -0.0978  0.1488  0.1418
30909W        W46983   4.942   4.635   1.340  0.1293 -0.2856 -0.1939
30910W        W46984   6.789  19.099   3.208  0.0657 -0.2645  0.1602
30911W        W46985  17.659  14.259   2.389  0.2165  0.0032  0.1816
30912W        W46986  16.299   3.257   4.253 -0.2187 -0.0013  0.1897
30913W        W46987  14.461   1.015   9.797 -0.0669 -0.0660 -0.1879
30914W        W46988  13.134   9.615   1.718  0.1862 -0.1675  0.1020
30915W        W46989  18.937  19.102  13.057 -0.2311 -0.2208 -0.0734
30916W        W46990   4.854   9.893  14.372 -0.1407 -0.0047 -0.0452
30917W        W46991   2.350  17.841  14.722  0.0802 -0.0065  0.3217
30918W        W46992   2.454  12.760  11.165 -0.1588  0.2759 -0.1783
30919W        W46993  12.400   5.406  11.108 -0.0856 -0.0994 -0.2440
30920W        W46994  16.328  12.476  13.496 -0.4093  0.1056  0.2398
30921W        W46995  12.921   7.134   0.274 -0.2091  0.1690 -0.3841
30922W        W46996   8.981   7.848   0.656  0.2568  0.0066  0.1885
30923W        W46997  11.604  17.879   9.978  0.0131  0.2420  0.2294
30924W        W46998   7.385   3.072   3.590  0.0207  0.1085  0.0208
30925W        W46999  10.405  17.683  11.917 -0.1511 -0.2882  0.2767
30926W        W47000   6.130   1.830  14.231  0.2119 -0.1279  0.2214
30927W        W47001  10.812  11.486  10.343 -0.2773  0.4453 -0.0028
30928W        W47002  13.067  11.190   0.332  0.2965  0.0402 -0.0506
30929W        W47003   1.816   1.455   2.935 -0.2682  0.3104  0.1075
30930W        W47004   7.348  10.707   0.414 -0.3720 -0.1715 -0.0059
30931W        W47005   6.879   0.869   1.583 -0.1256  0.2214 -0.2272
30932W        W47006   3.638   7.711  12.278  0.2127 -0.1155 -0.1059
30933W        W47007  12.337   3.888  12.301  0.2128  0.0859  0.0664
30934W        W47008  12.556   7.494   2.287 -0.3016  0.1418 -0.1944
30935W        W47009  13.825   8.829  12.911  0.1203  0.0475  0.4726
30936W        W47010   0.508   1.474  10.451 -0.2036 -0.2107 -0.1737
30937W        W47011  16.807  13.103   0.259  0.1191 -0.1518  0.0242
30938W        W47012   0.792   2.153  11.740  0.0745  0.1230 -0.2744
30939W        W47013  10.004  14.581  12.323  0.1473  0.2594 -0.1947
30940W        W47014  12.959  15.562  14.439 -0.0202 -0.3015  0.1436
30941W        W47015  14.341  18.639  10.694 -0.0251 -0.0164  0.2548
30942W        W47016  13.113   8.538   3.077  0.0437 -0.1989 -0.0002
30943W        W47017   3.863  14.761  14.684  0.0921  0.1255  0.0314
30944W        W47018   4.603  11.795   4.173 -0.1945 -0.0535 -0.1919
30945W        W47019  16.906  18.745   4.776 -0.0491 -0.1279 -0.1404
30946W        W47020   4.575   8.703  12.494 -0.2595 -0.2336 -0.2502
30947W        W47021  10.736   7.952  14.405 -0.1145  0.1065  0.1184
30948W        W47022  17.613   2.197   1.287  0.1574  0.1817  0.0821
30949W        W47023  17.927   3.501   0.599 -0.1704 -0.0418 -0.5110
30950W        W47024   2.067   2.096  13.281 -0.3926 -0.1583  0.3208
30951W        W47025   6.826   8.272   4.582 -0.1241 -0.1902  0.3549
30952W        W47026   8.852   4.634   2.769 -0.2713 -0.1008 -0.1478
30953W        W47027   2.690  17.057  11.624  0.0919 -0.3694  0.0689
30954W        W47028   8.140   5.461  11.001  0.1278 -0.0442  0.1733
30955W        W47029   7.085   0.734   3.756 -0.0710 -0.3393 -0.2505
30956W        W47030  14.611  11.585   0.253 -0.2893 -0.1625  0.4813
30957W        W47031  17.606  18.473  13.358 -0.1822 -0.0296  0.0899
30958W        W47032   2.793  16.345  13.159  0.1636  0.3125  0.3720
30959W        W47033  14.638  11.459  11.726 -0.2067 -0.0231  0.4155
30960W        W47034  15.588   2.718   3.263 -0.1075 -0.2621 -0.1979
30961W        W47035  19.020   2.243   4.350 -0.0621  0.1462 -0.1670
30962W        W47036  15.447   0.680  13.214  0.4348 -0.0054 -0.0824
30963W        W47037  10.486  17.806   1.178 -0.0812  0.0921  0.1029
30964W        W47038   3.758   0.440  11.082 -0.2913  0.0714  0.1115
30965W        W47039  11.837  11.876  13.811  0.0141  0.1718 -0.0236
30966W        W47040   6.929  11.818  14.453 -0.2076 -0.1078 -0.1274
30967W        W47041  10.614  15.407   2.355  0.4245  0.3474  0.0153
30968W        W47042   4.260  12.170   1.130 -0.1096  0.1369 -0.1741
30969W        W47043  11.128  10.546   1.698 -0.0299  0.0864  0.1431
30970W        W47044  16.609  12.030  12.193 -0.2613  0.2504 -0.0178
30971W        W47045  15.382   6.665  10.899 -0.2365 -0.0472  0.4240
30972W        W47046  18.101  13.120  14.203  0.1639 -0.0175  0.4319
30973W        W47047   7.160  13.703   2.542 -0.1758 -0.0070 -0.2740
30974W        W47048  18.308   7.054  11.901 -0.2748 -0.1074 -0.0984
30975W        W47049  14.521   4.090   2.668 -0.0665  0.3081  0.1678
30976W        W47050   0.980  18.777  13.898 -0.0532 -0.2939  0.0611
30977W        W47051   6.959   9.378   2.818  0.1579 -0.0029 -0.0403
30978W        W47052  17.802   9.145  12.201  0.1561  0.0305 -0.2115
30979W        W47053   6.549   0.462  11.426 -0.0367 -0.2282 -0.1264
30980W        W47054   6.362   2.450   2.959 -0.1242 -0.2238  0.3167
30981W        W47055  15.493   4.138  13.745  0.2969 -0.3939 -0.2411
30982W        W47056   4.145  11.708  14.363 -0.0759 -0.0414 -0.1534
30983W        W47057  10.955   4.131  12.225 -0.1724  0.0934 -0.1213
30984W        W47058   8.834   6.953  14.261  0.3112  0.0337  0.1715
30985W        W47059  11.091   9.801   3.130 -0.1767 -0.2103  0.0111
30986W        W47060   4.688   9.836   4.375 -0.0406 -0.0793  0.1316
30987W        W47061   7.163  10.309  10.257 -0.1964 -0.1492  0.1528
30988W        W47062   7.787   3.494   0.030 -0.3651  0.0855 -0.2176
30989W        W47063  14.598  15.631   0.164  0.0211 -0.0169  0.1316
30990W        W47064   1.945  14.601  13.284 -0.0886 -0.0451 -0.0334
30991W        W47065  10.555   4.598  13.676  0.3347  0.2616 -0.1580
30992W        W47066  12.299   0.048  11.506 -0.1291  0.3454  0.0549
30993W        W47067  14.195   7.325  13.094 -0.0234  0.2561  0.0825
30994W        W47068   1.097  13.996   1.404  0.0095 -0.0136 -0.0387
30995W        W47069  18.115   8.978   1.962 -0.1173  0.2647  0.2253
30996W        W47070  18.186   9.157   2.946  0.1603  0.1457  0.2073
30997W        W47071   4.472  11.550  12.358 -0.0518 -0.2845 -0.1296
30998W        W47072  14.521  16.968  13.510  0.0389  0.0531  0.1411
30999W        W47073  18.430  11.938  12.027 -0.4244  0.2897  0.0129
31000W        W47074   6.164  11.696  13.976  0.1201 -0.3067 -0.2596
31001W        W47075  15.635   7.295   6.415  0.1374 -0.1700  0.0849
31002W        W47076  15.754   4.519  10.608 -0.0370  0.1053 -0.3128
31003W        W47077   9.346  11.546   4.553  0.3911 -0.0140 -0.1692
31004W        W47078  11.894   6.072   1.416  0.1843  0.0525 -0.0724
31005W        W47079   1.127  14.024   5.566 -0.0976  0.2277  0.2490
31006W        W47080   1.374   0.891  14.656 -0.0174 -0.2089  0.3251
31007W        W47081   1.200   4.662  12.671 -0.1082 -0.0167  0.0488
31008W        W47082  15.191  19.104   2.364 -0.0091  0.2058  0.1550
31009W        W47083  13.825  10.552   3.912  0.1798  0.2064  0.0307
31010W        W47084   0.811  17.168  14.950 -0.0264  0.1387 -0.0578
31011W        W47085   3.481   1.307  10.146 -0.1801 -0.2800  0.1806
31012W        W47086   0.667  13.216   2.131  0.0154 -0.1492  0.3988
31013W        W47087  15.704   3.758   1.363  0.0218  0.0647  0.0583
31014W        W47088   5.104  17.211  11.486 -0.2421 -0.0224  0.1307
31015W        W47089   4.633  19.131   2.913 -0.2766  0.0488  0.0832
31016W        W47090   1.323   2.421  14.493  0.0153 -0.1082  0.4931
31017W        W47091   5.952   6.710   0.818 -0.0579  0.1977 -0.1333
31018W        W47092  14.377  19.239   0.028  0.0542 -0.3411 -0.2009
31019W        W47093   1.906   0.954  10.335 -0.2124  0.1293  0.0081
31020W        W47094  13.639  14.253   0.817  0.1550  0.0169 -0.1636
31021W        W47095   1.946   4.072   3.042 -0.1209  0.0961  0.1213
31022W        W47096   5.797   0.856   2.921 -0.0785  0.0234  0.0238
31023W        W47097  14.315  12.259  12.123  0.1689 -0.2049  0.3024
31024W        W47098  12.367   6.180  14.904  0.0724  0.1390 -0.1322
31025W        W47099  16.707   9.585  11.845 -0.0546  0.1225  0.0951
31026W        W47100   4.982   3.650  13.583 -0.3312  0.1416 -0.1751
31027W        W47101  14.325  18.467  10.214 -0.1103  0.1445 -0.3606
31028W        W47102  12.785   7.346  14.682  0.1044 -0.2010 -0.0085
31029W        W47103  12.209   3.706  10.331 -0.1539 -0.0622  0.2120
31030W        W47104   8.449  10.446  12.571 -0.1803 -0.0952  0.1815
31031W        W47105   7.642   2.651  10.099 -0.1260 -0.0527 -0.2022
31032W        W47106  16.437  11.740   3.850 -0.4348 -0.1117  0.0530
31033W        W47107  11.977   0.291  14.544 -0.0803 -0.3508 -0.1044
31034W        W47108   0.004   8.472  13.943  0.0031  0.0241  0.0641
31035W        W47109  17.697  18.716   3.958 -0.1106 -0.0439 -0.0939
31036W        W47110  13.531  12.060   3.901  0.0714 -0.0251 -0.0604
31037W        W47111   8.474   5.905   1.713  0.0910  0.2345  0.1278
31038W        W47112   3.296  17.313  14.807 -0.1703 -0.0740  0.0846
31039W        W47113   6.689  11.976   3.056  0.3154  0.3385 -0.0303
31040W        W47114  16.723  15.858  14.665 -0.2670  0.0961  0.0544
31041W        W47115  17.539  17.287   1.182 -0.0097 -0.4014 -0.0454
31042W        W47116   9.870  10.945  14.764  0.2323 -0.1453 -0.0896
31043W        W47117  11.672   6.317  14.519  0.3256 -0.3441 -0.1945
31044W        W47118   9.300  18.738  11.295  0.2673  0.2708  0.4518
31045W        W47119   1.936  17.553   2.212 -0.0542  0.0882 -0.0054
31046W        W47120  16.235   8.972   4.960  0.1151 -0.0795  0.2050
31047W        W47121  16.181   7.090   9.942 -0.1209  0.0148 -0.2815
31048W        W47122   2.025  14.654   4.897 -0.1323 -0.1881  0.0278
31049W        W47123  17.889   9.258  11.170 -0.1907  0.0795 -0.0094
31050W        W47124   5.526  10.572   0.182 -0.3237  0.5515  0.3531
31051W        W47125  12.623   0.301   2.714  0.0662  0.0581 -0.0840
31052W        W47126   7.289   8.592   4.498 -0.4235 -0.0189 -0.2139
31053W        W47127  13.687  13.750  14.146  0.0304  0.3664  0.1840
31054W        W47128   6.459   3.300   2.643  0.3417 -0.1533 -0.3338
31055W        W47129   5.253   3.727   3.249 -0.4068  0.2132  0.0637
31056W        W47130   6.070  11.044   3.224 -0.0675  0.1440  0.0381
31057W        W47131   7.282  15.414  13.656 -0.0223 -0.0637 -0.2737
31058W        W47132  15.571  12.566   1.997  0.0671  0.2190 -0.0680
31059W        W47133  19.009  15.657  10.598 -0.1360 -0.0102  0.3163
31060W        W47134   0.722  18.173  12.878  0.0029  0.0541 -0.0157
31061W        W47135  13.798  16.348  11.245 -0.0577 -0.0604 -0.2156
31062W        W47136   0.753  12.313   0.093  0.1434 -0.0314 -0.0028
31063W        W47137  12.225  14.703  12.535 -0.2833  0.1200 -0.1285
31064W        W47138  14.009  19.082  12.667  0.0876  0.0792 -0.0433
31065W        W47139  10.452   3.153   1.066  0.1113 -0.2857  0.0956
31066W        W47140  15.138   0.648   1.598 -0.1109  0.3217 -0.0253
31067W        W47141   0.221  13.975   3.896 -0.0939  0.0170  0.1436
31068W        W47142   1.742  10.566   5.381 -0.2889 -0.2035  0.0953
31069W        W47143  13.035   8.466   0.456 -0.2091 -0.4097 -0.3616
31070W        W47144   9.572   5.045   5.061  0.1637  0.2302 -0.0523
31071W        W47145  12.283  10.563   1.608 -0.0644 -0.3634 -0.1103
31072W        W47146   0.763  13.888   4.720 -0.2933 -0.2422  0.0833
31073W        W47147  17.768  13.126  10.792 -0.0512 -0.0718  0.2682
31074W        W47148  12.679  19.294   3.070  0.2810  0.0760 -0.4111
31075W        W47149  15.159  15.228  14.694  0.2669 -0.5210  0.2365
31076W        W47150   9.847   8.792   3.382  0.7185  0.0890 -0.0140
31077W        W47151  17.061   4.403   4.643  0.0285  0.1386 -0.1639
31078W        W47152  15.840   9.670   3.587  0.2417 -0.1964  0.2271
31079W        W47153   2.516   1.264   1.324 -0.0931 -0.0371  0.2082
31080W        W47154   2.596   6.882  10.973  0.3405 -0.0741  0.1554
31081W        W47155   6.268   1.407   2.228 -0.1596 -0.1001 -0.1144
31082W        W47156   5.995  17.175   2.725 -0.3208 -0.0748  0.0391
31083W        W47157  13.593  14.386  12.226  0.0402 -0.0474 -0.2355
31084W        W47158  14.134   6.857  12.742 -0.0704  0.2286 -0.2593
31085W        W47159   9.138   8.729  11.969  0.2175  0.2599  0.0808
31086W        W47160  11.494   7.316  13.214  0.0623  0.3050 -0.2625
31087W        W47161   1.970  14.207   0.321  0.0848 -0.0863 -0.3947
31088W        W47162   1.870  12.981   3.700 -0.3244  0.0614  0.2758
31089W        W47163  13.308   7.597   1.150 -0.0680  0.0218  0.0044
31090W        W47164   0.171  12.395  14.400 -0.4868 -0.0773  0.2617
31091W        W47165   1.842   2.710  12.373  0.2721 -0.0044  0.1514
31092W        W47166  14.734  10.103  13.650 -0.2402 -0.0862  0.2643
31093W        W47167   2.388   7.879   3.213 -0.3481  0.1567 -0.0044
31094W        W47168   2.413  13.065   3.393 -0.0474 -0.0795 -0.4771
31095W        W47169  12.641   0.441  13.688 -0.1877 -0.0257 -0.3614
31096W        W47170   0.338   5.372  14.799  0.1711  0.2796 -0.0281
31097W        W47171   1.680  12.648  10.715 -0.4020 -0.2646 -0.0722
31098W        W47172   9.107   0.496  11.248 -0.0648  0.0080  0.3392
31099W        W47173   0.650  18.381   2.765 -0.3096  0.0755 -0.1978
31100W        W47174   4.364  10.137  10.834  0.1075 -0.1978 -0.0214
31101W        W47175  11.471   3.443  14.848 -0.1943  0.1598  0.0109
31102W        W47176  11.557  14.390   4.369  0.5656 -0.1281  0.0817
31103W        W47177   1.119  18.235  13.718 -0.1866  0.1288  0.0866
31104W        W47178   0.079  10.308   3.570 -0.1088 -0.0769  0.1172
31105W        W47179  19.191   2.646   0.238  0.1634 -0.1902 -0.3762
31106W        W47180   5.354  15.466  14.747  0.1374  0.1611 -0.2797
31107W        W47181   3.866   5.263   0.838 -0.1362 -0.1527 -0.2016
31108W        W47182  18.424  10.688   1.140 -0.2175 -0.1672  0.0875
31109W        W47183  18.878   5.225   1.758 -0.1315 -0.2297 -0.1435
31110W        W47184   1.219   8.666  14.166  0.5360  0.0604 -0.3470
31111W        W47185  16.058   0.642   1.943 -0.0479 -0.0237 -0.1232
31112W        W47186  16.826   7.706  14.671 -0.0855 -0.0630  0.1616
31113W        W47187   0.431   4.978   2.877  0.2301  0.0216 -0.0682
31114W        W47188   9.991  17.623   2.458 -0.4082  0.0035 -0.0642
31115W        W47189   7.275   6.056  13.904 -0.1648  0.0086  0.2277
31116W        W47190   2.140  16.005  12.801 -0.0215  0.2333  0.2409
31117W        W47191  16.588   8.084   0.956  0.1892 -0.0107  0.3041
31118W        W47192   1.433   5.781   1.635  0.1614 -0.0882  0.1351
31119W        W47193   8.309  17.496  10.366  0.0491 -0.3192 -0.0358
31120W        W47194  16.503   5.872  12.478  0.0096 -0.0882 -0.3402
31121W        W47195  18.328  17.213   3.740  0.0296 -0.1494  0.4684
31122W        W47196  18.597  18.931   1.914 -0.0266 -0.0082  0.2112
31123W        W47197   2.518   6.354   0.947 -0.0909 -0.3833  0.0585
31124W        W47198   4.581  17.580  11.924  0.2031 -0.0194  0.3176
31125W        W47199   5.700   2.862   4.459  0.3259  0.1586  0.3893
31126W        W47200  11.190   3.336   4.374  0.0088  0.1806 -0.1362
31127W        W47201   5.895   3.392  10.151 -0.0119  0.0908  0.0545
31128W        W47202  16.771  18.884  11.803  0.1822 -0.1145 -0.7646
31129W        W47203   5.287   6.572   4.634  0.0499  0.0741 -0.1542
31130W        W47204   6.938  12.539  11.992  0.2927 -0.1175 -0.0331
31131W        W47205   0.095  10.742  14.561 -0.3632  0.0784 -0.0877
31132W        W47206  14.091   9.569   2.222 -0.1097  0.0787 -0.1550
31133W        W47207  10.603   7.474   4.458  0.0155  0.1664 -0.3337
31134W        W47208   7.276  18.084  10.757 -0.1270  0.0575 -0.2867
31135W        W47209   4.177  15.951   4.507  0.1907 -0.3099  0.1529
31136W        W47210   2.055  15.111  14.924 -0.0823  0.1208  0.2855
31137W        W47211   1.024  18.994  14.421 -0.0689 -0.1187  0.0185
31138W        W47212  16.086   5.116   4.655  0.0072  0.2436  0.2836
31139W        W47213  15.777  19.104  14.239  0.0677 -0.5445 -0.0307
31140W        W47214   9.770  15.857   9.722 -0.0316  0.1761  0.1053
31141W        W47215   1.398   5.535  12.764  0.0204  0.1207  0.0291
31142W        W47216  16.366   1.194   2.389  0.2374  0.1108 -0.0843
31143W        W47217   1.239  16.919  13.802  0.1168 -0.1504  0.3019
31144W        W47218  11.290   4.239   0.280 -0.1351  0.1374 -0.0661
31145W        W47219  13.267   2.295   3.199  0.2701  0.1360  0.0286
31146W        W47220   1.647  15.408   3.277  0.0318  0.1028  0.0192
31147W        W47221   8.441  17.568   0.074  0.0688  0.0970 -0.1119
31148W        W47222  11.723   3.747  13.464  0.1276 -0.1005 -0.1443
31149W        W47223   2.165  10.534  11.245 -0.0005  0.0382 -0.1406
31150W        W47224  12.168  11.052   1.679 -0.3950 -0.1358  0.1173
31151W        W47225  11.105   6.275   1.123  0.0023 -0.2410  0.1704
31152W        W47226  18.794   4.272   2.107 -0.0971  0.1429  0.1760
31153W        W47227  18.618   5.927  13.712 -0.0020  0.0209 -0.1252
31154W        W47228   0.334   5.249   0.993 -0.0862 -0.0362  0.4636
31155W        W47229   1.438  12.891  13.375  0.0473 -0.0249  0.1096
31156W        W47230  13.600  17.704   2.404 -0.1239 -0.0280 -0.2494
31157W        W47231   2.876   9.897  10.956 -0.3736  0.2195 -0.0047
31158W        W47232  11.944  10.796  13.327 -0.1200 -0.0602 -0.0647
31159W        W47233  15.248  10.667   1.059 -0.0015 -0.2587  0.2995
31160W        W47234  14.555  11.035  13.425 -0.1503  0.0407  0.2592
31161W        W47235   6.735   4.510   1.194  0.1234  0.1965 -0.2998
31162W        W47236   6.540  11.149  11.963  0.0724  0.0947  0.0179
31163W        W47237   1.755  18.672  13.092  0.2587  0.0772  0.0507
31164W        W47238  12.916   3.661  11.800 -0.1365 -0.1723  0.0230
31165W        W47239   9.774  16.746   9.787 -0.1018 -0.2548 -0.1544
31166W        W47240   8.710   2.068  10.863 -0.1162  0.0110  0.2502
31167W        W47241   4.138   6.474   5.347  0.0217 -0.0933  0.1077
31168W        W47242  14.140  17.067   0.818  0.0589  0.0259 -0.1972
31169W        W47243  10.574   8.908  10.711  0.0220 -0.2762 -0.0153
31170W        W47244   2.879  12.298  13.138  0.0385 -0.0832 -0.1037
31171W        W47245   2.222   8.679   4.736  0.2198 -0.2793  0.1403
31172W        W47246  18.440  15.136   4.691  0.0066  0.5251 -0.1638
31173W        W47247  15.845   7.943  13.583 -0.2230  0.0869 -0.1395
31174W        W47248  13.649  10.534   3.478 -0.0981  0.0352 -0.1300
31175W        W47249   8.008   0.837   0.633 -0.4523 -0.0158  0.2888
31176W        W47250  14.145  16.000  11.758 -0.3572  0.4233 -0.0475
31177W        W47251  12.634   1.085   2.788 -0.0899  0.3047  0.0298
31178W        W47252   8.176   5.300   1.987 -0.0308  0.0122 -0.5367
31179W        W47253   1.234   9.078   0.186 -0.1252 -0.0072  0.3409
31180W        W47254   2.206   5.473   0.102 -0.1947 -0.1211  0.1121
31181W        W47255  15.953   6.314  14.049 -0.1634 -0.0915  0.1096
31182W        W47256  13.039  15.566   2.694 -0.2940  0.1622 -0.0632
31183W        W47257  14.066   8.163   4.133  0.1891  0.0628  0.0989
31184W        W47258   8.540   6.994  14.747 -0.0144  0.0212 -0.0613
31185W        W47259   4.960   3.245  10.216  0.2359 -0.0169  0.2290
31186W        W47260   1.954   7.673  11.858  0.0522 -0.2109 -0.0919
31187W        W47261  12.972   9.267  11.151 -0.0725 -0.1712  0.0715
31188W        W47262  10.598  11.536   4.840 -0.1181  0.2965  0.2919
31189W        W47263   2.458   3.573  14.394  0.1438  0.0570 -0.0484
31190W        W47264   6.062   6.748   3.360  0.0796 -0.0829 -0.2094
31191W        W47265   1.434  17.163  11.330  0.1529  0.1647 -0.0067
31192W        W47266   0.632  15.449  14.427 -0.0593 -0.1607  0.0057
31193W        W47267  11.805  15.929  11.368 -0.0133 -0.1327  0.0210
31194W        W47268   5.114  18.207  11.339  0.1171  0.1246 -0.2277
31195W        W47269   7.638  16.299   0.438 -0.0729 -0.0401  0.1829
31196W        W47270   6.202   2.029  13.076  0.3244  0.0315  0.0939
31197W        W47271   4.712  10.665   0.702 -0.0174  0.0157  0.0987
31198W        W47272   1.477   6.127  11.746  0.2599 -0.3976 -0.2148
31199W        W47273  17.165  18.745  14.211  0.1526  0.0870 -0.0043
31200W        W47274   2.305  17.021  11.112  0.1047  0.1658 -0.3924
31201W        W47275  14.780   3.641   2.508  0.1332  0.2520  0.0104
31202W        W47276  10.311  17.078  10.326  0.2570 -0.1971 -0.1814
31203W        W47277   2.619  15.464   4.494 -0.0715  0.0638  0.0100
31204W        W47278  10.458  16.842   2.067  0.1275 -0.1591  0.0459
31205W        W47279   5.187   7.002   1.563 -0.0055  0.3255  0.0793
31206W        W47280   3.768  15.026   1.364  0.1524 -0.1332 -0.0454
31207W        W47281   1.597   8.061   0.908  0.1927 -0.2892 -0.2645
31208W        W47282   4.137  16.771   1.447  0.0508 -0.3049 -0.0025
31209W        W47283  17.221  14.056   1.052  0.1141  0.0239 -0.2690
31210W        W47284   4.959  18.172   3.195  0.2344  0.1232 -0.3736
31211W        W47285   8.228   3.218  10.494 -0.2484 -0.0253  0.4144
31212W        W47286  17.439  11.180  13.189  0.1349 -0.0234  0.3615
31213W        W47287  16.489  15.045  11.389  0.2247 -0.2402 -0.2290
31214W        W47288   6.345  11.740  10.982 -0.1379  0.2568 -0.0577
31215W        W47289   5.129  16.631  10.303 -0.4715  0.2280 -0.2119
31216W        W47290  14.478  12.577   3.829 -0.3917  0.2445  0.2288
31217W        W47291  18.701  13.200  11.654  0.2107  0.1574 -0.2546
31218W        W47292   9.373  13.842   0.027 -0.0983 -0.2029 -0.2186
31219W        W47293  17.183  19.285  13.345 -0.0356  0.0629 -0.2718
31220W        W47294  10.801  10.875  13.900  0.1732 -0.0693  0.1104
31221W        W47295   4.134   5.557   4.957 -0.1005  0.0534 -0.1378
31222W        W47296   1.214   7.785   4.852 -0.1364 -0.0600  0.0018
31223W        W47297   2.328   7.930  13.850 -0.0232  0.0669  0.1248
31224W        W47298  17.693   1.505   3.303  0.0559  0.0201  0.1498
31225W        W47299  16.242  16.938  13.981 -0.1390 -0.1500 -0.1985
31226W        W47300  18.487  15.792  10.692 -0.0999  0.1044  0.0098
31227W        W47301  14.064   6.231   3.423 -0.0723 -0.2679 -0.1444
31228W        W47302   6.560  13.463   2.817  0.1370 -0.1623  0.1401
31229W        W47303  11.968  10.590  12.338 -0.0542 -0.0000  0.0250
31230W        W47304  18.824  19.023   2.936  0.0694 -0.1764  0.0410
31231W        W47305   3.915   8.238   2.112 -0.0067  0.4310 -0.0807
31232W        W47306   6.108   4.864   0.766 -0.0522 -0.0435 -0.2863
31233W        W47307   7.115  17.012  10.593  0.3431  0.0525  0.2257
31234W        W47308  12.399  10.057   1.589  0.0386 -0.1755  0.0578
31235W        W47309  13.064   0.325   2.397 -0.1580  0.0977  0.1518
31236W        W47310  15.073  17.118   2.350  0.2856  0.3951 -0.1457
31237W        W47311   8.380  10.033  13.784 -0.0387  0.2188  0.0092
31238W        W47312  15.695   4.373  12.854 -0.0447  0.0998  0.0367
31239W        W47313  12.795  15.723  10.590  0.0120  0.2922 -0.1555
31240W        W47314   6.571  14.674   0.166 -0.0355  0.1610 -0.2788
31241W        W47315  10.123   6.124   3.481 -0.0748 -0.0456  0.0806
31242W        W47316  16.491  15.457  11.051 -0.1311  0.2992 -0.1985
31243W        W47317  14.359  11.361   5.310 -0.4092  0.0837 -0.2135
31244W        W47318  19.163   8.355   5.735  0.0388 -0.1452  0.0331
31245W        W47319  16.361   5.779   4.521  0.1323  0.2964  0.0413
31246W        W47320   0.578  12.201   2.980  0.2015 -0.0048  0.1357
31247W        W47321   2.191   0.227   9.891  0.1129  0.0267 -0.0126
31248W        W47322   0.632  16.215   2.633  0.3516 -0.0164 -0.0580
31249W        W47323   0.563   6.199  14.655 -0.0700  0.2121  0.3022
31250W        W47324  13.159  13.924   1.772  0.0333  0.1421  0.1002
31251W        W47325  11.529   0.608  11.819  0.0813  0.1155  0.3606
31252W        W47326  11.602  17.636   9.528  0.2534  0.0107 -0.0239
31253W        W47327  17.942  14.148  12.531 -0.0001  0.0788  0.3214
31254W        W47328   9.922  18.358  14.835 -0.1051  0.0113  0.0986
31255W        W47329  11.802   9.934  13.482  0.0889 -0.1244 -0.0020
31256W        W47330  19.326  12.289   1.146 -0.1746  0.0201 -0.1053
31257W        W47331   3.478   9.614  13.783  0.1904  0.1228  0.5233
31258W        W47332  14.320  14.983  14.308 -0.2617 -0.3201 -0.1378
31259W        W47333   7.979  17.034   0.860 -0.0405  0.0222  0.2614
31260W        W47334   2.301   3.455   1.949 -0.2770  0.2237 -0.2320
31261W        W47335  13.087   5.499   0.463  0.0141  0.1965  0.0932
31262W        W47336  18.038  16.051  12.879 -0.1005 -0.0854  0.1272
31263W        W47337   1.281  10.406  11.791 -0.0760 -0.0615  0.1096
31264W        W47338  18.816  11.399   0.989 -0.0591  0.3910  0.2822
31265W        W47339  11.301  14.362  13.920 -0.1129  0.1210 -0.1946
31266W        W47340   6.214  13.353   2.320  0.0107  0.1343  0.2375
31267W        W47341  11.398  17.362   4.632  0.0156 -0.0125  0.1967
31268W        W47342  10.686  11.467   4.364 -0.2913 -0.0804  0.1896
31269W        W47343  12.475  10.172  14.980  0.2062 -0.0252 -0.0931
31270W        W47344  14.307  13.815  11.274  0.0992  0.1340 -0.3277
31271W        W47345  12.417   5.356   9.307 -0.2928  0.0710  0.0308
31272W        W47346  13.976  12.176   3.274 -0.0223 -0.0108 -0.1397
31273W        W47347   8.317   1.454  11.255 -0.3517 -0.0391 -0.3162
31274W        W47348  10.898   2.623   2.006  0.1177 -0.2162 -0.0519
31275W        W47349  15.914  16.183  14.163 -0.2132 -0.2752  0.1629
31276W        W47350   9.229   3.049  14.613 -0.0627 -0.1252  0.2095
31277W        W47351   8.560  10.328   4.586 -0.1157 -0.2812  0.0360
31278W        W47352   2.329   0.868  11.064 -0.1709  0.2454 -0.2060
31279W        W47353   4.400  14.220  11.605 -0.0286  0.1540  0.0133
31280W        W47354  14.005   5.976  13.594  0.0807  0.2144  0.0418
31281W        W47355  18.773  13.446  14.615 -0.0542  0.0908  0.0683
31282W        W47356  18.406   2.325  10.447 -0.2256 -0.2841  0.0453
31283W        W47357  13.012  14.079  10.607  0.3788 -0.4327 -0.0251
31284W        W47358  17.356   3.470   3.457 -0.3108 -0.1371 -0.0379
31285W        W47359   7.535   5.260   4.600  0.0413  0.1320  0.1063
31286W        W47360   5.441   5.304  11.348  0.0813  0.1205  0.3780
31287W        W47361  13.867  11.048   5.290  0.0301  0.1522 -0.1820
31288W        W47362   6.801   4.205  13.225 -0.2345  0.1565 -0.1342
31289W        W47363  18.433  10.635  12.663  0.1373  0.1209  0.0784
31290W        W47364   0.080   3.245  15.001  0.1691  0.2293 -0.1934
31291W        W47365   1.569   3.487   4.474  0.3961  0.0081  0.1274
31292W        W47366  11.177  14.328  12.211  0.0423 -0.0419  0.3209
31293W        W47367   1.419  18.977  14.058 -0.1529 -0.0338  0.2779
31294W        W47368   0.793   9.131   4.481 -0.1482 -0.1561  0.1353
31295W        W47369   3.345   4.437  10.465 -0.0662 -0.4721  0.1738
31296W        W47370  14.088   1.866   3.153  0.2130  0.0010 -0.1891
31297W        W47371  13.750  19.055   3.874  0.1598  0.4444 -0.1495
31298W        W47372  13.240   6.536  12.776 -0.2195 -0.0228  0.0428
31299W        W47373   5.964   2.117  12.290  0.2426 -0.0224  0.3316
31300W        W47374  13.398   0.601  15.000 -0.1559 -0.1794  0.0608
31301W        W47375  16.415  15.268   5.295  0.0588 -0.1587 -0.1806
31302W        W47376   9.358   0.714   3.100 -0.1032  0.3384  0.1965
31303W        W47377  10.041   9.693   9.922  0.3573 -0.1590  0.1174
31304W        W47378  11.510   8.042  11.624 -0.2215 -0.1290 -0.2045
31305W        W47379   2.845  15.546  14.954  0.0254  0.0650  0.2261
31306W        W47380   9.602   2.418  12.215  0.1569  0.0553  0.1225
31307W        W47381  17.688   2.570   1.660 -0.2859 -0.0423  0.1209
31308W        W47382   3.556  14.387  13.281  0.0399 -0.0571  0.2617
31309W        W47383  13.459  11.790   3.448 -0.0448 -0.0257  0.2976
31310W        W47384   8.207  10.163   1.066 -0.2211 -0.2492 -0.2508
31311W        W47385   2.850   3.950   2.982 -0.0195  0.1898  0.0817
31312W        W47386  14.358   6.301   6.021 -0.4288 -0.0645  0.0714
31313W        W47387  12.082   9.015   9.131 -0.0838 -0.1815  0.0714
31314W        W47388  14.884  16.270   1.626  0.0408  0.1987  0.0599
31315W        W47389   3.926  13.072   3.682 -0.1274  0.2442  0.3689
31316W        W47390  16.328  10.228  10.618  0.2055 -0.0879 -0.1491
31317W        W47391   9.673  11.901   0.944  0.1409  0.0763  0.0251
31318W        W47392  11.606  18.610  11.085  0.3536  0.1609  0.3450
31319W        W47393  13.135   2.701   2.846  0.1824  0.1837 -0.0600
31320W        W47394  14.332   6.665  14.861  0.0147  0.1057  0.2917
31321W        W47395   1.563  11.222   1.564  0.2299 -0.4790 -0.1892
31322W        W47396  17.576   6.926   5.392  0.0252  0.2503  0.2708
31323W        W47397   2.885   5.927  13.590  0.0374  0.1092 -0.0095
31324W        W47398   6.824  12.807  11.433 -0.2023 -0.0471  0.0998
31325W        W47399  19.012  12.504   0.151  0.0499 -0.1480  0.3425
31326W        W47400  14.859  15.774   4.967  0.0185  0.0752  0.0814
31327W        W47401   2.606  14.275  14.303 -0.1377 -0.0986 -0.2996
31328W        W47402   2.015  19.282   4.628 -0.0429  0.2328  0.1269
31329W        W47403   7.568  17.917  13.819  0.0315  0.2210  0.0947
31330W        W47404   1.106   2.087  10.900 -0.0556  0.2204 -0.1787
31331W        W47405  10.744   9.585   5.457 -0.0636 -0.1113  0.0931
31332W        W47406   8.983  10.607  13.399 -0.0025  0.2715 -0.0695
31333W        W47407  14.799  15.307   2.505  0.2371 -0.1462  0.1589
31334W        W47408   7.234   7.000  11.409  0.6198 -0.1351  0.0500
31335W        W47409   1.509  15.930  13.662 -0.0902  0.2071 -0.0183
31336W        W47410   3.470   3.235  13.288  0.0004 -0.1553 -0.1272
31337W        W47411   2.113   5.732   4.235 -0.0563  0.0458  0.3338
31338W        W47412  12.314   3.092   3.306  0.0302  0.0841  0.0043
31339W        W47413   6.617   4.860   1.633 -0.2662 -0.0695 -0.1934
31340W        W47414  16.370   9.266  11.944 -0.0975 -0.0049  0.1419
31341W        W47415   8.052   8.531   1.478  0.1104  0.0665  0.0503
31342W        W47416  12.381  12.592   9.923  0.0028  0.3567  0.2406
31343W        W47417   8.085  13.460   2.415 -0.0397  0.0964  0.4624
31344W        W47418  16.130  17.793  10.844  0.0927  0.2006  0.0704
31345W        W47419  19.059  17.278  13.616 -0.0493  0.0291 -0.1687
31346W        W47420   1.422   5.827  14.186  0.2764 -0.2555  0.4072
31347W        W47421   1.142  16.259   1.730 -0.0875 -0.4334 -0.1698
31348W        W47422   3.816  12.577   5.118 -0.0884  0.2900  0.0349
31349W        W47423  13.710  10.349   9.675 -0.0329 -0.0704 -0.1867
31350W        W47424  15.796   9.851   4.527  0.4063 -0.0414  0.1707
31351W        W47425   8.297  19.155   0.931  0.0261 -0.1140 -0.1923
31352W        W47426   7.222   5.707  13.516 -0.1801 -0.1736 -0.0048
31353W        W47427  12.186   1.609  13.138  0.1080  0.1085 -0.0974
31354W        W47428  10.074   7.107   2.330 -0.0513 -0.1299  0.1146
31355W        W47429   7.454   9.129  11.602  0.0687 -0.3009 -0.0676
31356W        W47430   1.103   8.408   4.622  0.3178 -0.0478  0.1177
31357W        W47431  10.496   4.840   2.827  0.1009  0.0568  0.1036
31358W        W47432   8.681   5.964  13.318 -0.0383  0.4976  0.1739
31359W        W47433   2.273   9.972   2.275  0.4176 -0.5101 -0.6635
31360W        W47434   3.046  19.273  10.506 -0.1709 -0.0781  0.1096
31361W        W47435  14.849  12.273  10.655 -0.2104 -0.1872  0.2409
31362W        W47436   9.856  14.061   0.230  0.0888 -0.2728  0.0500
31363W        W47437  17.824   8.070   0.995 -0.0240 -0.1540 -0.2037
31364W        W47438  11.195  15.126  11.725  0.0367 -0.2297  0.0581
31365W        W47439   0.816   0.046   3.947  0.1902 -0.0414  0.2600
31366W        W47440  14.570  13.828   2.376 -0.1179 -0.0133  0.0723
31367W        W47441  15.229   3.877  12.017  0.0453 -0.0335  0.1396
31368W        W47442  12.189   0.735  13.879  0.0307 -0.3848 -0.0311
31369W        W47443   7.408   8.698   4.038 -0.1225 -0.0168 -0.2659
31370W        W47444   2.750  11.024   3.549  0.1092  0.0761  0.0333
31371W        W47445   8.787   2.119   9.083 -0.1832 -0.3046 -0.1210
31372W        W47446  16.856   4.119   1.910  0.1978 -0.2285  0.0222
31373W        W47447  12.008  17.296  11.263  0.2409  0.6004  0.0890
31374W        W47448   0.263   7.983  14.062 -0.1182 -0.1551  0.0772
31375W        W47449   0.997   2.319   4.218  0.0772 -0.3088  0.0315
31376W        W47450   6.519  12.225  12.124 -0.0643  0.1409 -0.2615
31377W        W47451   5.448  14.769   2.215 -0.0886  0.1125  0.0505
31378W        W47452  10.036   1.172   0.122 -0.0377  0.2224  0.2149
31379W        W47453  10.102   7.356  14.070  0.1562  0.0117  0.1768
31380W        W47454  10.191  15.075  12.377 -0.1247  0.2108 -0.0518
31381W        W47455   6.667   0.875   4.352  0.1003  0.0822  0.0941
31382W        W47456  11.382   1.149  10.620 -0.0166 -0.0429 -0.0605
31383W        W47457  14.622   2.473  12.098 -0.1515 -0.0882  0.1721
31384W        W47458   7.485  14.301  14.168 -0.1807  0.2078  0.4001
31385W        W47459  16.248  13.205  12.386 -0.1774  0.0140  0.2953
31386W        W47460  15.296  17.737  10.801  0.2791 -0.2998  0.1038
31387W        W47461   3.181   9.976   1.790 -0.0595  0.0852  0.0309
31388W        W47462  14.965  13.726  14.712  0.0824  0.1571  0.0211
31389W        W47463   4.776  18.040   0.623  0.2162 -0.1677  0.0661
31390W        W47464   7.272  13.636  10.743  0.0351 -0.3039  0.0587
31391W        W47465   3.957  17.227   0.907 -0.0373 -0.1835  0.0450
31392W        W47466   4.726   7.096  12.658 -0.2172 -0.0774 -0.2066
31393W        W47467  17.422  18.474  12.861 -0.1242  0.1700  0.1629
31394W        W47468  12.576  13.792  13.479  0.1832 -0.2326  0.2066
31395W        W47469  16.132   5.413   5.130  0.0259 -0.3670  0.1166
31396W        W47470   1.972   3.416  13.288  0.1487  0.0389  0.0200
31397W        W47471  15.789   0.522  12.249 -0.0894 -0.0262 -0.0508
31398W        W47472   3.867  18.210  14.520 -0.2220  0.3590  0.1968
31399W        W47473  18.991   1.358  14.585 -0.1853 -0.3028  0.1315
31400W        W47474   6.894   0.103   4.879 -0.3037  0.2072  0.1455
31401W        W47475   9.268  11.804   2.385  0.0604 -0.0396  0.0680
31402W        W47476  11.888  11.506   9.112  0.0643  0.1544 -0.0598
31403W        W47477   2.312   2.975   2.988  0.1513 -0.5302  0.3704
31404W        W47478   7.457  12.811   2.248 -0.1786 -0.1433 -0.0832
31405W        W47479   2.302  16.976   1.088 -0.3331  0.2419 -0.0047
31406W        W47480  13.604  15.534   3.635 -0.1293 -0.0977  0.0711
31407W        W47481   8.355  16.440  10.794 -0.1437  0.2451  0.1217
31408W        W47482   3.592  14.573  10.570 -0.0878  0.0086 -0.3115
31409W        W47483   8.612   4.404   3.151 -0.2476  0.0100 -0.2575
31410W        W47484  13.929   6.884   4.785  0.3573 -0.1387  0.4200
31411W        W47485   7.439   9.100   2.836 -0.1737  0.2692  0.0064
31412W        W47486  18.197  11.869   3.916  0.0063  0.2263 -0.3838
31413W        W47487  13.975  13.811   3.255 -0.0461  0.3018  0.2036
31414W        W47488   9.126  12.233   2.829  0.0269  0.0326  0.0139
31415W        W47489   0.644   4.305  13.893 -0.2044  0.0616 -0.1079
31416W        W47490  12.026  13.518   2.257  0.3413 -0.1535  0.1108
31417W        W47491   3.504  18.109  11.718  0.3171 -0.1078 -0.0158
31418W        W47492   8.441   3.799  11.502 -0.3085 -0.1743  0.1378
31419W        W47493   0.945   1.243   2.643 -0.1354  0.2533 -0.3275
31420W        W47494  15.111  17.906   4.335 -0.1778 -0.3406  0.3175
31421W        W47495   7.213  12.596   1.476  0.0500 -0.1583  0.1976
31422W        W47496  14.757  15.698   1.339  0.0131  0.1872 -0.1645
31423W        W47497   4.026   8.100  14.178 -0.2034 -0.2696  0.2585
31424W        W47498  19.097  11.204  10.799 -0.0440 -0.0694 -0.1792
31425W        W47499  17.077  13.465   2.042 -0.2177 -0.1251  0.4220
31426W        W47500  14.389  14.847   3.852 -0.0284 -0.5781 -0.0545
31427W        W47501  17.288   5.791  12.421 -0.0846 -0.2169 -0.0514
31428W        W47502  14.926   8.530   3.552  0.1696 -0.2210 -0.0055
31429W        W47503   7.940   4.082  12.251  0.1916  0.2771 -0.1163
31430W        W47504  13.747   1.964   2.655 -0.1372 -0.1721 -0.3601
31431W        W47505  12.304   9.625   3.929  0.0608  0.0145  0.2921
31432W        W47506   4.818   6.751   2.591 -0.1222  0.3197  0.3556
31433W        W47507  16.952   9.218   3.502  0.3510 -0.1019  0.1621
31434W        W47508   5.295  11.278  13.001  0.1081  0.2856  0.1620
31435W        W47509  11.767  17.377   4.928  0.0214  0.2438  0.0524
31436W        W47510   7.642   3.446   1.233  0.0133  0.1630  0.0283
31437W        W47511  14.903   0.974   4.226  0.0013 -0.1525  0.1309
31438W        W47512  11.912  14.828   9.680 -0.0077 -0.1879  0.1416
31439W        W47513  17.798  12.205   3.340  0.0783 -0.0742  0.0420
31440W        W47514   9.976   0.061   4.139  0.1549 -0.1360 -0.1874
31441W        W47515   9.287  18.797  11.798  0.1122  0.1168 -0.0296
31442W        W47516  14.100   2.930   4.777  0.0259  0.0295 -0.0327
31443W        W47517   3.796  11.226   1.564 -0.0564 -0.0958  0.3899
31444W        W47518  16.376   7.573  11.199  0.0102 -0.0349 -0.1600
31445W        W47519  15.565  16.302  13.045  0.0386  0.0182 -0.1306
31446W        W47520   5.942   5.240   2.864 -0.0199  0.2140 -0.1045
31447W        W47521  18.333   3.297  10.804 -0.1937  0.2212  0.1512
31448W        W47522  10.512   5.022  13.404 -0.0587 -0.0810  0.0012
31449W        W47523  12.381   9.018  11.004 -0.0056 -0.1025  0.1180
31450W        W47524  13.538   9.703   4.444 -0.1740  0.1540 -0.3604
31451W        W47525  11.558  14.209  11.862 -0.0753  0.0674 -0.0847
31452W        W47526   8.268   5.454   3.919  0.1766  0.0145 -0.1690
31453W        W47527   5.695  13.065   4.903  0.5023  0.3894  0.2442
31454W        W47528  13.666   7.201   4.243  0.0963 -0.0260 -0.2684
31455W        W47529  12.445  15.806   2.478 -0.1215  0.0195 -0.1474
31456W        W47530  11.909   4.773   2.460  0.0152  0.3359 -0.0784
31457W        W47531   0.737   3.124   4.007 -0.3787  0.1867 -0.1313
31458W        W47532   8.817  15.362   3.036 -0.0443  0.1326 -0.0126
31459W        W47533   7.625   6.152  10.714 -0.1579  0.3292  0.0659
31460W        W47534   1.411  11.349   2.922  0.0874  0.0590 -0.0240
31461W        W47535   8.516   4.782   2.419 -0.3596 -0.0472 -0.0856
31462W        W47536  14.742  12.034  14.298 -0.0808 -0.1525 -0.0357
31463W        W47537  12.056   2.974  13.698 -0.0484  0.2602 -0.1250
31464W        W47538   5.061   8.899  12.054 -0.2697 -0.2627 -0.2243
31465W        W47539  17.726   4.201   0.937 -0.2501  0.2217  0.2839
31466W        W47540   2.702   4.244  10.311  0.1610  0.2178 -0.0109
31467W        W47541  15.172  19.162  13.413 -0.1526  0.0814  0.6203
31468W        W47542   5.845   0.743  11.666  0.1701 -0.0759 -0.3388
31469W        W47543   2.434  11.563  13.768  0.0785 -0.2436  0.0235
31470W        W47544   6.775  15.050   2.569  0.1629 -0.1984 -0.1557
31471W        W47545   1.497   4.631  11.557  0.2822  0.3373  0.0058
31472W        W47546   9.476   0.363   5.447 -0.0424  0.0839 -0.0595
31473W        W47547  14.126  13.448  10.358  0.0715  0.0616  0.2250
31474W        W47548   9.693   2.012   1.807  0.0440 -0.1151  0.0112
31475W        W47549   0.827   6.314  14.249  0.0164 -0.4552  0.0412
31476W        W47550   5.194   4.598  14.335 -0.1683  0.1088 -0.0108
31477W        W47551   5.645  18.750  13.112 -0.0447  0.0198  0.0378
31478W        W47552   2.345  12.849   4.275  0.4531 -0.0439  0.1349
31479W        W47553   6.488   2.920  13.479 -0.4313  0.1363 -0.2361
31480W        W47554   9.925   6.423   0.609  0.1255  0.0046 -0.2845
31481W        W47555  16.337  16.338   1.777 -0.2616 -0.0888  0.1470
31482W        W47556   2.462  12.178   4.982  0.2052 -0.1310 -0.0508
31483W        W47557   5.129   5.793   2.839  0.2648 -0.1319  0.1456
31484W        W47558  17.061   7.030  12.487 -0.3097  0.3709 -0.0799
31485W        W47559  13.843   6.208   4.849  0.1480 -0.0599  0.0762
31486W        W47560   1.395  16.757  12.270 -0.1788  0.0187 -0.2172
31487W        W47561   8.537   7.212  12.079 -0.1986 -0.1476 -0.1075
31488W        W47562  10.132  15.325  10.279  0.2976  0.0197  0.0593
31489W        W47563  16.273  14.974  12.207  0.0113 -0.3847 -0.1481
31490W        W47564   6.417  11.150  14.228  0.0357 -0.2679 -0.2225
31491W        W47565   8.231  13.293   3.514  0.2523 -0.0935 -0.1213
31492W        W47566  16.103  13.181   1.628 -0.1134 -0.0010 -0.0025
31493W        W47567  16.028  10.032   2.682  0.1223 -0.0481  0.1029
31494W        W47568   3.161   1.431   4.816  0.0661 -0.1555 -0.2602
31495W        W47569  18.644   6.300   3.411 -0.1530 -0.0449 -0.0254
31496W        W47570   6.127  11.451   3.512 -0.0948  0.2787 -0.1545
31497W        W47571   4.545  12.243  12.951  0.1745 -0.1110  0.2666
31498W        W47572  14.819  10.232  11.317 -0.1672  0.1546 -0.3662
31499W        W47573  17.147  15.259   4.780 -0.2364  0.1849 -0.4056
31500W        W47574  12.976  12.376  13.688 -0.0991 -0.0652  0.3009
31501W        W47575  12.725  10.359   4.951 -0.1929  0.0153  0.1840
31502W        W47576  16.425  11.479  13.419 -0.5350  0.2077 -0.0103
31503W        W47577  17.801  12.112  13.649 -0.0805 -0.0965 -0.0653
31504W        W47578  17.279  15.145   1.918  0.3297 -0.0615 -0.0367
31505W        W47579   5.140  15.705   4.404 -0.0559  0.2183  0.0469
31506W        W47580   7.079  13.309  14.882  0.1270  0.3161  0.1731
31507W        W47581  11.354  12.483   1.275 -0.0582 -0.0926 -0.0660
31508W        W47582   8.841   0.579  13.730  0.2672 -0.0169 -0.3025
31509W        W47583  18.229   7.997  14.926  0.1369 -0.3622 -0.1508
31510W        W47584   4.553  13.684   3.694 -0.0045  0.3325 -0.1553
31511W        W47585  10.463  10.745   0.655 -0.2523  0.3493  0.0394
31512W        W47586   3.096  13.358   1.979 -0.1519 -0.0380 -0.4741
31513W        W47587   5.963  17.157  12.657 -0.1229  0.0742  0.0726
31514W        W47588   7.780   1.542  11.005 -0.2452  0.2758  0.0522
31515W        W47589   2.341   2.102   4.907 -0.0439  0.2798 -0.1925
31516W        W47590   7.972  16.772  12.585  0.0105 -0.2939 -0.1878
31517W        W47591   3.162  15.110   2.947  0.2203 -0.2047  0.4125
31518W        W47592   0.738   9.609   0.911  0.0230 -0.1504 -0.0036
31519W        W47593   3.182   1.333  10.685  0.1539  0.0656 -0.2826
31520W        W47594   9.367  18.868   9.823  0.0635 -0.0015  0.0971
31521W        W47595   3.520  13.547   0.094 -0.2669  0.1125 -0.2554
31522W        W47596  17.597   9.067   4.006 -0.0179  0.0969 -0.0706
31523W        W47597  13.343  11.912  14.773  0.1198 -0.1274  0.0931
31524W        W47598  11.790   9.465  10.461  0.2019 -0.1091  0.0287
31525W        W47599  17.586   0.219  12.574 -0.2529 -0.3585 -0.0686
31526W        W47600  12.192   4.087   3.752 -0.1410  0.4208 -0.0117
31527W        W47601  18.240   0.025   2.115  0.1525  0.0691 -0.2813
31528W        W47602   8.668   0.465   1.205  0.5774  0.1582 -0.2707
31529W        W47603   3.807   4.532   3.374  0.2506 -0.3014  0.2121
31530W        W47604   5.618  12.690  11.997 -0.1808 -0.0697  0.0016
31531W        W47605   2.801   8.689  13.078  0.2232 -0.2786  0.0191
31532W        W47606  13.985   7.580   4.299 -0.2195  0.1498  0.2482
31533W        W47607  15.232  14.216   0.379  0.2350  0.2508 -0.2204
31534W        W47608  13.649  17.065  13.982  0.2463 -0.2869  0.2366
31535W        W47609  13.593  10.442   0.193  0.1509 -0.2688 -0.1472
31536W        W47610   4.835  12.461  10.380  0.0919  0.3119 -0.3277
31537W        W47611   0.147  13.252  13.948 -0.0442  0.2905  0.0860
31538W        W47612   9.076  17.386  10.994  0.1975  0.4365  0.4441
31539W        W47613   5.300   5.043   2.730  0.5800 -0.3146 -0.1305
31540W        W47614  15.532   2.023  14.034 -0.0277  0.2856 -0.1521
31541W        W47615  11.818  19.119   4.195 -0.2417 -0.2749  0.2992
31542W        W47616   0.051   7.911  14.611  0.2815  0.0887 -0.2584
31543W        W47617   2.986   6.590   0.966 -0.0255  0.1917  0.1372
31544W        W47618   1.072   8.113   3.657 -0.1612  0.1930  0.0184
31545W        W47619  19.142  10.874   4.294 -0.0673 -0.0694 -0.0736
31546W        W47620   2.638  18.781  14.793  0.1376  0.0079 -0.0037
31547W        W47621  14.999  15.932  12.145 -0.0387  0.2357 -0.1523
31548W        W47622   0.944  16.023   3.704 -0.4216 -0.6138 -0.1750
31549W        W47623   9.313  16.119   1.202  0.1334 -0.0575 -0.0469
31550W        W47624  15.301  19.119  10.748  0.1990 -0.1365  0.0039
31551W        W47625   1.458  13.670   2.097  0.0961 -0.0206  0.3743
31552W        W47626   8.739  10.230  10.859 -0.0705 -0.3234 -0.0466
31553W        W47627   4.887   7.364   2.097  0.1930  0.0726 -0.0563
31554W        W47628   5.566   1.273   0.462  0.0267 -0.2497  0.0065
31555W        W47629  19.335  19.119   3.393  0.0382 -0.0076  0.1906
31556W        W47630   3.943   3.508  11.934  0.2115 -0.0205 -0.1510
31557W        W47631  19.033  12.709  11.919 -0.1275  0.3398  0.1344
31558W        W47632   1.200  12.012  11.480  0.1193 -0.2179 -0.1068
31559W        W47633   1.154  11.087   6.333  0.1390  0.0477  0.1612
31560W        W47634   9.300  16.934   0.461 -0.0895 -0.0774 -0.2591
31561W        W47635  19.186  15.661  13.526  0.3831  0.0350  0.0326
31562W        W47636   8.632   1.218   3.635  0.1027  0.1697 -0.1179
31563W        W47637  18.054   3.037   3.407  0.2136  0.0028 -0.2072
31564W        W47638  12.186  10.672   5.224  0.0940 -0.0154  0.2203
31565W        W47639  14.218   9.252   1.318  0.1709 -0.2834  0.1527
31566W        W47640   3.276  19.102  11.678  0.4096  0.1981 -0.2403
31567W        W47641   7.484   9.124   3.798 -0.0741 -0.0209 -0.1745
31568W        W47642   4.638   5.844   2.047 -0.2132  0.2701  0.0417
31569W        W47643  17.864  19.140  14.483  0.1122  0.2297 -0.2770
31570W        W47644   2.857  18.392   1.287 -0.3209  0.1098  0.1168
31571W        W47645  12.874   5.000  10.498 -0.0170 -0.1902  0.3590
31572W        W47646   4.421  17.911  14.265 -0.1355  0.1334 -0.0099
31573W        W47647   1.406  17.559   2.092 -0.3908 -0.2338 -0.1537
31574W        W47648   4.174  17.005  12.916 -0.2032  0.2066  0.0568
31575W        W47649  13.471  15.949   1.631  0.1019  0.0452  0.1311
31576W        W47650  10.087  18.681   0.640 -0.2836  0.2265  0.3435
31577W        W47651  17.681  18.865   2.382 -0.0747 -0.3415  0.0086
31578W        W47652   8.028   9.317  10.822  0.1838  0.1531  0.0550
31579W        W47653   0.012  15.946   3.685 -0.1910  0.1040  0.2138
31580W        W47654   8.195   7.869   3.228 -0.0967 -0.2520 -0.3501
31581W        W47655   9.028   4.730  14.235  0.1651 -0.1089  0.1201
31582W        W47656  10.452  15.297   3.905 -0.2233 -0.0728 -0.2451
31583W        W47657   2.053   4.963  11.589  0.1768 -0.0281 -0.3315
31584W        W47658  10.534  11.052   4.680 -0.2883 -0.0030  0.0293
31585W        W47659  16.362  17.103   0.817 -0.0402 -0.1533 -0.0514
31586W        W47660  12.832   0.334   1.134  0.0005  0.0002  0.0329
31587W        W47661   3.502   9.213  13.469  0.2771  0.0959 -0.0051
31588W        W47662  15.673   0.108   2.951  0.1772 -0.0497 -0.2181
31589W        W47663   6.886   2.277   1.937  0.2920  0.1220 -0.2517
31590W        W47664   2.742  10.727  14.607 -0.0955  0.2034 -0.1572
31591W        W47665  16.283   4.726  12.174 -0.0770 -0.0145 -0.0427
31592W        W47666  18.913  18.167   5.629  0.0547  0.1792  0.3386
31593W        W47667   3.341   4.920  11.363  0.0240  0.3624 -0.2400
31594W        W47668   3.332  13.002   4.559 -0.1000  0.0672 -0.0471
31595W        W47669   1.260  11.718   2.519 -0.1664  0.0247 -0.0011
31596W        W47670   7.588  16.910  12.309  0.0767 -0.1600  0.4117
31597W        W47671  14.062  17.071   2.973  0.1804  0.2536 -0.2241
31598W        W47672  19.300  15.402   0.069  0.1051 -0.1829  0.0880
31599W        W47673  16.917  13.926  14.467 -0.3006 -0.1482 -0.2242
31600W        W47674  13.075  15.785  13.851  0.1098 -0.2394 -0.4463
31601W        W47675   4.864  17.368   1.941 -0.0130  0.1176 -0.2449
31602W        W47676   6.673   0.612   3.461 -0.1764  0.0340 -0.4341
31603W        W47677  18.074   0.073   3.134  0.0507 -0.1823 -0.3744
31604W        W47678  15.664  11.248  10.969  0.1291  0.0069  0.0197
31605W        W47679   3.371  17.589  10.775 -0.0590 -0.1683 -0.1400
31606W        W47680  15.083   3.905  10.744  0.1852 -0.2351 -0.2009
31607W        W47681   4.716  13.172  14.615  0.2021 -0.0113  0.3112
31608W        W47682  10.885  19.256  10.303 -0.0253 -0.0833  0.1508
31609W        W47683  17.659  14.680   3.250  0.2495  0.2109  0.4203
31610W        W47684   4.041   7.309   2.761  0.0824  0.1102  0.0899
31611W        W47685   5.901  18.004  10.273  0.2299 -0.0134  0.0979
31612W        W47686   5.499  16.597   1.671 -0.0372 -0.3981  0.1501
31613W        W47687  17.425  18.236   3.230 -0.3862 -0.0666  0.0633
31614W        W47688   9.227   6.652   0.117 -0.0288  0.1438  0.0339
31615W        W47689   5.052   0.236  11.372 -0.3415 -0.2674 -0.1742
31616W        W47690  14.542   3.274   4.678  0.1420 -0.1579 -0.1787
31617W        W47691   1.430   4.484   0.003 -0.3569 -0.1419  0.1814
31618W        W47692  14.446  11.781  12.179  0.1903 -0.0830 -0.2287
31619W        W47693  17.662   4.208   1.897  0.3284 -0.0134  0.1104
31620W        W47694   3.896   4.115   4.253 -0.2916  0.0644 -0.0728
31621W        W47695  13.493  17.533   9.063  0.1581 -0.0127 -0.0813
31622W        W47696  16.136  10.373   5.116 -0.2548 -0.0722 -0.0981
31623W        W47697  17.386   8.173   0.247 -0.1496 -0.0360 -0.1459
31624W        W47698  11.613  15.093  10.352  0.3938 -0.3206  0.0105
31625W        W47699  14.347   0.048  12.529 -0.0690 -0.0628 -0.1893
31626W        W47700   2.483  15.680  12.686  0.0093 -0.1973 -0.0102
31627W        W47701  10.306   9.379   1.180 -0.1643  0.0324  0.1867
31628W        W47702  10.565  16.890  12.492 -0.1165 -0.1129  0.1617
31629W        W47703   2.078   5.853   2.364 -0.2742 -0.0373  0.0984
31630W        W47704   6.766  10.922   4.366  0.1437 -0.2150  0.1474
31631W        W47705   3.623   4.539   5.681  0.0197 -0.2083  0.0562
31632W        W47706  16.250   0.114   5.082  0.1096  0.3429  0.0092
31633W        W47707  16.943   1.815  13.730  0.2850 -0.0461  0.0177
31634W        W47708  15.864   7.820  14.641  0.2006 -0.0352 -0.0009
31635W        W47709  10.128   9.731   4.215  0.1387  0.2032 -0.1585
31636W        W47710  15.118   1.389   3.995  0.0169 -0.0342 -0.0683
31637W        W47711  16.575  19.307   0.722 -0.1533 -0.0454 -0.2648
31638W        W47712  11.467  12.789   4.917 -0.1925  0.2089 -0.0074
31639W        W47713   0.729   9.472  14.308 -0.1701  0.0025 -0.2727
31640W        W47714   3.971   8.479   0.522 -0.3833 -0.0860 -0.0487
31641W        W47715   1.342   2.396   2.927  0.0977 -0.2046 -0.3403
31642W        W47716   5.811   3.041  10.526  0.4766 -0.2200  0.1263
31643W        W47717   3.888   9.078  14.969  0.0228 -0.1594  0.3274
31644W        W47718   7.115   1.456  12.169 -0.1980 -0.0450 -0.1146
31645W        W47719   3.834  15.202  14.914 -0.1832  0.1140 -0.2472
31646W        W47720  17.421   0.212  10.401 -0.0963 -0.1757 -0.1392
31647W        W47721   2.390   8.153  11.025  0.5051  0.2967  0.3865
31648W        W47722   6.446  15.655   4.278  0.0150 -0.3614 -0.2210
31649W        W47723  15.260  12.346   3.163  0.1783 -0.0313 -0.0447
31650W        W47724   1.950  10.308   2.081  0.4247  0.1607 -0.0143
31651W        W47725  14.841   3.091   0.473 -0.0272  0.2028  0.0189
31652W        W47726  16.217   1.806  13.601 -0.2711 -0.1791 -0.1228
31653W        W47727   3.950  18.070   1.636 -0.0023  0.1078  0.1090
31654W        W47728   3.495  19.020   3.568 -0.2152  0.0939  0.0171
31655W        W47729  13.165  12.970   2.665 -0.2232 -0.1149  0.2123
31656W        W47730  10.075  11.329   1.106  0.0486 -0.0763  0.0347
31657W        W47731  15.561   9.007   1.448 -0.3693  0.0903 -0.1412
31658W        W47732  13.179  17.244  12.079 -0.3053 -0.3010 -0.2240
31659W        W47733   2.276   3.152   4.478 -0.1406 -0.0094  0.1838
31660W        W47734   1.525  11.282   3.706 -0.1722 -0.0742 -0.0572
31661W        W47735   4.892  18.078  12.919 -0.2604  0.2165 -0.1060
31662W        W47736  16.110  16.111   5.616 -0.0358  0.1466  0.0032
31663W        W47737   7.208   5.091   9.716 -0.3057  0.0132 -0.4206
31664W        W47738  15.051   1.653   2.782  0.1892  0.0427 -0.0616
31665W        W47739   9.708   0.870   2.772  0.0321  0.1727 -0.4266
31666W        W47740  16.565   4.676  12.606 -0.1420  0.0278 -0.0268
31667W        W47741  15.314   8.813  13.598 -0.4235 -0.1035  0.4314
31668W        W47742  14.211  14.214  11.024  0.2410 -0.2706  0.0100
31669W        W47743   7.034   2.129  11.034  0.0951 -0.0465  0.3191
31670W        W47744  15.657  15.180   0.810  0.3294 -0.2695  0.0499
31671W        W47745   4.098   0.677  14.090 -0.0926 -0.0063  0.1316
31672W        W47746   7.758  15.791   0.367 -0.0370 -0.5111  0.0669
31673W        W47747  12.535  11.931  14.843  0.0827 -0.0207  0.2673
31674W        W47748  11.943  11.696  10.802 -0.0379  0.2087  0.1754
31675W        W47749   8.313   0.153   2.426 -0.2465 -0.2888 -0.1176
31676W        W47750  15.787   5.266  12.741 -0.2608 -0.0763  0.1554
31677W        W47751  17.281  14.567   2.584  0.0685 -0.1281  0.0280
31678W        W47752  12.025   0.333   2.189 -0.1719  0.0103 -0.0693
31679W        W47753   7.145  10.290   0.592 -0.1478  0.0575 -0.1347
31680W        W47754   2.252   7.045   1.939  0.2206  0.1644  0.4563
31681W        W47755   8.351   5.798   2.259 -0.1103  0.3539  0.0523
31682W        W47756   2.354   8.799   3.556 -0.0383 -0.1936 -0.0611
31683W        W47757   9.232  11.056   4.299 -0.0557 -0.4542 -0.1133
31684W        W47758  14.185  12.003  12.548 -0.0948  0.0844 -0.0954
31685W        W47759  14.169   0.924  11.793 -0.1422 -0.4052 -0.0992
31686W        W47760   9.007   2.597  14.874 -0.0516 -0.0574  0.0146
31687W        W47761  16.913  17.455  11.019  0.0443 -0.3023  0.2204
31688W        W47762   6.912   8.529  13.052 -0.1083  0.1214 -0.1609
31689W        W47763   4.331   6.777   3.014  0.0873 -0.5038 -0.0167
31690W        W47764   1.789  16.358   2.462  0.1396  0.0801 -0.0986
31691W        W47765  14.447   8.319   0.907  0.3617 -0.2104 -0.1811
31692W        W47766  18.812   0.662  12.100  0.6320  0.3376  0.0121
31693W        W47767   8.517   1.017  11.025  0.0891  0.1918  0.1423
31694W        W47768   3.445   8.446   2.153  0.1609  0.2531  0.0857
31695W        W47769   3.602  16.451   0.494  0.0717  0.1021  0.1905
31696W        W47770  19.045  10.624   2.869 -0.2368  0.2643  0.0399
31697W        W47771  11.785   4.745   5.414 -0.0392  0.1154  0.1921
31698W        W47772  13.821   4.196  12.060 -0.2301 -0.1534  0.0951
31699W        W47773  13.233   3.598  14.242 -0.2016  0.2924  0.1670
31700W        W47774  11.324   9.637  10.306 -0.2657 -0.1663  0.0553
31701W        W47775  12.754   1.302   4.025 -0.0232 -0.0801 -0.2486
31702W        W47776   6.593  11.461  13.720  0.0165 -0.2149 -0.1121
31703W        W47777  12.841   1.201  11.325  0.0870 -0.0486 -0.2335
31704W        W47778   2.963  14.541  14.601 -0.0199 -0.0008 -0.2306
31705W        W47779   5.686  17.697   3.498  0.0926 -0.0606 -0.0273
31706W        W47780   6.361   4.894   1.208  0.1415  0.2535  0.0360
31707W        W47781   2.971   5.419  13.555 -0.0547  0.3297 -0.5649
31708W        W47782  18.898   6.248  13.426  0.0669 -0.3438 -0.0264
31709W        W47783   8.908   8.631   4.094  0.1045 -0.1108 -0.0713
31710W        W47784   9.238   3.226   4.827 -0.0350 -0.2620 -0.1657
31711W        W47785  12.080  18.551   0.642  0.2563 -0.3118 -0.2145
31712W        W47786  14.918   4.579  11.316  0.4569 -0.3026  0.1725
31713W        W47787   0.555   4.560   2.519 -0.0556 -0.0437  0.2771
31714W        W47788  17.343  17.673  14.303 -0.4135  0.1232 -0.0865
31715W        W47789   3.562   6.842   4.094  0.0413 -0.0208  0.3812
31716W        W47790   3.443   1.604   2.012 -0.2654  0.0147  0.0267
31717W        W47791  13.683   5.781   3.942  0.1537 -0.0080 -0.2339
31718W        W47792   2.081   6.439   4.818 -0.1411  0.0932  0.2518
31719W        W47793   9.369   6.948  12.479 -0.1098 -0.0592 -0.0399
31720W        W47794  12.365  15.612  13.003  0.2553 -0.1338 -0.1468
31721W        W47795   3.494  10.420  12.219  0.0795  0.1936  0.4647
31722W        W47796   9.111   0.994   0.007 -0.2575  0.0665 -0.4231
31723W        W47797  13.235   8.011   3.811  0.3160 -0.1963 -0.2176
31724W        W47798   9.491   8.501   0.591  0.1388 -0.0287  0.0574
31725W        W47799  12.679  16.880   3.373  0.2055  0.1597 -0.0862
31726W        W47800  10.706  19.198   1.016  0.2323  0.0444 -0.1724
31727W        W47801   7.040   4.098  10.378  0.0422 -0.3813 -0.1812
31728W        W47802   0.700  13.356   9.892 -0.3943  0.0297  0.3834
31729W        W47803   9.806  11.528   3.861  0.3215  0.3548  0.0872
31730W        W47804   9.239  16.551  13.204 -0.4513  0.1681 -0.0347
31731W        W47805   8.600  10.184   1.516 -0.0508  0.0137 -0.3758
31732W        W47806  11.008   7.215  13.958 -0.0378  0.0402  0.2119
31733W        W47807   6.066   3.678  12.404  0.1281  0.2566  0.3700
31734W        W47808  14.129   2.794  11.516 -0.0881 -0.0170  0.0174
31735W        W47809  16.323   6.511   3.572  0.0678  0.1712 -0.3113
31736W        W47810   6.852   2.954  14.406 -0.1175  0.2930 -0.1959
31737W        W47811  16.926  16.298   5.058 -0.1045  0.0090  0.2399
31738W        W47812   9.521  17.160   3.806  0.1709 -0.0101 -0.2669
31739W        W47813  13.369  12.460   4.314 -0.0837  0.1959 -0.0353
31740W        W47814   5.822  16.372  14.286 -0.2110 -0.3769  0.2842
31741W        W47815   6.552  15.833   4.814  0.0485  0.0661 -0.1705
31742W        W47816   8.403   9.857   1.872  0.1581 -0.0321  0.0320
31743W        W47817   3.693   1.284   0.948  0.0541 -0.1771  0.0367
31744W        W47818   2.393   4.402   0.926  0.4970  0.0135  0.0564
31745W        W47819  15.114  11.298   5.108  0.1059  0.2585 -0.3048
31746W        W47820  12.331   3.227  14.005  0.0614 -0.1536 -0.0427
31747W        W47821  14.789  12.354  12.140  0.1913 -0.2279  0.0631
31748W        W47822   6.997  17.372  11.499 -0.0126  0.1032 -0.4587
31749W        W47823  12.881   4.143   1.943 -0.1365  0.3545  0.3420
31750W        W47824   1.921  13.942   5.365  0.2102  0.0168  0.0510
31751W        W47825   0.930   4.771  10.759 -0.0943  0.3164  0.0503
31752W        W47826   5.339  15.866   5.281  0.0626  0.3556 -0.2747
31753W        W47827   5.563   8.295  10.754  0.2169  0.2522  0.0469
31754W        W47828  12.098  17.661  12.851 -0.1022  0.1855  0.1013
31755W        W47829   9.026  13.781   4.437  0.2604  0.3778  0.1851
31756W        W47830  13.133   1.235   4.909 -0.1136  0.1614  0.0234
31757W        W47831   8.078   3.338   1.493  0.0904  0.0757 -0.1807
31758W        W47832   0.990   3.368  11.417 -0.3472  0.0511  0.1230
31759W        W47833   3.010  11.594   2.166 -0.1088 -0.0458 -0.1102
31760W        W47834  16.891  14.991   0.036  0.1154 -0.3602 -0.0658
31761W        W47835  15.711  12.387  12.446  0.0181 -0.1456 -0.3628
31762W        W47836  18.563  14.261   0.117  0.0993  0.4324 -0.0494
31763W        W47837  17.465  12.662  12.769  0.0569 -0.1508 -0.3680
31764W        W47838  11.516  10.282   2.732  0.0947  0.1607 -0.0899
31765W        W47839   2.286  13.996  14.021 -0.2397  0.3007  0.0551
31766W        W47840   1.556  19.166  13.255  0.4078 -0.1006 -0.0678
31767W        W47841   1.001   6.832   0.254  0.0583 -0.1433 -0.0937
31768W        W47842   8.515  18.158   1.998  0.0140 -0.1378  0.3211
31769W        W47843   0.889   4.405   3.675  0.2220  0.1526 -0.0717
31770W        W47844  12.537   6.276   5.509  0.1640 -0.2516 -0.0438
31771W        W47845   2.968   0.531  12.572  0.1780 -0.1036  0.1936
31772W        W47846   3.872   1.763   1.604 -0.2082  0.1677 -0.1134
31773W        W47847  11.799  13.916  14.684  0.3799 -0.0825  0.1148
31774W        W47848   3.317   8.244  11.437 -0.1517  0.1212  0.0597
31775W        W47849  12.275  11.929   9.097  0.4274 -0.2668  0.1267
31776W        W47850  10.883  11.581   0.772 -0.1365  0.0465 -0.1202
31777W        W47851   5.447  19.074   3.418 -0.3289  0.1298 -0.1445
31778W        W47852   9.189   6.455   3.620  0.1425  0.1534 -0.3180
31779W        W47853  14.221  15.840  13.747  0.1438  0.2862 -0.1123
31780W        W47854   4.091  12.608  13.705 -0.3929  0.2521 -0.0972
31781W        W47855   9.694   7.312   3.201  0.1281 -0.1602 -0.2231
31782W        W47856  19.259  17.572   1.959 -0.0140 -0.1570 -0.0395
31783W        W47857   8.531   3.217  10.882  0.5284 -0.0533 -0.0253
31784W        W47858   4.222  10.348  13.336  0.0491  0.0426  0.0270
31785W        W47859   1.381  11.157   2.335  0.0254 -0.4902 -0.3408
31786W        W47860  17.989   0.906   4.973  0.1110 -0.0104 -0.0791
31787W        W47861  17.295   0.412  14.656 -0.2924  0.2355  0.2008
31788W        W47862   5.423   7.096   4.864  0.2107 -0.1338 -0.2445
31789W        W47863   3.247   8.345  14.514  0.1158  0.3311 -0.1185
31790W        W47864  15.047   2.395  11.768 -0.1949  0.1040  0.0619
31791W        W47865   1.683  18.528   0.487 -0.4135 -0.0025  0.0553
31792W        W47866   0.460  15.588   4.288  0.0780  0.1319 -0.4808
31793W        W47867   6.944  11.617   9.757 -0.1154  0.2884  0.4045
31794W        W47868  14.852  12.147   3.910  0.0158  0.2427 -0.3180
31795W        W47869  14.214   3.332   2.508  0.1866 -0.2974 -0.3666
31796W        W47870  15.435  11.245   4.537  0.4146 -0.1114 -0.0313
31797W        W47871   2.669  14.233   3.046 -0.1640 -0.3567  0.0517
31798W        W47872   3.288  15.017   1.500 -0.1866 -0.1436  0.2734
31799W        W47873  16.023  10.866   4.939 -0.2543  0.1542  0.0597
31800W        W47874  17.962  11.651  12.369  0.1241  0.1157  0.0645
31801W        W47875   8.599  12.226   3.784  0.0194 -0.2172  0.4507
31802W        W47876   5.700  10.022   0.876 -0.0525  0.1250  0.0562
31803W        W47877   1.287  16.980   4.765  0.0431 -0.0049  0.1286
31804W        W47878  16.202  10.477   0.884  0.1809  0.1373  0.3549
31805W        W47879  11.700  14.986  15.001  0.1871 -0.1448 -0.1873
31806W        W47880  16.097  11.219  11.243 -0.0853 -0.1764  0.1353
31807W        W47881   1.543  14.367  10.950 -0.2811 -0.4174 -0.2654
31808W        W47882  13.679   9.415  13.626 -0.0110 -0.0766 -0.2959
31809W        W47883   6.477   2.944   3.035  0.1838  0.0533  0.0639
31810W        W47884   4.191   1.927  14.112  0.0302  0.4560  0.0936
31811W        W47885  12.711  13.072  11.295  0.1266  0.3068  0.1167
31812W        W47886   4.962  14.226   1.143  0.2352 -0.2369 -0.0553
31813W        W47887   5.000  13.488  11.615 -0.1935 -0.0503  0.0833
31814W        W47888  12.389   8.510  11.730  0.3635 -0.0414  0.3704
31815W        W47889   0.009  11.677  12.300 -0.1755 -0.2167 -0.0293
31816W        W47890  11.617   6.228  11.139 -0.1461 -0.1244 -0.1125
31817W        W47891  16.642  15.787   2.361 -0.1880 -0.2115 -0.3392
31818W        W47892  10.775   6.915  10.560  0.0722 -0.2081 -0.2719
31819W        W47893  11.056  14.419  13.167 -0.1470  0.0436 -0.2642
31820W        W47894   5.837  11.356   0.991  0.1543 -0.1125  0.2733
31821W        W47895  15.265  12.056   1.195 -0.0207 -0.0267 -0.0165
31822W        W47896   2.885  16.398   4.213 -0.1722 -0.0161 -0.2010
31823W        W47897   1.984   4.461   3.395 -0.1279  0.3728  0.1283
31824W        W47898   4.221   5.720   3.428  0.0851  0.0951 -0.0921
31825W        W47899   0.927  15.369   1.789  0.1587 -0.0537  0.1111
31826W        W47900  16.539   7.651  13.068  0.2623  0.0016 -0.0750
31827W        W47901   1.266   3.555   0.870  0.2250  0.1477 -0.0727
31828W        W47902   9.321   9.385  13.592  0.0138  0.2700 -0.0227
31829W        W47903   3.997  12.138  11.938  0.1185  0.0540  0.0637
31830W        W47904  18.903   7.153   4.544  0.0014  0.1355  0.0736
31831W        W47905   6.944   2.337   2.861 -0.0102 -0.0330  0.2569
31832W        W47906   5.220   2.221  10.612  0.0314 -0.0497 -0.0871
31833W        W47907  11.358   1.295   4.496  0.1955  0.2116 -0.1363
31834W        W47908   1.557   3.555  14.868 -0.0572  0.0573 -0.3063
31835W        W47909  13.803  10.119  14.865 -0.0148  0.1604  0.0741
31836W        W47910  11.321  15.515   4.361  0.0414 -0.1508 -0.1849
31837W        W47911   9.984   8.884  10.884 -0.1093  0.0581 -0.0393
31838W        W47912  14.447  18.476   4.871  0.0919  0.0103  0.4430
31839W        W47913  10.887  13.087  12.224 -0.2811  0.1962 -0.0102
31840W        W47914  15.978   1.454   4.290 -0.1270 -0.0831  0.0901
31841W        W47915   1.216   9.788  10.300 -0.0391 -0.0645 -0.1082
31842W        W47916  16.843   6.591  14.601 -0.0325 -0.1313  0.1524
31843W        W47917  13.098  15.935   3.265 -0.3217  0.2015 -0.2725
31844W        W47918   0.565   7.778   3.492 -0.0856 -0.1683 -0.0612
31845W        W47919  12.726  11.290  12.048 -0.0594  0.3184  0.1456
31846W        W47920  14.813   4.517   2.431  0.0437 -0.1963  0.2638
31847W        W47921   0.473  16.299  14.096 -0.2940  0.1126  0.1019
31848W        W47922   3.842  14.362  12.753  0.0948 -0.1165 -0.0028
31849W        W47923  15.377  15.162  11.168 -0.1784  0.1384 -0.5996
31850W        W47924  18.633   6.851   3.630 -0.0666 -0.1206 -0.2931
31851W        W47925  16.273   2.875   2.053 -0.1487 -0.0373 -0.3221
31852W        W47926  10.035   3.057   0.748 -0.0922 -0.1400  0.2466
31853W        W47927   4.215  17.671  11.607  0.1570  0.0820  0.0594
31854W        W47928  11.098   0.759  14.495  0.0713  0.0425 -0.0733
31855W        W47929  14.958   2.724  13.126 -0.0289  0.1871  0.2747
31856W        W47930  18.890  12.889  12.690 -0.1310 -0.3808  0.0799
31857W        W47931  10.116  18.027   4.426 -0.1523  0.0736  0.2890
31858W        W47932   2.509   0.600   0.615  0.3094  0.0233 -0.1493
31859W        W47933   5.256  12.023   2.012 -0.1682  0.1020 -0.3889
31860W        W47934  14.289   8.255   3.650 -0.0592 -0.0765 -0.0429
31861W        W47935   3.078  16.696  10.530 -0.3439  0.1220 -0.2410
31862W        W47936   7.941  18.444   0.239  0.0465  0.0940  0.0346
31863W        W47937   9.149  14.256   4.058 -0.2185  0.2301  0.2772
31864W        W47938   9.750  17.998   2.736  0.3460  0.1544 -0.3378
31865W        W47939   3.886  13.486  13.602  0.0831 -0.0327  0.0138
31866W        W47940  14.121  13.146  13.602 -0.1061  0.1151  0.3019
31867W        W47941  10.455  17.932   2.189  0.3950 -0.2307 -0.1613
31868W        W47942   2.358  12.037  12.395 -0.0349 -0.0075  0.0378
31869W        W47943  10.631  10.583   4.749  0.1169  0.3472 -0.0076
31870W        W47944  14.169  15.230  12.890 -0.0153 -0.0237  0.0406
31871W        W47945   8.864   3.721  11.833 -0.0606 -0.2180 -0.2548
31872W        W47946   8.349   2.341   1.479 -0.0341  0.0431  0.0011
31873W        W47947   5.168   1.554  14.089 -0.0064  0.2471 -0.3010
31874W        W47948   4.912   5.315   5.090 -0.1353 -0.3936  0.0469
31875W        W47949  12.349  11.667  11.964 -0.2628  0.2090 -0.1238
31876W        W47950  10.932  16.796  13.868 -0.2923  0.1997 -0.1848
31877W        W47951  10.823   8.456   0.312  0.2001 -0.0891 -0.0909
31878W        W47952   3.621   1.976  13.531  0.0018  0.1229  0.0676
31879W        W47953  18.914  15.303  12.023 -0.4128  0.0487 -0.0200
31880W        W47954   6.569   9.930   1.051  0.0445  0.0253 -0.0707
31881W        W47955   4.107  17.219  10.707 -0.0985  0.1836 -0.2355
31882W        W47956  15.581   2.031   0.013  0.0871 -0.1394 -0.0172
31883W        W47957  18.069  14.398   4.073 -0.0898 -0.1117  0.3373
31884W        W47958   2.508  18.864  10.380 -0.2618  0.1299  0.2013
31885W        W47959   4.602   3.531  13.912 -0.1890 -0.1251 -0.0276
31886W        W47960   2.138  14.150   4.901  0.1730 -0.0972  0.0732
31887W        W47961   5.243   1.104   0.911  0.1340 -0.4532  0.1145
31888W        W47962  13.406   4.155  11.087 -0.3567  0.0783 -0.1748
31889W        W47963   7.251  18.014  14.404 -0.0449  0.0403 -0.2065
31890W        W47964  15.554   7.328   1.553 -0.0350  0.1159  0.3219
31891W        W47965  16.337  15.523   4.828 -0.1069  0.0686  0.2826
31892W        W47966   5.104   6.287   2.743  0.0229  0.3146 -0.3397
31893W        W47967  18.989   7.521   0.480 -0.0028  0.0008 -0.1195
31894W        W47968  16.657  12.206  10.707  0.2166 -0.0461  0.0980
31895W        W47969  12.585   3.864   0.832  0.0525 -0.0101 -0.2028
31896W        W47970  14.245   8.400   4.575  0.1316  0.2170 -0.1506
31897W        W47971   4.468   2.510   3.412 -0.0593 -0.1670 -0.2567
31898W        W47972  11.555  15.696   2.861  0.0384 -0.2320 -0.1258
31899W        W47973   7.015  12.267   2.084 -0.1180  0.2569  0.2151
31900W        W47974   1.016  18.783   3.884  0.2986 -0.0610  0.2480
31901W        W47975  15.341   5.633  10.823 -0.1308 -0.0129  0.3038
31902W        W47976   3.157  16.661  13.177  0.0902  0.0981 -0.1828
31903W        W47977  16.706   8.849   2.667 -0.0232 -0.0357 -0.0813
31904W        W47978   4.194   2.228   3.050 -0.0376 -0.4010 -0.1158
31905W        W47979   9.578  14.740   0.506  0.0043  0.2212 -0.0556
31906W        W47980  11.062   1.311   4.885 -0.0639  0.1419 -0.0112
31907W        W47981   9.766  15.890   3.065  0.0749 -0.4807 -0.0515
31908W        W47982   0.268   3.332   4.103 -0.0303 -0.1477 -0.2008
31909W        W47983  16.941  14.974   1.450 -0.2817  0.0305  0.3135
31910W        W47984   9.768   2.435   8.960 -0.0722  0.2594 -0.0624
31911W        W47985  10.491  15.486   0.274 -0.0099 -0.0176  0.1284
31912W        W47986   5.804   8.330   0.464  0.1255 -0.4194  0.0101
31913W        W47987   2.970   4.755   4.277  0.2547  0.2411 -0.3155
31914W        W47988   2.570  18.309  14.918 -0.0461  0.2879  0.1872
31915W        W47989  17.141  10.233   3.019 -0.0208 -0.0348  0.0531
31916W        W47990  19.020  10.093   2.073 -0.2541 -0.0215  0.0134
31917W        W47991  14.651   0.265  14.795 -0.1387 -0.1011  0.0680
31918W        W47992   8.818  16.578  14.238  0.0467 -0.1350 -0.0706
31919W        W47993   1.993   2.768   5.444  0.0618 -0.1657 -0.0320
31920W        W47994   4.272  15.200  14.283 -0.1447 -0.0530 -0.1267
31921W        W47995  13.744   2.112   4.971  0.1048  0.0953  0.1650
31922W        W47996  16.273   1.548  10.686 -0.0588  0.0408 -0.0340
31923W        W47997  11.189  19.167   3.473  0.2468 -0.2198 -0.0122
31924W        W47998   9.749  17.145  10.521  0.0724  0.1549 -0.1320
31925W        W47999   8.771   2.559  10.449 -0.0177  0.2192  0.0092
31926W        W48000   7.393  17.735   2.507  0.2784 -0.0483 -0.2855
31927W        W48001   7.769  13.660  10.036 -0.3590 -0.2007 -0.0422
31928W        W48002   4.378  18.232  10.074  0.1394  0.4489 -0.1635
31929W        W48003  14.150  10.663   1.806  0.3616  0.0196  0.2479
31930W        W48004  16.118  18.493  13.787 -0.0831  0.0297 -0.0046
31931W        W48005  18.206  14.196  12.934 -0.3233 -0.0747 -0.1051
31932W        W48006   8.591  11.025   1.532  0.0600 -0.0040 -0.2410
31933W        W48007  16.228  17.272  10.809  0.1235 -0.1111  0.1492
31934W        W48008   5.826  16.540   0.878  0.0230  0.1323 -0.0416
31935W        W48009  13.916  14.091   1.465  0.1668 -0.0816 -0.0948
31936W        W48010  12.512  15.853   0.005 -0.1115 -0.0605 -0.1116
31937W        W48011  16.064   4.287  13.802 -0.4054  0.2765  0.1335
31938W        W48012  17.953   2.350  10.671  0.1323  0.2201 -0.0493
31939W        W48013   5.749  12.949  13.710  0.0315  0.2136 -0.1889
31940W        W48014   1.961  16.232   3.728  0.2284  0.0570 -0.0561
31941W        W48015  17.008  17.402   9.457 -0.1526  0.1742 -0.1559
31942W        W48016  14.445   9.533   1.837  0.3665  0.1198  0.0591
31943W        W48017   4.864   7.080  13.858  0.3504  0.3789  0.0831
31944W        W48018   7.846   1.517   9.491 -0.1382 -0.0015  0.0149
31945W        W48019  10.086   6.612   2.482 -0.1720  0.1452  0.2868
31946W        W48020   4.319  18.806  12.756  0.0891  0.2633  0.0370
31947W        W48021   3.249  12.549  14.547  0.0511  0.1461  0.1117
31948W        W48022  15.467   0.319  14.796 -0.2441 -0.0807  0.2050
31949W        W48023   8.145  11.708  10.776  0.2944 -0.0097  0.0953
31950W        W48024  14.935   5.903   2.258 -0.2925  0.2512  0.1026
31951W        W48025  10.668   5.402   1.912  0.0937  0.0121  0.3585
31952W        W48026   3.248   9.756   5.854  0.2664 -0.3201  0.0329
31953W        W48027  19.220   9.781  10.895 -0.0231 -0.1214  0.0173
31954W        W48028  14.877   8.436   5.051  0.1911 -0.1497 -0.1112
31955W        W48029   8.033   0.039   1.830 -0.1523  0.1604 -0.0455
31956W        W48030   4.245   2.393  13.908  0.0721  0.1197  0.0177
31957W        W48031   3.977   9.327   1.983 -0.0527 -0.1116 -0.0206
31958W        W48032   9.730  18.902  13.470  0.3581 -0.0147 -0.1226
31959W        W48033  17.018  13.550  10.347 -0.0708 -0.0076  0.2243
31960W        W48034   8.073  12.301   1.886  0.0893  0.4429  0.0009
31961W        W48035  15.052  12.458   1.648 -0.0544 -0.1638  0.3799
31962W        W48036   9.790   5.429   2.314 -0.1283 -0.1543 -0.1711
31963W        W48037   5.118   2.440   2.543  0.2198 -0.0389 -0.3660
31964W        W48038  12.838   5.384  10.788 -0.1190  0.1168 -0.1847
31965W        W48039  15.671  14.862   4.274 -0.0122  0.0516  0.4545
31966W        W48040   2.779  14.317   1.324 -0.1822 -0.1436 -0.0844
31967W        W48041   8.528   9.571  11.875  0.0083  0.1703 -0.0933
31968W        W48042  12.213   0.107   4.249 -0.0045  0.0480  0.2024
31969W        W48043  11.145  11.968   9.656  0.1315 -0.2417 -0.1698
31970W        W48044  18.019  16.367   0.307 -0.0378 -0.1253 -0.1407
31971W        W48045   4.224   0.679   0.227 -0.0254 -0.2709 -0.0799
31972W        W48046   1.379  10.822  13.890 -0.3035  0.0952  0.0175
31973W        W48047  18.325  10.255   0.303  0.1442 -0.1337 -0.0867
31974W        W48048  15.426   9.508  11.036 -0.4009 -0.1277  0.3087
31975W        W48049  18.442   8.679  11.691  0.0885  0.1433 -0.0192
31976W        W48050  14.162   3.054   3.778 -0.3969  0.5741 -0.2651
31977W        W48051  12.025  14.269   2.991  0.1007 -0.1426 -0.1070
31978W        W48052  13.567   2.222  13.299  0.0019  0.2652 -0.1140
31979W        W48053  13.404  17.237  14.870  0.0681 -0.0602  0.0596
31980W        W48054  17.522   0.216  11.650 -0.3452 -0.0116  0.0636
31981W        W48055  11.777   5.908  11.517 -0.1590 -0.2888 -0.0244
31982W        W48056   1.139   9.484   3.487 -0.0589  0.4330 -0.2016
31983W        W48057  13.551  10.228   0.909  0.2222 -0.0162 -0.0590
31984W        W48058  11.009  11.763   5.034  0.0730 -0.0791 -0.1545
31985W        W48059   6.734  12.556   1.112 -0.5921  0.1431 -0.0472
31986W        W48060   7.872   7.882   3.639  0.1999 -0.1161 -0.4464
31987W        W48061   5.982  12.304   2.000  0.0990 -0.0719 -0.0518
31988W        W48062   9.382  11.246  11.245  0.0120 -0.0460 -0.2260
31989W        W48063  10.936  16.120  13.482 -0.1863  0.0538  0.1762
31990W        W48064   9.208   0.451   2.087  0.0086  0.3012 -0.2932
31991W        W48065   5.742  14.908   3.723 -0.1218  0.0132 -0.3774
31992W        W48066  10.836  18.283  11.776  0.1947 -0.2710  0.3605
31993W        W48067   0.540   8.955  12.444 -0.2634 -0.0278  0.0410
31994W        W48068   3.491   9.875   0.781 -0.0577  0.2943 -0.0870
31995W        W48069   2.649   5.191  10.298 -0.1775  0.1183  0.2987
31996W        W48070  14.783  11.818   0.592  0.0923  0.2160 -0.1179
31997W        W48071   1.926   7.710   4.413  0.1061  0.1864 -0.2960
31998W        W48072  14.774  16.158  14.559  0.0796 -0.4031  0.0204
31999W        W48073   6.403   4.054   1.167  0.2217 -0.2095  0.2640
32000W        W48074   3.736   3.177   1.729  0.1598 -0.0019 -0.0930
32001W        W48075  17.721   4.695   4.480 -0.0823 -0.0659 -0.1060
32002W        W48076  18.416   0.340   0.676 -0.1291  0.1641  0.1247
32003W        W48077   7.525  12.252  12.599  0.1227  0.1601 -0.0361
32004W        W48078  11.530   4.582  14.002  0.0864 -0.1847  0.0283
32005W        W48079   1.486   7.020   4.804  0.0512  0.2358  0.4533
32006W        W48080  15.269  14.366   5.431  0.2549 -0.0184 -0.1077
32007W        W48081   3.723  17.919  13.654  0.3249  0.6158  0.2319
32008W        W48082  12.863  17.652   5.349  0.1358 -0.0114  0.0522
32009W        W48083  13.508   5.171   9.308 -0.2155 -0.0954  0.3954
32010W        W48084   3.662  18.759   2.803  0.0800 -0.2643  0.3848
32011W        W48085  15.278   2.801  12.073  0.2952 -0.2612  0.2917
32012W        W48086   8.801  15.203   1.983 -0.1517  0.1947 -0.1887
32013W        W48087   9.127   4.469   4.225  0.0891 -0.1112 -0.2061
32014W        W48088  12.210   1.073  14.801  0.1198 -0.1794  0.1246
32015W        W48089  16.519   5.895   2.175  0.0270  0.0624 -0.0858
32016W        W48090  18.710  10.316   1.237 -0.1931  0.2080 -0.1235
32017W        W48091   7.740   4.666   1.615  0.4051  0.2594 -0.1775
32018W        W48092  18.418   5.682  14.091  0.1492 -0.0647 -0.1204
32019W        W48093   5.162  13.056   3.878 -0.1742 -0.0699 -0.0300
32020W        W48094   8.435  12.548   4.040  0.5031 -0.3050 -0.2195
32021W        W48095  11.968  14.979  10.707  0.3080 -0.2309 -0.1883
32022W        W48096  17.057   9.633  12.917  0.0397  0.2782 -0.0703
32023W        W48097   1.975  12.420   3.506  0.0102 -0.5836  0.0074
32024W        W48098   9.761   4.331  13.652 -0.1285 -0.2723 -0.2358
32025W        W48099   4.545  10.891  11.504 -0.1536  0.1806  0.1984
32026W        W48100  16.371  18.120  13.984 -0.0161  0.2244  0.1259
32027W        W48101   8.606   1.500   2.690 -0.2601 -0.0615 -0.2935
32028W        W48102   2.622   6.195  13.146  0.6124 -0.0297 -0.2389
32029W        W48103  16.842   3.430   2.616  0.1197  0.2449  0.2146
32030W        W48104   2.326   6.854   5.009  0.2786 -0.0484 -0.1889
32031W        W48105   3.390  12.426   2.642 -0.3049 -0.0110 -0.0730
32032W        W48106  18.466   1.449  12.642  0.0911  0.0558 -0.0577
32033W        W48107   0.017   6.787   4.625  0.2411 -0.0688 -0.0236
32034W        W48108   1.158  14.147   3.331  0.1879 -0.0610 -0.0216
32035W        W48109  14.177   2.617   5.134 -0.0969  0.0260  0.2166
32036W        W48110   6.821  11.034   3.003  0.0112 -0.3060 -0.1602
32037W        W48111   1.776  10.068   5.394 -0.0619  0.4540  0.3010
32038W        W48112   4.476  12.300   3.859  0.0873  0.0403  0.0053
32039W        W48113   3.696  14.677   2.385 -0.0880  0.2564 -0.1459
32040W        W48114  11.112   5.395   0.140 -0.0040 -0.0449  0.1779
32041W        W48115   4.120   7.051  13.675  0.0423 -0.1422 -0.3015
32042W        W48116   2.704   4.275  11.241  0.2646  0.0605  0.0126
32043W        W48117  16.225  11.317   4.346 -0.2454 -0.0762  0.1188
32044W        W48118   3.372   9.208   4.546 -0.2645  0.0339  0.4556
32045W        W48119  17.622  16.619   4.016  0.1089  0.3087 -0.0236
32046W        W48120  11.472   6.908  11.666  0.2297 -0.0156 -0.1068
32047W        W48121  10.278  16.559  12.694  0.0786 -0.2054  0.0466
32048W        W48122  15.474   1.876  11.999  0.0235 -0.0112  0.0190
32049W        W48123   9.976  18.884  14.774 -0.3926 -0.4414 -0.1843
32050W        W48124   6.066   3.084  12.248  0.2888 -0.1430  0.0238
32051W        W48125  11.188   5.928   3.203  0.2368 -0.1807  0.1149
32052W        W48126  14.757  16.474   3.198 -0.2380 -0.0337 -0.0836
32053W        W48127  15.727  14.261  12.003 -0.3595 -0.0005  0.1559
32054W        W48128   9.042   8.826   0.535 -0.0899  0.4088 -0.1067
32055W        W48129   4.612   4.364   4.641 -0.2590 -0.6905  0.0127
32056W        W48130  15.929   3.289   1.373  0.0433 -0.3065 -0.0336
32057W        W48131  13.370   7.417  14.500  0.1615  0.0569  0.1267
32058W        W48132  12.784  17.822  11.137  0.0084  0.1678  0.2649
32059W        W48133  19.258  10.108  12.295  0.0083 -0.5217 -0.0375
32060W        W48134  14.692  14.410  11.320 -0.1121  0.0718 -0.1378
32061W        W48135   4.426  10.655   4.299  0.0472 -0.1474  0.1254
32062W        W48136   0.965   8.080   5.247 -0.0205  0.1109  0.1512
32063W        W48137  12.456   6.858  13.846  0.1337 -0.1553  0.1176
32064W        W48138  18.174  16.148  10.469 -0.0109  0.2584  0.1176
32065W        W48139  17.540   9.669  12.458 -0.0135 -0.2072  0.4510
32066W        W48140   9.365   6.248   4.135  0.0642  0.1001 -0.0014
32067W        W48141   2.679  18.223  13.872  0.1055 -0.1422  0.1251
32068W        W48142   4.459   9.098   4.950  0.1189 -0.1656 -0.1446
32069W        W48143  14.165   4.721  12.562 -0.2052 -0.0240 -0.2380
32070W        W48144   0.471  12.059  13.298  0.1548  0.1377 -0.0005
32071W        W48145  17.102  14.248   3.961  0.1964 -0.0063 -0.0234
32072W        W48146  13.956  14.768   2.073 -0.2103  0.0546 -0.0700
32073W        W48147  15.039   5.104   0.085 -0.1978  0.1614 -0.4451
32074W        W48148  14.705   1.288   1.978  0.0191 -0.1541 -0.2262
32075W        W48149   9.224   7.054   3.586  0.3632 -0.0834  0.0197
32076W        W48150   5.138   1.579  10.501  0.1110  0.0137  0.2318
32077W        W48151   9.800   9.828  13.038  0.2397 -0.1434  0.3046
32078W        W48152  12.764  13.586   3.887  0.0069 -0.3590 -0.0322
32079W        W48153  13.140   0.628  10.679 -0.1139  0.1743 -0.2334
32080W        W48154   0.638   7.690   2.475  0.1503  0.2270 -0.1604
32081W        W48155   6.266   9.801  11.785 -0.2027 -0.3900 -0.1069
32082W        W48156   2.184  14.349   3.436  0.0557 -0.2439  0.3557
32083W        W48157  12.448  13.784   1.357  0.2039  0.0883 -0.1682
32084W        W48158   7.609  15.725   9.251 -0.1164 -0.0093 -0.4143
32085W        W48159   2.313   3.759  13.530 -0.0349  0.2309 -0.0456
32086W        W48160   9.225  16.530  10.469 -0.1894 -0.2306 -0.1645
32087W        W48161  14.852   1.772   4.126  0.0711 -0.3908  0.0015
32088W        W48162  13.188   1.862  12.421 -0.0834 -0.1046  0.0103
32089W        W48163   6.478  17.785   5.126  0.1756  0.3327  0.2010
32090W        W48164  10.054   4.107  14.101  0.1289  0.0336  0.0832
32091W        W48165  13.901  15.908   1.781 -0.2051  0.2653 -0.1467
32092W        W48166   2.709   8.802   1.913 -0.0132  0.4377 -0.0943
32093W        W48167   0.760  14.047  12.196  0.1854 -0.2030 -0.3978
32094W        W48168  19.009  10.670   0.430 -0.2047  0.0214 -0.0791
32095W        W48169   0.486  17.190  14.039 -0.1387 -0.0140  0.0376
32096W        W48170  14.322   6.768   2.297  0.2122 -0.0098 -0.1487
32097W        W48171   5.619  18.073   0.060  0.0924  0.3405  0.4459
32098W        W48172   8.768   9.475   1.764 -0.1959  0.1816 -0.1193
32099W        W48173   2.117   7.915  10.046 -0.1063 -0.3572 -0.3966
32100W        W48174  14.499  15.751   2.172  0.1482 -0.5198 -0.2248
32101W        W48175  18.625   8.457   0.629  0.0747  0.0370  0.1896
32102W        W48176   0.925  13.320   4.776  0.0969  0.2785  0.3097
32103W        W48177  11.173   4.983  14.172  0.1917  0.1285  0.1708
32104W        W48178  11.668  12.475   5.298 -0.3285 -0.2355  0.4277
32105W        W48179  13.958   1.612   0.903  0.3162 -0.0466  0.2171
32106W        W48180   1.848   5.004  12.209 -0.0984  0.1311  0.2477
32107W        W48181   8.186  15.846  12.515  0.1491  0.0432 -0.0996
32108W        W48182  17.573   5.251   4.699 -0.1705 -0.0673  0.2137
32109W        W48183  11.744  13.855  14.122  0.3508  0.5010 -0.2105
32110W        W48184  14.159   2.043   9.428  0.0129  0.6867  0.0037
32111W        W48185  18.339  12.813   2.178 -0.0516  0.3046 -0.0094
32112W        W48186  13.503  11.394   1.689 -0.0331 -0.2388 -0.3274
32113W        W48187   3.864  14.445   0.634 -0.0662 -0.0142 -0.0076
32114W        W48188  16.117   7.185   2.002 -0.0068  0.4719 -0.0057
32115W        W48189   8.919   3.870  13.149  0.2036 -0.2059 -0.0601
32116W        W48190   0.114   4.618   5.859  0.1700  0.0877  0.3604
32117W        W48191  16.644  18.889  12.539 -0.1866  0.1223  0.0369
32118W        W48192  18.123   7.820  13.408  0.2660  0.1895 -0.1495
32119W        W48193   9.208   9.790  13.242  0.1481  0.0558 -0.0019
32120W        W48194  13.711  11.342   3.478  0.5225 -0.0200 -0.1232
32121W        W48195   6.976  10.291   1.701  0.0707  0.0983 -0.2413
32122W        W48196   4.464   0.941  12.884 -0.0635 -0.0377  0.5497
32123W        W48197  12.094   3.954  11.526  0.0654  0.1693  0.2643
32124W        W48198   5.754   2.260  10.834  0.4380  0.2682  0.3238
32125W        W48199  10.912   3.825   4.983  0.1631  0.0874 -0.3523
32126W        W48200   8.341   1.354   4.001 -0.2592 -0.1627  0.1970
32127W        W48201   2.267   1.726   1.162  0.0159  0.0750  0.1392
32128W        W48202   3.466  17.328  12.379 -0.3281  0.1224 -0.2912
32129W        W48203   0.430  16.934  11.455  0.2846  0.2189  0.0425
32130W        W48204  12.303  11.502   1.102 -0.1594 -0.0225 -0.1390
32131W        W48205  17.919  18.302  12.266 -0.1641 -0.1382 -0.0283
32132W        W48206   9.242   5.872   4.792 -0.1851  0.0234  0.1969
32133W        W48207   6.800   1.101   3.768 -0.2710 -0.1072  0.1081
32134W        W48208  14.553  10.991   5.005 -0.1516 -0.0768  0.1453
32135W        W48209   0.514   9.439  11.964 -0.0230  0.0335 -0.1476
32136W        W48210   6.599  18.758   2.038  0.0799 -0.4536 -0.1219
32137W        W48211   1.190   4.543   4.434  0.2533 -0.3016  0.3036
32138W        W48212  18.985   2.904  14.725 -0.2820  0.0035  0.1083
32139W        W48213   7.352  14.889  13.987 -0.0120  0.4391 -0.2767
32140W        W48214   8.630   5.111  10.087  0.1178 -0.0681 -0.0157
32141W        W48215  18.727  12.210  11.676  0.2504  0.0484 -0.2504
32142W        W48216   4.565   0.097  12.524 -0.0275  0.1428  0.0685
32143W        W48217  12.851   2.574   5.907  0.0216  0.3137  0.2220
32144W        W48218   4.649  13.406   0.575  0.2416  0.1200 -0.1131
32145W        W48219   9.109  11.562  14.322  0.0670 -0.0696 -0.2080
32146W        W48220   2.310  11.696  12.849 -0.2419 -0.0541 -0.1693
32147W        W48221  11.790   9.499  12.190 -0.1757  0.1304  0.0988
32148W        W48222   7.654   1.608   0.202  0.0676  0.0270 -0.2565
32149W        W48223   5.721   3.222   0.474 -0.1509  0.2211 -0.1839
32150W        W48224   8.642  15.651  11.594  0.0578 -0.2190  0.3404
32151W        W48225   9.708   8.253   9.846  0.0489  0.1382  0.0884
32152W        W48226   6.052  16.867  14.676  0.1936  0.1770 -0.1083
32153W        W48227   2.192   4.659  12.819 -0.3087  0.2448  0.1229
32154W        W48228   5.833  12.645   1.617  0.1071  0.0187  0.3375
32155W        W48229  17.277   7.166  13.447  0.2425 -0.1525 -0.1897
32156W        W48230  14.927  10.648  14.269  0.0745  0.2479 -0.1937
32157W        W48231   0.581  13.497  11.467 -0.0689 -0.1619 -0.0699
32158W        W48232   9.352   0.057   4.285  0.1330 -0.1742 -0.0244
32159W        W48233  16.207  19.197  11.328  0.2826 -0.2007  0.1026
32160W        W48234   8.817   0.698   2.402 -0.3181 -0.0171 -0.0242
32161W        W48235  15.447   7.093  13.592 -0.2972 -0.4023 -0.0105
32162W        W48236  18.130  15.533  12.708 -0.3455  0.2271  0.0530
32163W        W48237   1.396   0.663  11.638  0.0225  0.4602 -0.1620
32164W        W48238   2.244   9.727  12.663  0.0436  0.1529  0.0051
32165W        W48239  10.605  13.999  11.690 -0.0182 -0.0591  0.1085
32166W        W48240   3.364  13.965  12.177  0.1398  0.1164  0.2632
32167W        W48241  14.536   9.750   9.721 -0.2003  0.0099  0.0545
32168W        W48242   7.619  17.946  10.282 -0.2202 -0.0945 -0.0311
32169W        W48243   5.981  17.334  14.497 -0.0369  0.2352  0.0767
32170W        W48244  12.493  11.483   2.826  0.0983  0.2096 -0.0387
32171W        W48245  18.777  19.177  11.499  0.0437  0.0562 -0.0850
32172W        W48246   1.963   0.374  11.723  0.0391 -0.1207  0.1143
32173W        W48247   5.573  10.945   3.782  0.3193 -0.1418  0.2051
32174W        W48248  11.754   5.554   0.014  0.0071  0.1378 -0.0609
32175W        W48249   7.736   0.306  14.545  0.3864 -0.3504 -0.1671
32176W        W48250  14.814  17.876  13.204 -0.0133  0.1787  0.1391
32177W        W48251  12.948  16.600  11.687 -0.1332 -0.0477  0.1856
32178W        W48252  11.855   1.467  10.149 -0.1107 -0.2401 -0.3640
32179W        W48253   9.278  18.352  11.640  0.1689  0.0064  0.0916
32180W        W48254   5.853  11.295   1.524  0.4744 -0.3020 -0.0224
32181W        W48255  12.913   2.268  12.707 -0.1017 -0.0273  0.1953
32182W        W48256  11.467   7.442   3.189  0.3787  0.3294 -0.1734
32183W        W48257  18.520   3.135   3.301 -0.1941  0.0039  0.0972
32184W        W48258  16.854  18.731   3.724  0.2628  0.1398 -0.2320
32185W        W48259  17.795   7.368   3.844 -0.0602 -0.0965 -0.0603
32186W        W48260   6.103   4.908   4.912 -0.0391  0.2562 -0.4024
32187W        W48261   0.754   9.174  13.825 -0.0882 -0.1458 -0.0404
32188W        W48262   5.762   3.633   0.174  0.0934  0.0404  0.0532
32189W        W48263   9.359   5.324   5.510  0.0500  0.2523 -0.1518
32190W        W48264   1.614   0.809   4.662 -0.1585 -0.2006 -0.0238
32191W        W48265  14.577   7.499  12.009 -0.1463  0.1961  0.2832
32192W        W48266   2.968   2.366  10.638 -0.1242  0.0507  0.1396
32193W        W48267   5.985  11.098  10.720 -0.1712  0.1528  0.1813
32194W        W48268   2.220  18.533  12.896 -0.0209 -0.2874 -0.0043
32195W        W48269   7.212   5.657  14.852  0.1146 -0.1161 -0.0559
32196W        W48270   6.233   7.103   3.028  0.3334  0.2032  0.2970
32197W        W48271   1.454  17.447   0.464  0.0048  0.0066  0.0830
32198W        W48272   2.926  10.902  10.254 -0.2553 -0.0635 -0.0300
32199W        W48273  15.194   3.127   3.455  0.0720  0.0008  0.1209
32200W        W48274   2.235  19.313  13.393 -0.4021  0.0612 -0.0418
32201W        W48275   8.310  15.468   5.170  0.3878 -0.1351 -0.1772
32202W        W48276  13.427  16.990  12.770 -0.0519  0.0115 -0.1445
32203W        W48277   6.343   6.590  10.891  0.2371 -0.1846 -0.1745
32204W        W48278  16.360  11.152  11.992  0.0707  0.1061  0.2897
32205W        W48279  14.728  15.497   3.051  0.2539  0.0581 -0.0158
32206W        W48280   4.548  10.020   2.872 -0.2277  0.0126  0.0607
32207W        W48281   7.156   5.542  11.797 -0.1426 -0.0655 -0.3793
32208W        W48282   9.218   4.286  14.492 -0.0528 -0.0733  0.0723
32209W        W48283   1.779   7.758   0.395 -0.0693  0.1021  0.0273
32210W        W48284   0.629  12.522  14.686  0.0555  0.1533  0.0240
32211W        W48285  19.240   0.632  14.536  0.0352 -0.1504 -0.0420
32212W        W48286   1.524   6.877   2.903  0.1773  0.1596 -0.3039
32213W        W48287   8.385  11.916   0.507 -0.0591  0.0580  0.2300
32214W        W48288   3.170   5.785  10.025  0.0762  0.2203  0.3497
32215W        W48289   5.605  10.049  13.228  0.0607 -0.2694 -0.0396
32216W        W48290   0.472  10.030  11.787 -0.1445  0.0229 -0.1545
32217W        W48291  17.304   3.038  12.445 -0.1504 -0.4506 -0.2090
32218W        W48292   9.798   2.339  10.291  0.3369  0.4017  0.2613
32219W        W48293  17.343   0.599   3.414  0.0409 -0.2264  0.1106
32220W        W48294   3.754   4.361   0.705  0.0336 -0.2238  0.0272
32221W        W48295  10.949   9.018   2.483 -0.3970  0.1570  0.1929
32222W        W48296   7.161   7.939   5.185  0.4362  0.2546 -0.0313
32223W        W48297   3.179  12.026   2.854 -0.1283 -0.0185 -0.1047
32224W        W48298  12.481  16.266  10.511  0.3246 -0.3474 -0.0178
32225W        W48299  10.621  17.326  11.600  0.0396  0.2764  0.0619
32226W        W48300  11.961  18.799  12.342  0.0933 -0.2190 -0.1541
32227W        W48301   1.134   3.208  13.999  0.1289 -0.3458 -0.2863
32228W        W48302  16.697  10.699  11.883  0.2157  0.1804  0.2891
32229W        W48303   3.033  10.788  13.364  0.1754 -0.3086  0.1544
32230W        W48304   6.875  13.989  10.599  0.1258  0.1297 -0.2768
32231W        W48305  15.199   5.148   1.704 -0.0429 -0.0313 -0.2619
32232W        W48306   1.752  15.737  14.045  0.1789 -0.0875 -0.1093
32233W        W48307   7.715   3.164   4.732  0.2395 -0.2028 -0.0288
32234W        W48308  11.150  19.068   0.622  0.2762  0.1755  0.0682
32235W        W48309   8.325  11.021   2.706  0.4553  0.0438  0.1855
32236W        W48310  11.530   3.082   5.421  0.0745 -0.2232 -0.0358
32237W        W48311   0.386  15.389   3.132  0.0337  0.2182  0.2083
32238W        W48312   0.737  14.215   1.798 -0.2536 -0.1885 -0.0918
32239W        W48313   3.420   0.732   1.736  0.0256  0.0683 -0.1285
32240W        W48314   3.090   2.678  11.675  0.0603 -0.2309  0.0016
32241W        W48315   7.939   2.724   4.502 -0.0204  0.0177 -0.1620
32242W        W48316  13.086  17.612   2.516 -0.0309  0.2618  0.3191
32243W        W48317   9.476   1.811  12.321  0.2989  0.0555 -0.0650
32244W        W48318  14.667  13.922  13.345  0.0453 -0.2121 -0.2076
32245W        W48319   0.159  19.003   1.822  0.0497 -0.1352  0.0899
32246W        W48320  11.654  18.277   3.633  0.1700  0.1812  0.0838
32247W        W48321   4.585  18.071  11.459  0.0106 -0.3371  0.3966
32248W        W48322   4.636   0.325   2.784 -0.3021 -0.0399 -0.1250
32249W        W48323  10.261  16.878   1.574  0.2317  0.0002  0.3068
32250W        W48324   9.537  12.525   2.588 -0.2172 -0.0637  0.3401
32251W        W48325  16.980  11.482   6.447  0.1115 -0.1237 -0.0720
32252W        W48326   7.763  13.211   0.350 -0.3699 -0.0693 -0.1566
32253W        W48327  13.413  11.101   4.458  0.1519 -0.0260 -0.3030
32254W        W48328   6.915  15.679   4.439 -0.0935  0.0511 -0.1516
32255W        W48329  11.880  12.918  14.417  0.0431  0.1072  0.3134
32256W        W48330   6.860  15.523  11.280  0.0933 -0.1351  0.0292
32257W        W48331  10.835  11.220  13.500  0.0147 -0.0282  0.1092
32258W        W48332   3.176  14.964  12.550 -0.0689 -0.0844 -0.1941
32259W        W48333   1.848  17.596  13.999 -0.0519  0.1801  0.1591
32260W        W48334  17.128   7.089   5.127 -0.0027  0.1837 -0.1671
32261W        W48335  14.303   4.298  12.784  0.5169 -0.1159  0.0540
32262W        W48336  10.321  12.818  11.646 -0.1317 -0.0265 -0.1643
32263W        W48337   9.099  10.824   3.902 -0.3534 -0.1709  0.1774
32264W        W48338  13.826  18.034  14.602 -0.0786  0.0206  0.0161
32265W        W48339   5.374   0.731  14.495 -0.1454 -0.0809 -0.0224
32266W        W48340  12.929   9.900   9.750  0.1974  0.3829 -0.0081
32267W        W48341   6.836  17.126   2.579 -0.1734  0.0534  0.1487
32268W        W48342   9.389  13.920  11.192 -0.0754  0.2583  0.0970
32269W        W48343  12.498  18.016  11.508 -0.2170 -0.0156 -0.0011
32270W        W48344   4.833   0.428   3.566 -0.1023 -0.0237  0.0362
32271W        W48345  16.279   7.568  13.482 -0.1312  0.0466  0.0647
32272W        W48346  14.327   0.461   4.394  0.5086 -0.3096 -0.2844
32273W        W48347   3.901  19.005  13.370  0.1963 -0.0611 -0.0703
32274W        W48348   4.093   3.463   1.871 -0.2518  0.2349 -0.4986
32275W        W48349  13.495   6.180   5.217  0.1876 -0.1501 -0.0549
32276W        W48350   3.515   8.252   0.470 -0.2160 -0.2391  0.0600
32277W        W48351  11.137   8.833   0.172 -0.1653 -0.0384  0.0136
32278W        W48352  10.566   9.855  11.785 -0.0605 -0.3255 -0.3073
32279W        W48353  11.584  18.709   0.813 -0.0012  0.0669 -0.2462
32280W        W48354  13.517   5.077   4.819  0.0495  0.0454 -0.4673
32281W        W48355  12.498  11.669  13.303  0.0080 -0.2320 -0.2230
32282W        W48356  12.676  14.554   1.100 -0.0734 -0.1711  0.0560
32283W        W48357   0.168   1.229   3.036  0.1958  0.0408 -0.0179
32284W        W48358  15.590   6.431  12.216 -0.0771  0.2446 -0.0646
32285W        W48359   5.993   0.704   1.506  0.2923 -0.0198  0.0622
32286W        W48360   3.736  19.137   1.768  0.2973 -0.1015  0.1582
32287W        W48361  19.121  16.475  13.896 -0.0616  0.1425  0.0791
32288W        W48362  15.673   6.853   4.143 -0.1893 -0.0113 -0.2258
32289W        W48363  13.982  16.882   3.969 -0.0324  0.1511  0.2309
32290W        W48364   6.758   6.118  10.562 -0.1690 -0.1353  0.2391
32291W        W48365   8.570   8.617   2.348  0.0034 -0.1061 -0.0325
32292W        W48366   7.079   7.076   0.615  0.1861  0.0878 -0.1857
32293W        W48367  12.866  15.765  12.871  0.0758  0.5664  0.1864
32294W        W48368   9.174  12.824   1.031 -0.0713 -0.0470  0.1898
32295W        W48369   9.471  14.898  11.689 -0.0157 -0.2498  0.0574
32296W        W48370   8.113  16.295  11.298 -0.0618 -0.3059 -0.0108
32297W        W48371   0.323   5.381   2.074  0.0461 -0.0828  0.1434
32298W        W48372   0.751  17.876   4.992 -0.1003 -0.1504  0.0869
32299W        W48373   0.530  13.005   5.474  0.0804 -0.1287  0.3289
32300W        W48374  18.884   6.265   4.727  0.0398  0.2640  0.2658
32301W        W48375   5.793  15.979   4.200  0.1307 -0.2383 -0.1618
32302W        W48376  18.887   9.217  13.824  0.0614  0.1750 -0.0744
32303W        W48377  11.585  14.563  10.427  0.2549 -0.0198 -0.1001
32304W        W48378  13.545   8.993   4.576  0.0348  0.0300 -0.0391
32305W        W48379   0.743   0.557  14.231 -0.0361 -0.0551 -0.0395
32306W        W48380  10.790  14.046  13.029  0.2065  0.1918 -0.0383
32307W        W48381  13.955   2.596   2.026 -0.0830 -0.3368  0.0331
32308W        W48382   4.744  12.799  13.849 -0.1208 -0.0122  0.0911
32309W        W48383   3.485   9.648   4.709 -0.3365  0.1748  0.0654
32310W        W48384   0.517   3.410   3.629 -0.3218 -0.4217 -0.1605
32311W        W48385   0.655  13.767   1.630  0.2128  0.0802 -0.1985
32312W        W48386   7.671   4.447   2.405 -0.0619  0.0229 -0.1467
32313W        W48387  13.710  15.543   4.851  0.0374 -0.1592  0.1662
32314W        W48388  15.840  18.717  13.055 -0.0573  0.0246 -0.2418
32315W        W48389  18.895   0.320   3.912  0.2262  0.0144 -0.1842
32316W        W48390   6.169  11.152   5.518 -0.2892  0.2560  0.2356
32317W        W48391   7.986   5.301  11.582 -0.1135  0.1585 -0.3602
32318W        W48392   8.081   1.243   2.405  0.2364  0.0505 -0.0720
32319W        W48393   5.886  18.658   0.919  0.0499 -0.0134 -0.1474
32320W        W48394  16.368  18.314  11.841 -0.0708  0.0962 -0.1778
32321W        W48395   5.385   8.535  13.788 -0.0070  0.1178 -0.0291
32322W        W48396  13.848   3.951   5.172  0.0188  0.0750 -0.2993
32323W        W48397  11.683   8.370   2.401  0.2643  0.3011  0.1135
32324W        W48398  19.293  18.637   3.524  0.0961 -0.0653  0.0859
32325W        W48399   0.692   4.114  12.896  0.0668  0.0477  0.1347
32326W        W48400   0.681  18.446   2.240 -0.0246  0.3111  0.2832
32327W        W48401   4.068   6.972  14.856  0.0163 -0.0043  0.1417
32328W        W48402   9.376  10.184  12.156  0.1140 -0.1715 -0.1089
32329W        W48403  12.243  19.268   0.498  0.0224 -0.0035  0.2209
32330W        W48404  11.272  15.693  11.693  0.0455  0.0270 -0.3353
32331W        W48405  12.700  13.926   3.500 -0.0942 -0.3411  0.2827
32332W        W48406  14.414   1.456  14.860 -0.0406 -0.0814 -0.1319
32333W        W48407  14.211  15.604   3.264 -0.0010 -0.3631  0.0351
32334W        W48408   2.727   0.244   0.831 -0.2707 -0.1157 -0.3931
32335W        W48409  16.093  11.806   6.003 -0.0487  0.0356  0.0060
32336W        W48410   5.607  15.317  11.367 -0.0853  0.1949  0.1473
32337W        W48411  17.668  11.465  12.767  0.0275  0.1377  0.3117
32338W        W48412   5.183  14.667   1.517  0.3817  0.5741  0.0866
32339W        W48413   0.143   2.659   2.531  0.2973  0.0398 -0.0265
32340W        W48414  19.071  12.841   5.413 -0.0737 -0.0144 -0.1343
32341W        W48415   0.416   4.961  13.073  0.0002  0.0873  0.0380
32342W        W48416  14.536   8.813   0.096 -0.6336  0.0757 -0.4192
32343W        W48417  13.718   8.647   3.073 -0.1258 -0.1566  0.2933
32344W        W48418   5.389  15.948  11.856  0.1582 -0.0046 -0.1165
32345W        W48419   1.212  17.055   0.246 -0.0663  0.1216  0.5349
32346W        W48420  19.062   8.750   0.846  0.1427  0.2984 -0.0162
32347W        W48421   9.430  11.370   2.037  0.2552 -0.2736  0.2374
32348W        W48422  10.091  11.730  13.228  0.0039 -0.2460 -0.1045
32349W        W48423  17.147  10.895  13.874 -0.0762  0.4242  0.3108
32350W        W48424  14.767  11.326   4.715  0.0361 -0.3554 -0.0355
32351W        W48425  16.371   2.767   0.981  0.2064  0.3517 -0.2891
32352W        W48426  18.428  17.655   1.410 -0.1469  0.0523 -0.0044
32353W        W48427   2.016  10.054   0.763 -0.1394 -0.0027 -0.2182
32354W        W48428   7.034   3.962   5.255 -0.2586 -0.2569 -0.0118
32355W        W48429  11.782   0.890   4.191 -0.3717  0.2516  0.0949
32356W        W48430  10.996   8.541  14.704 -0.2868 -0.0275  0.2651
32357W        W48431   3.019   0.269   3.744  0.1052 -0.1999  0.0958
32358W        W48432  15.303  16.760   4.023  0.3302  0.2256 -0.0189
32359W        W48433   5.110  16.265  14.110  0.0967  0.3354 -0.1744
32360W        W48434   7.761  12.173   0.991 -0.1990 -0.0764 -0.6282
32361W        W48435  12.879   5.123  11.344 -0.2479  0.0151  0.1258
32362W        W48436   4.699   8.462  12.079 -0.1092  0.1157 -0.0220
32363W        W48437  10.522  10.751   3.608  0.1783  0.0714  0.2210
32364W        W48438  13.700  18.061   0.089  0.0193  0.3434  0.2049
32365W        W48439   4.435  16.374   1.353 -0.0777 -0.5007 -0.3055
32366W        W48440  12.341  16.097  12.980  0.1191  0.1400 -0.1179
32367W        W48441  13.151  13.887  12.638  0.0211 -0.4188 -0.1159
32368W        W48442   7.690  12.958   0.807  0.3459 -0.0598  0.0675
32369W        W48443  12.003  10.824  11.728 -0.1119 -0.3181  0.1646
32370W        W48444  10.772   5.359   1.093  0.1884 -0.0766 -0.2301
32371W        W48445   7.755   8.149  13.017  0.3968 -0.1885 -0.0602
32372W        W48446  19.308   0.546   4.093 -0.4642  0.2045  0.2051
32373W        W48447  17.740   4.173  11.473 -0.2143  0.0968 -0.0649
32374W        W48448  17.296   6.562  12.755 -0.0348 -0.1480  0.2832
32375W        W48449   6.989  17.712  13.733 -0.0391  0.0670  0.2410
32376W        W48450   2.006  17.843  14.418 -0.1751 -0.0945  0.0879
32377W        W48451   7.537   0.492   2.868  0.0870 -0.2899  0.0590
32378W        W48452   2.403   4.522   3.860  0.0025  0.4165  0.3927
32379W        W48453   8.721   0.256   9.907  0.1007  0.0855 -0.1873
32380W        W48454   5.614  17.639   2.980 -0.1159  0.1106  0.2390
32381W        W48455   6.150  10.028  14.749 -0.0614 -0.1207 -0.1464
32382W        W48456   6.999   0.811   2.138  0.1530  0.0639  0.0022
32383W        W48457   7.857  17.673   2.429 -0.1995  0.1466 -0.3012
32384W        W48458  18.766  17.273   4.024  0.0795 -0.2983 -0.2713
32385W        W48459  10.134  17.992  14.445  0.4797 -0.3523  0.1824
32386W        W48460   6.217   9.572  12.342  0.0753 -0.2511  0.0990
32387W        W48461   4.276  11.282   1.140 -0.0996 -0.0400  0.1479
32388W        W48462  11.493   1.955  13.928  0.2948  0.1204  0.1362
32389W        W48463   1.007  12.136   1.278 -0.4361 -0.0335  0.4705
32390W        W48464  12.858   8.744   3.449  0.0196 -0.0233  0.0769
32391ION     NA48465  18.632   7.821   0.864 -0.1900  0.1317  0.1401
32392ION     NA48466   4.157   6.445   5.881 -0.1839 -0.0917 -0.0215
32393ION     NA48467   0.389  14.864   5.455  0.0827 -0.0518 -0.5171
32394ION     NA48468  15.148   2.085   5.514  0.1604  0.5825 -0.1503
32395ION     NA48469  15.106   3.466   5.693  0.0073  0.0886 -0.3789
32396ION     NA48470   7.213  17.442   4.727  0.3647 -0.0554  0.0318
32397ION     NA48471  13.498  18.725   9.529 -0.1185 -0.1237  0.1672
32398ION     NA48472   2.043   0.044   9.250 -0.1191 -0.3276 -0.1369
32399ION     NA48473  10.404   0.708   9.283  0.3258 -0.3854  0.0256
32400ION     NA48474   7.338   1.120   9.096 -0.2432 -0.0855 -0.1085
32401ION     NA48475  12.864  17.101   9.459  0.1052  0.1506 -0.2540
32402ION     NA48476   4.379   5.148   5.138 -0.1723  0.0138 -0.0685
32403ION     NA48477  10.436  16.168  11.899  0.2134 -0.0416 -0.2167
32404ION     NA48478  17.828  18.824   5.477  0.2391  0.0856 -0.0776
32405ION     NA48479   6.841   9.119   0.069  0.0459  0.0748 -0.1567
32406ION     NA48480   4.799   3.063   9.297 -0.3974  0.2360  0.3899
32407ION     NA48481   0.428  12.787  10.711  0.0583  0.1190 -0.0371
32408ION     NA48482  16.675  14.909   9.912 -0.1503 -0.0743 -0.1800
32409ION     NA48483   8.996   8.989   2.126  0.3999  0.0221  0.0657
32410ION     NA48484  19.187  14.695   9.556  0.0355 -0.1554 -0.1783
32411ION     NA48485   5.731  16.208   4.842 -0.3217  0.4567 -0.0084
32412ION     NA48486  14.274   5.815   9.901  0.0757  0.2992 -0.0733
32413ION     NA48487   7.369  10.298   9.681 -0.2227  0.1096  0.3089
32414ION     NA48488   5.770  18.778   9.261 -0.0697 -0.0692  0.0121
32415ION     NA48489  12.295  10.474   9.333 -0.1878  0.0931  0.0177
32416ION     NA48490  15.538   5.808   9.829 -0.1090  0.0672 -0.0570
32417ION     NA48491   1.045  11.925  11.995  0.1780 -0.0416  0.0316
32418ION     NA48492   5.600   6.476  12.736 -0.3577  0.0453  0.0116
32419ION     NA48493  13.698  16.262   4.944 -0.2978  0.4053  0.0798
32420ION     NA48494  18.483   6.792  14.284  0.5444  0.0624 -0.0107
32421ION     NA48495  16.822   8.412   1.951  0.1165  0.0592  0.0235
32422ION     NA48496  17.334  12.092  10.184  0.1988 -0.1140 -0.2223
32423ION     NA48497  12.447   1.468   9.493 -0.2212  0.1005  0.0703
32424ION     NA48498  11.684   1.544   2.733  0.1614 -0.1383 -0.1586
32425ION     NA48499  10.920   5.093  11.592 -0.2941  0.3095  0.2292
32426ION     NA48500   9.327  10.391   1.020 -0.0489 -0.3550  0.0563
32427ION     NA48501  18.928   5.608   9.842 -0.1431  0.0157 -0.0584
32428ION     NA48502  14.021  13.004  10.672 -0.0592 -0.4266  0.4906
32429ION     NA48503  12.305  16.349   9.163 -0.0487 -0.1286 -0.0086
32430ION     NA48504   9.941   0.832   9.155 -0.4186  0.2482  0.2308
32431ION     NA48505   3.739  10.369   9.993 -0.0820 -0.0339 -0.3141
32432ION     NA48506   1.974  13.488  10.955  0.1784 -0.1631 -0.2115
32433ION     NA48507  10.685   8.378   9.709  0.0116 -0.4041  0.1564
32434ION     NA48508  19.276   3.541  11.848  0.2300  0.0271  0.0263
32435ION     NA48509  19.201   9.213   5.798  0.2570 -0.4651  0.0706
32436ION     NA48510  19.149   8.908  10.430 -0.2105 -0.1346 -0.0336
32437ION     NA48511  18.180   6.393   4.724 -0.2547 -0.3162 -0.2246
32438ION     NA48512  17.677  15.760   5.156  0.0915 -0.1344  0.1179
32439ION     NA48513   6.031   5.046   3.611 -0.1695 -0.1848 -0.1736
32440ION     NA48514   2.051  19.200   5.127  0.0679 -0.0459  0.1589
32441ION     NA48515  13.502  13.880   9.739 -0.0391 -0.2271 -0.2285
32442ION     NA48516  15.215  10.341  10.066 -0.0595  0.1048  0.1005
32443ION     NA48517  11.648  17.590   9.042  0.1619 -0.1094 -0.0756
32444ION     NA48518   5.632   9.735  10.017  0.4198  0.2604 -0.6739
32445ION     NA48519   3.586  19.202  12.927 -0.4599 -0.4255  0.0507
32446ION     NA48520  12.435   1.221  14.381 -0.0142 -0.1918  0.0813
32447ION     NA48521  13.437   5.340   9.753  0.1820 -0.2252 -0.0912
32448ION     NA48522   3.957   7.678  10.086 -0.0967 -0.2109 -0.0601
32449ION     NA48523   7.553  12.692   9.428 -0.0449 -0.0217 -0.1141
32450ION     NA48524  17.360   6.364   9.775  0.3171  0.0686 -0.2452
32451ION     NA48525   7.884  15.786   9.682  0.1141 -0.2035  0.1733
32452ION     NA48526  13.406   3.273  10.104  0.1291  0.0013 -0.3875
32453ION     NA48527  12.537  13.867   5.537  0.2540  0.2231  0.3190
32454ION     NA48528  14.741   8.036  14.751  0.0914 -0.0094  0.3081
32455ION     NA48529   5.660   4.011  10.815  0.0142 -0.3271 -0.2353
32456ION     NA48530   7.498  14.895   9.415  0.1611 -0.1738 -0.0563
32457ION     NA48531   7.656   8.939   9.309  0.0530 -0.0780  0.1348
32458ION     NA48532   1.752  15.662   5.121  0.1416  0.1105 -0.0812
32459ION     NA48533  13.630   0.925   5.181  0.3932 -0.0096  0.0937
32460ION     NA48534   2.866   7.242   5.843 -0.3128 -0.2867  0.1760
32461ION     NA48535  15.073  11.261   9.853 -0.0756 -0.0996  0.4825
32462ION     NA48536   9.702  18.260  14.282  0.0073 -0.0185  0.1271
32463ION     NA48537   2.475  10.156   6.056  0.1520 -0.1726  0.0510
32464ION     NA48538  11.970   6.551   5.502 -0.1517  0.3840 -0.2012
32465ION     NA48539   0.741   4.435  10.128 -0.0659  0.3958  0.0706
32466ION     NA48540   5.585  19.056   4.350  0.0090 -0.0629  0.0139
32467ION     NA48541   5.072   1.399   3.078  0.0073 -0.3080 -0.5110
32468ION     NA48542   7.437   5.854   0.916  0.1415  0.1705 -0.0151
32469ION     NA48543  16.379   3.305   1.854  0.0564  0.0812  0.1872
32470ION     NA48544  16.232  18.083  10.236  0.0642 -0.2254 -0.1379
32471ION     NA48545  11.783   3.366  14.163  0.1424  0.2125 -0.2787
32472ION     NA48546  16.196   7.071  11.239 -0.3842  0.1078 -0.3168
32473ION     NA48547  14.705  16.811   9.813  0.0829 -0.1124 -0.0933
32474ION     NA48548  18.387   3.617   0.833  0.1162 -0.3609  0.1405
32475ION     NA48549   6.825   9.552   9.440 -0.1117  0.0312 -0.1376
32476ION     NA48550  15.469   1.435   1.413  0.0267 -0.1038 -0.2394
32477ION     NA48551   3.273  19.323   9.213 -0.1592 -0.1601 -0.0967
32478ION     NA48552   7.413   1.933  11.240  0.1203  0.2949 -0.1781
32479ION     NA48553  18.884  18.187   9.691 -0.4777 -0.0883  0.0993
32480ION     NA48554   3.116  15.941  12.953 -0.0046  0.3469 -0.1920
32481ION     NA48555   1.471  14.406   9.610  0.1628 -0.2470  0.0260
32482ION     NA48556   4.375   1.488   9.224  0.1911 -0.0542 -0.2865
32483ION     NA48557   9.800  16.266   9.100 -0.0905  0.1401  0.3349
32484ION     NA48558   3.916   3.725   4.637  0.2851  0.1585 -0.0242
32485ION     NA48559  14.081  12.556   9.719  0.3663 -0.1919 -0.1093
32486ION     NA48560  12.580   6.794   9.784  0.3276  0.1558  0.3352
32487ION     NA48561   8.323  11.286   9.773  0.1081 -0.0744 -0.2512
32488ION     NA48562  10.436  14.995   9.153 -0.1315 -0.0743 -0.0405
32489ION     NA48563  12.941  12.215   4.434 -0.0310  0.0387  0.3612
32490ION     NA48564  14.719   1.298   2.973  0.0270  0.3524 -0.0052
32491ION     NA48565  11.849  16.718   0.717 -0.0434 -0.3270  0.1870
32492ION     NA48566   5.225   2.018   8.979  0.5728  0.3205  0.1786
32493ION     NA48567   5.185  13.727  12.751 -0.3046  0.1476  0.1384
32494ION     NA48568   6.415  17.908   1.303 -0.1680 -0.2121 -0.0230
32495ION     NA48569   2.115   4.247   5.178 -0.0527 -0.0538  0.0927
32496ION     NA48570   8.873  15.085   9.154 -0.3882 -0.0544 -0.0555
32497ION     NA48571  15.429   6.812   9.823  0.1378  0.1023  0.2919
32498ION     NA48572  18.262  18.734   4.474  0.3504 -0.1918 -0.0642
32499ION     NA48573  12.634  11.847  10.123 -0.0246  0.0344 -0.1517
32500ION     NA48574   6.664  11.816   5.104 -0.0636  0.0409  0.3507
32501ION     NA48575   2.680   6.494  10.026  0.1005  0.0167 -0.1918
32502ION     NA48576  18.659   3.332  10.065 -0.0711 -0.1378 -0.0017
32503ION     NA48577  17.783  10.276   0.337 -0.0451 -0.0648 -0.2667
32504ION     NA48578   6.353   6.074   9.570 -0.2622 -0.1092 -0.3738
32505ION     NA48579  10.232   9.690  14.277 -0.1348  0.0031  0.0086
32506ION     NA48580   1.391   5.046   9.775  0.1880 -0.0676  0.0750
32507ION     NA48581   8.351   7.224  10.343 -0.3659 -0.0854 -0.0563
32508ION     NA48582   9.299  17.507  10.555  0.1920  0.0039  0.2530
32509ION     NA48583   8.649   4.629   9.941 -0.0258 -0.1174 -0.2978
32510ION     NA48584   4.837   8.772   5.283  0.1192 -0.1417  0.1264
32511ION     NA48585   7.417  15.556  11.637  0.2490  0.1090  0.2498
32512ION     NA48586   2.654   9.681  10.017  0.4731  0.1799 -0.4169
32513ION     NA48587   4.905   7.411   9.865 -0.3014  0.0350 -0.0954
32514ION     NA48588  18.127  10.067   3.980 -0.2955  0.0184  0.1041
32515ION     NA48589  10.381  12.776   2.507 -0.2056  0.0904 -0.1455
32516ION     NA48590   6.815  16.564   5.040  0.1244 -0.0663 -0.2493
32517ION     NA48591  12.974  16.849  11.123 -0.1081 -0.0047 -0.0009
32518ION     NA48592  14.717   8.276   5.732  0.1981  0.0897 -0.0441
32519ION     NA48593  16.084   1.753  10.255  0.4549  0.0349  0.1583
32520ION     NA48594   4.811   2.914  11.750 -0.0141 -0.0934 -0.0057
32521ION     NA48595  12.973  10.855   9.856  0.2142 -0.0365  0.4195
32522ION     NA48596   1.273  13.483   9.747 -0.0118  0.0397 -0.0789
32523ION     NA48597   3.947  15.801   9.227  0.2333  0.0776  0.0837
32524ION     NA48598  11.795  11.051  10.976  0.0806  0.1236  0.0225
32525ION     NA48599   3.820  16.439  10.883  0.1921 -0.0338 -0.1287
32526ION     NA48600   7.118   0.058   9.228 -0.0825  0.1158  0.0775
32527ION     NA48601   3.645  12.204  12.426  0.1968 -0.0813 -0.1900
32528ION     NA48602   0.985   4.387   2.547 -0.0733  0.0720 -0.4856
32529ION     NA48603   7.097   1.601   5.068  0.1024  0.0187 -0.0304
32530ION     NA48604   0.525   5.840  12.778  0.0546  0.1731 -0.1833
32531ION     NA48605   8.260  16.407   2.801  0.5063  0.0140  0.0771
32532ION     NA48606  17.986   9.198   4.471 -0.2302 -0.2431 -0.1937
32533ION     NA48607  19.249  16.665   5.495 -0.0282 -0.1145 -0.1858
32534ION     NA48608   1.704   4.647  12.580  0.1160  0.2385  0.0439
32535ION     NA48609   9.169   4.660   5.061  0.2408  0.2995 -0.1642
32536ION     NA48610  16.955  15.688  10.361 -0.3797 -0.1061 -0.2457
32537ION     NA48611  13.225   2.645   1.357  0.1561 -0.1344 -0.1737
32538ION     NA48612   2.913   7.598  10.198 -0.1571 -0.2731 -0.1064
32539ION     NA48613   6.180   1.648   8.954 -0.3457 -0.0326 -0.2836
32540ION     NA48614  10.545  12.951  11.107  0.2647  0.0093 -0.0234
32541ION     NA48615   1.749  17.613   9.746 -0.1195  0.0507 -0.0243
32542ION     NA48616   3.450  13.230   9.637 -0.2487 -0.4790  0.0937
32543ION     NA48617  12.225  18.808  11.100  0.2385 -0.4184  0.1856
32544ION     NA48618  16.562   7.511   4.766 -0.0258 -0.0453  0.1370
32545ION     NA48619   4.747  16.406   9.313  0.0029  0.2654 -0.2143
32546ION     NA48620  10.515  18.288   3.092 -0.0578  0.2529 -0.2900
32547ION     NA48621   1.242   5.776   9.743  0.0237  0.2188  0.2674
32548ION     NA48622   2.560  13.847   9.437 -0.0668  0.3558  0.0321
32549ION     NA48623   2.770  12.140   3.748  0.2186  0.0059  0.1954
32550ION     NA48624   5.816   1.280   2.557  0.1914 -0.0942 -0.5449
32551ION     NA48625   1.870  15.832   9.836 -0.0864  0.3649  0.5790
32552ION     NA48626   1.828   5.539  12.421 -0.0370  0.3697 -0.3920
32553ION     NA48627   1.582   2.617  12.851 -0.1222 -0.2318 -0.0489
32554ION     NA48628  15.021   5.508   9.908 -0.0186 -0.1168 -0.0073
32555ION     NA48629  11.519  18.561   9.202 -0.1154  0.3524 -0.2986
32556ION     NA48630   8.778   0.312   9.341  0.0542  0.1829 -0.2245
32557ION     NA48631  16.426  16.383   5.243  0.1455 -0.1951  0.2417
32558ION     NA48632   5.155  12.112  10.042  0.0029 -0.2670 -0.0424
32559ION     NA48633   4.194   0.305   9.026 -0.1438  0.1189 -0.1536
32560ION     NA48634   3.874   4.796   9.782 -0.0568  0.3467 -0.4145
32561ION     NA48635  12.523  19.031   9.679 -0.3731 -0.1467 -0.1699
32562ION     NA48636   5.919  16.973   9.280 -0.0644  0.2842 -0.2936
32563ION     NA48637   9.334   2.223   3.105 -0.1759 -0.0660  0.0190
32564ION     NA48638  14.506  17.740   9.520  0.2248 -0.0822  0.2073
32565ION     NA48639   6.801  12.621   4.561  0.5717  0.0125  0.1280
32566ION     NA48640  14.573  12.401  12.642 -0.0785  0.0927  0.1607
32567ION     NA48641  15.344   9.990   1.217  0.1984  0.0963 -0.3661
32568ION     NA48642  14.407  15.881   2.683 -0.0212 -0.0497  0.1678
32569ION     NA48643   3.675   0.741   9.302 -0.5604  0.2089  0.0696
32570ION     NA48644   1.959   3.226   0.993  0.2487  0.2910  0.2884
32571ION     NA48645   7.678  16.125   1.339  0.1370  0.0476 -0.1870
32572ION     NA48646  16.723   6.203   0.487  0.1120  0.0349 -0.1091
32573ION     NA48647   3.633   2.510   9.797 -0.1869  0.0112 -0.4328
32574ION     NA48648   4.756  17.970   9.176 -0.0173 -0.2358 -0.0574
32575ION     NA48649  13.011   2.353   9.822 -0.3170  0.1075  0.1810
32576ION     NA48650   9.912   2.625   2.312 -0.2842 -0.1176  0.3374
32577ION     NA48651   9.422  18.380   5.005  0.2956  0.2331  0.3462
32578ION     NA48652  12.049   1.423   9.103 -0.2646  0.0199  0.0420
32579ION     NA48653  18.857  17.253   9.988  0.0034 -0.5679 -0.0112
32580ION     NA48654   3.205   2.085   2.141 -0.2004  0.1369  0.3100
32581ION     NA48655  15.120   5.607  11.276 -0.3873  0.0281  0.4219
32582ION     NA48656  19.331   5.022  12.656 -0.0565 -0.0527  0.0781
32583ION     NA48657   8.587   7.867   2.322  0.0795  0.1815  0.1408
32584ION     NA48658  14.581   6.419   4.980 -0.0749  0.1800  0.3484
32585ION     NA48659   8.902   2.552   2.645  0.2815 -0.1078  0.0997
32586ION     NA48660   5.582  14.966   4.997  0.0228 -0.1317  0.1599
32587ION     NA48661  17.199  18.195   9.722 -0.2699  0.0509 -0.3555
32588ION     NA48662  10.585  15.666   3.530 -0.0061  0.0979  0.0158
32589ION     NA48663   9.146  15.020  13.071 -0.1422 -0.0553  0.0396
32590ION     NA48664   4.368   2.302   8.989 -0.5060 -0.0150 -0.1352
32591ION     NA48665  13.143  12.659   9.619  0.0516 -0.1218  0.0937
32592ION     NA48666   1.780   1.711   9.231 -0.1788  0.1925  0.0678
32593ION     NA48667   0.749  10.906  10.144 -0.2882 -0.2698  0.1211
32594ION     NA48668  13.404   5.744   5.515  0.0327  0.0483  0.1896
32595ION     NA48669   8.354   3.314  11.411 -0.1516 -0.1351 -0.2937
32596ION     NA48670  19.065   3.380   5.406 -0.0086  0.0662  0.1735
32597ION     NA48671   3.889  17.413   9.374  0.1798  0.3896 -0.2575
32598ION     NA48672   9.621  15.462   8.911 -0.0887  0.0560  0.0452
32599ION     NA48673  15.519  10.788  10.697  0.4409  0.1399 -0.2736
32600ION     NA48674  10.636   1.022   2.684 -0.0910  0.1894  0.3042
32601ION     NA48675   2.426  18.382   3.371 -0.2185 -0.0692  0.2340
32602ION     NA48676  14.175   3.686   5.998  0.0016 -0.0651  0.0245
32603ION     NA48677   9.840   5.688   9.709 -0.0672 -0.1900 -0.1162
32604ION     NA48678   1.619   2.569   9.298  0.4490  0.2141  0.2130
32605ION     NA48679  17.754   3.083   5.064 -0.1763  0.3493  0.0656
32606ION     NA48680   5.291   0.178   9.420 -0.0934  0.2360 -0.1084
32607ION     NA48681   9.614   4.876   9.396 -0.0902  0.3279 -0.0960
32608ION     NA48682   4.748   9.423   1.393  0.0546 -0.3614 -0.0074
32609ION     NA48683   0.756  15.009   9.584  0.1527  0.0296 -0.0009
32610ION     NA48684   0.104  15.593   9.656  0.0142  0.4407 -0.3001
32611ION     NA48685  11.554  10.172  13.105 -0.0006 -0.0727 -0.1892
32612ION     NA48686  18.906   0.194   0.580 -0.0853 -0.1272  0.0294
32613ION     NA48687  10.177  17.518   8.866 -0.2880 -0.2822  0.0980
32614ION     NA48688   4.253  11.032   9.692  0.3898 -0.1071  0.1640
32615ION     NA48689  17.293   5.811   5.611 -0.1417  0.3493 -0.0244
32616ION     NA48690  14.827  15.896   9.927 -0.2627  0.1796  0.3554
32617ION     NA48691  14.334   3.456   9.587  0.5131 -0.2496 -0.0392
32618ION     NA48692  17.924  18.056  11.203  0.1674  0.4262  0.2665
32619ION     NA48693   9.007  16.884   9.266 -0.1961 -0.0844 -0.1400
32620ION     NA48694  17.978   0.367   9.751  0.3336  0.0591  0.0239
32621ION     NA48695   7.204  17.839  12.113  0.1672  0.0251  0.0168
32622ION     NA48696   6.679   9.956  12.149  0.2646 -0.0546 -0.0120
32623ION     NA48697   3.815   3.807   9.568 -0.4453 -0.3013  0.1829
32624ION     NA48698   7.606  12.036   2.045  0.4726 -0.2621  0.0354
32625ION     NA48699   3.258  17.577   9.523  0.1741  0.4226 -0.0866
32626ION     NA48700  11.107  17.133   9.040  0.2118  0.0614 -0.2742
32627ION     NA48701   3.625  18.964  12.018  0.1507 -0.0087 -0.0754
32628ION     NA48702  16.720   8.453  10.134 -0.0346 -0.5081 -0.0458
32629ION     NA48703   1.182  17.738   9.898 -0.1573 -0.0912 -0.0746
32630ION     NA48704  19.064   3.362  11.105  0.4283 -0.0881  0.2460
32631ION     NA48705   5.752  12.955   9.566  0.3940 -0.0346 -0.1934
32632ION     NA48706   9.279  15.622   2.894 -0.1855  0.1790  0.0300
32633ION     NA48707   8.588   8.198   0.602  0.1355  0.1469 -0.0432
32634ION     NA48708   5.759   2.752   4.913  0.1112  0.1193  0.0270
32635ION     NA48709   9.643   9.562   9.476  0.2373  0.1910  0.2102
32636ION     NA48710   2.768   2.864   9.307  0.0003  0.1105  0.1747
32637ION     NA48711   4.512   3.944  10.893 -0.0657 -0.0822  0.0828
32638ION     NA48712  17.591  14.562   9.937  0.0595 -0.0295 -0.1140
32639ION     NA48713  12.126   5.695  13.371  0.1183 -0.1441  0.0448
32640ION     NA48714  14.303  10.384   9.662  0.1467  0.0550  0.0291
32641ION     NA48715   9.961   3.000   9.288  0.0297  0.0574  0.0002
32642ION     NA48716   1.563   8.232  10.304  0.0129 -0.0565 -0.1795
32643ION     NA48717  19.222  11.253  10.068 -0.1402  0.0031  0.2227
32644ION     NA48718   2.002  11.107   6.116 -0.3378  0.1442  0.0183
32645ION     NA48719  14.233  11.637  10.046 -0.0100  0.1613 -0.0033
32646ION     NA48720  14.689   7.464   9.786  0.0253 -0.2064 -0.2648
32647ION     NA48721  10.090   2.427  12.472 -0.1791 -0.0098 -0.2633
32648ION     NA48722  14.311  15.043   9.910  0.3898 -0.2249  0.2218
32649ION     NA48723  15.692  11.852   5.714 -0.1445  0.2208 -0.0734
32650ION     NA48724  12.027   3.410   3.075  0.0340  0.1158  0.1845
32651ION     NA48725  14.232   4.797   9.943 -0.0865  0.0606  0.0905
32652ION     NA48726   3.749  12.581  11.360 -0.2159  0.0882  0.1841
32653ION     NA48727   9.646  16.655   8.836 -0.0653  0.2569 -0.4444
32654ION     NA48728  10.483  11.440   9.101 -0.0875 -0.1332 -0.0450
32655ION     NA48729   5.860  16.570   2.033 -0.1414 -0.1143  0.0084
32656ION     NA48730  12.358  11.335   2.336 -0.1610 -0.2240 -0.1975
32657ION     NA48731   5.859  18.300  12.769 -0.0771 -0.2884 -0.0224
32658ION     NA48732   8.921  17.811   9.586 -0.3644  0.0529 -0.1523
32659ION     NA48733   8.140   2.715  13.911 -0.0026 -0.0349 -0.0852
32660ION     NA48734  15.448  15.202  12.042 -0.2120 -0.3225 -0.2197
32661ION     NA48735   0.582   3.687   4.908 -0.3140 -0.0798 -0.2517
32662ION     NA48736  13.732   4.098  10.020 -0.0269  0.1966 -0.2132
32663ION     NA48737  17.516   7.454   4.530  0.0571  0.4294  0.1195
32664ION     NA48738   8.121   3.302   9.509 -0.0024  0.0270 -0.3127
32665ION     NA48739   2.462  15.645   9.170  0.1228 -0.3574 -0.1769
32666ION     NA48740  12.172   5.660  14.761 -0.0085 -0.0512 -0.1042
32667ION     NA48741  17.870   3.687  14.645 -0.0643 -0.3581 -0.0831
32668ION     NA48742  16.652  17.416   9.907 -0.0505  0.0101 -0.4770
32669ION     NA48743  18.817  11.896  10.279  0.2386 -0.1302  0.0388
32670ION     NA48744   8.723  14.229   9.193 -0.3682  0.2842  0.2774
32671ION     NA48745   3.011  16.915   9.616  0.0872  0.2723  0.0916
32672ION     NA48746   2.418   3.765   9.526 -0.2498 -0.1885  0.0325
32673ION     NA48747   9.260  13.687   9.168 -0.1976  0.2605  0.0879
32674ION     NA48748  18.838  17.706   2.745  0.1502 -0.1539  0.0599
32675ION     NA48749  15.837  17.560   5.815 -0.1219 -0.1866  0.0025
32676ION     NA48750  18.936   2.562  14.358 -0.2081  0.2345  0.1323
32677ION     NA48751  14.179   6.651   9.722 -0.2620 -0.1732 -0.1640
32678ION     NA48752   9.826  17.187   2.581 -0.0727 -0.0690 -0.0262
32679ION     NA48753  11.482   9.002  12.949 -0.2531 -0.3745 -0.1171
32680ION     NA48754   4.321   5.462  10.024 -0.1458 -0.1750 -0.0550
32681ION     NA48755   5.810   0.702   5.064  0.1310 -0.1296 -0.1424
32682ION     NA48756  13.076  13.988  10.056  0.2497 -0.2474 -0.0401
32683ION     NA48757  11.820   9.835   9.391 -0.0328 -0.1086  0.0076
32684ION     NA48758   3.844  10.674   3.930  0.0265  0.0871  0.1388
32685ION     NA48759  18.830  15.032   9.527 -0.0842 -0.0404 -0.0388
32686ION     NA48760   6.262  11.942   3.385  0.2048 -0.1548  0.2497
32687ION     NA48761   9.125  18.840   9.395  0.2005 -0.2348  0.0643
32688ION     NA48762   6.308   3.680   9.473  0.0013  0.0080  0.1377
32689ION     NA48763  11.330  12.820   9.733 -0.1554 -0.0501  0.1722
32690ION     NA48764  10.011   1.712   9.549 -0.5241  0.2734 -0.1640
32691ION     NA48765  10.115   9.544   9.468 -0.0216  0.0471 -0.4636
32692ION     NA48766  14.543  10.039  12.521  0.0324 -0.0927  0.1056
32693ION     NA48767  10.809  19.187  10.883 -0.0282 -0.1734 -0.3428
32694ION     NA48768   6.118  14.983   0.105  0.1526  0.1828  0.0173
32695ION     NA48769   7.823   4.407   1.219  0.1284  0.4049 -0.2938
32696ION     NA48770   8.521   6.661  13.890 -0.1217  0.0912  0.0896
32697ION     NA48771  14.128  16.594   5.055  0.0273  0.5467 -0.1583
32698ION     NA48772   3.180  15.685   3.809 -0.2053  0.0405 -0.0610
32699ION     NA48773   3.140   8.823   4.800  0.0304  0.4260 -0.5193
32700ION     NA48774  14.259   3.887  13.090  0.1187  0.1515 -0.1444
32701ION     NA48775  15.685  14.769   9.980  0.3263  0.0482 -0.0143
32702ION     NA48776   8.122   5.318   5.361  0.1836 -0.0180  0.3382
32703ION     NA48777  18.587   4.769   1.515  0.0275  0.1572 -0.0496
32704ION     NA48778   7.274   7.709   9.705  0.1652 -0.1293 -0.0193
32705ION     NA48779   1.815   6.120  10.537 -0.0871 -0.1486  0.0061
32706ION     NA48780  15.945  11.025  14.676  0.1075  0.0809 -0.0441
32707ION     NA48781  17.605   4.452   9.912 -0.1240  0.0833  0.0660
32708ION     NA48782  12.375  16.573   1.571  0.2747  0.1624  0.3117
32709ION     NA48783   0.201   4.842   0.699 -0.0475 -0.0347  0.0682
32710ION     NA48784  15.983   7.464  10.272 -0.2525 -0.1252  0.1335
32711ION     NA48785   3.825   0.158   4.834  0.1073 -0.1879 -0.2664
32712ION     NA48786   0.130   4.011   9.713 -0.2203 -0.4076  0.0900
32713ION     NA48787  15.824   4.940   9.832  0.3115  0.2302  0.0837
32714ION     NA48788  16.243  13.189   0.999 -0.1998 -0.4402 -0.1766
32715ION     NA48789  10.120  10.825   3.305  0.1214  0.0135  0.1963
32716ION     NA48790  15.804   1.622  13.976 -0.0801 -0.1211 -0.0575
32717ION     NA48791  12.005  11.104  12.537  0.1395  0.0316  0.0697
32718ION     NA48792  13.521   7.627  12.334  0.0999 -0.1526 -0.1054
32719ION     NA48793   6.658  18.093  12.207 -0.1155 -0.1387 -0.1103
32720ION     NA48794  12.474  16.748   2.456  0.1753  0.0862  0.3376
32721ION     NA48795  17.766   8.532  10.301 -0.3116 -0.3060 -0.1044
32722ION     NA48796  16.687  16.454  11.756  0.0643 -0.1251  0.1014
32723ION     NA48797   5.862  12.004   9.562  0.2719  0.0826  0.1969
32724ION     NA48798  11.433  17.885   4.332 -0.0173 -0.3692  0.2405
32725ION     NA48799   1.021   4.054   1.717  0.0678  0.0121 -0.0654
32726ION     NA48800   6.032  17.996   9.290 -0.0509  0.1552  0.2110
32727ION     NA48801   8.904  19.059  13.889 -0.0514 -0.0410  0.0424
32728ION     NA48802   0.735   2.633   9.441  0.2417 -0.1408  0.1084
32729ION     NA48803  17.210   8.580  14.807  0.0645  0.1642 -0.2094
32730ION     NA48804  11.902  13.397  14.594  0.0399  0.0590  0.0059
32731ION     NA48805  18.487   3.919   9.688 -0.1159  0.1572  0.1718
32732ION     NA48806   2.865  18.745   2.111 -0.1647 -0.0900  0.1642
32733ION     NA48807   2.437   8.212  10.508  0.2318 -0.0987  0.1879
32734ION     NA48808   7.198  15.700   4.867 -0.0317  0.2944 -0.1591
32735ION     NA48809  12.019   7.331   9.999 -0.0059  0.0306  0.1637
32736ION     NA48810  12.027  14.813   9.217  0.5086  0.0131  0.2366
32737ION     NA48811  12.834   6.475   0.063 -0.0379 -0.0332 -0.0355
32738ION     NA48812   8.124   1.420   0.388  0.2163  0.0777  0.2103
32739ION     NA48813   6.151   0.126   9.189 -0.1022 -0.1729  0.3748
32740ION     NA48814   4.435  17.849  12.856 -0.1407 -0.2636 -0.1170
32741ION     NA48815   1.477  12.812  10.350 -0.0818 -0.0956 -0.1801
32742ION     NA48816  16.835  18.781  10.154 -0.0368 -0.1102 -0.0428
32743ION     NA48817   7.309  15.212   4.716  0.2550  0.0135  0.3462
32744ION     NA48818  16.716  12.812  10.038  0.2155 -0.4241 -0.3016
32745ION     NA48819   9.020   0.034   4.766 -0.1652  0.1044  0.1092
32746ION     NA48820  17.967  13.577   9.866 -0.0946 -0.2441  0.0995
32747ION     NA48821   8.230   7.018   1.827 -0.0737  0.2235  0.1532
32748ION     NA48822  15.378  13.215  11.208  0.0054 -0.0430  0.1789
32749ION     NA48823   0.516  11.628   5.603 -0.5214 -0.2155  0.3153
32750ION     NA48824  11.391  10.738   3.721  0.0430  0.0153  0.1119
32751ION     NA48825  17.198  19.277   5.840  0.0629  0.0771  0.0340
32752ION     NA48826  11.244   8.909   3.309  0.2503  0.2261  0.1097
32753ION     NA48827   3.821   8.193   0.912  0.2490  0.1897 -0.0124
32754ION     NA48828  11.393   2.075   9.079 -0.0360 -0.2165  0.1435
32755ION     NA48829  10.980  19.323   3.949 -0.1118 -0.0367  0.0983
32756ION     NA48830   9.598  14.616   9.140  0.3361  0.0567 -0.1823
32757ION     NA48831   0.332  13.708   9.886 -0.0975 -0.2279 -0.3306
32758ION     NA48832  16.552   1.452  12.959  0.1489 -0.0235  0.0638
32759ION     NA48833  11.071   4.437   9.539 -0.2820  0.3336 -0.4314
32760ION     NA48834  16.153   5.240   0.039  0.0384 -0.2852  0.2582
32761ION     NA48835   5.022  18.302   9.472  0.2829  0.1247 -0.2057
32762ION     NA48836   8.792   3.327   5.051 -0.3461 -0.0322 -0.2199
32763ION     NA48837  15.205  14.947  10.741 -0.1871  0.0521  0.1323
32764ION     NA48838  18.966   4.705   9.599  0.1378 -0.1572  0.4515
32765ION     NA48839  18.423  16.745   2.768  0.2336 -0.0883 -0.0001
32766ION     NA48840  17.406  11.347  10.356 -0.1314 -0.0160 -0.0167
32767ION     NA48841  11.216  10.865   2.689  0.0024  0.2618  0.3165
32768ION     NA48842  10.870  13.524   9.189 -0.1137  0.0565 -0.0513
32769ION     NA48843  14.360  13.490   5.558 -0.0705  0.0532  0.0352
32770ION     NA48844  10.294  19.025   2.493  0.0852  0.1205 -0.1794
32771ION     NA48845   5.783   1.010   9.276  0.1317 -0.1101  0.3772
32772ION     NA48846  17.226  13.041   9.957  0.2501  0.4067  0.0028
32773ION     NA48847   8.168  10.379   9.355 -0.3036  0.1295  0.0907
32774ION     NA48848  18.600   1.535   9.950  0.0510  0.0668  0.0406
32775ION     NA48849   7.575   2.328   9.572 -0.0098  0.1811 -0.0823
32776ION     NA48850   6.327  13.873  13.725 -0.1048  0.0526 -0.1751
32777ION     NA48851  18.190  18.911   5.878 -0.1317 -0.3574  0.0505
32778ION     NA48852  10.697   4.827   4.192  0.0569 -0.0030  0.0148
32779ION     NA48853  15.917   2.576  13.332  0.2112 -0.0117  0.0684
32780ION     NA48854  14.402  11.340   2.371 -0.0814 -0.0928  0.0770
32781ION     NA48855   0.076   7.451  14.827 -0.1474  0.0021  0.0959
32782ION     NA48856  17.447  17.273   9.682  0.2448 -0.1379 -0.1000
32783ION     NA48857   7.201   6.087   9.794  0.5575 -0.0179 -0.3109
32784ION     NA48858   1.015  19.051  12.145 -0.1531 -0.1583 -0.2097
32785ION     NA48859  17.849   9.073  10.160 -0.1127 -0.1603 -0.1023
32786ION     NA48860  16.013   8.819   1.667  0.2179 -0.2374  0.0427
32787ION     NA48861  18.276  12.189   5.458  0.1659  0.0354  0.3279
32788ION     NA48862  13.056   0.772  11.607 -0.0612  0.1795  0.4206
32789ION     NA48863  16.193   6.569  10.485  0.1852  0.3519 -0.0659
32790ION     NA48864  18.855  13.196   9.964  0.3840  0.0536  0.2543
32791ION     NA48865  18.218  15.627  12.069 -0.0573  0.2148  0.1023
32792ION     NA48866   0.172  10.078   6.254  0.1391 -0.1803  0.2353
32793ION     NA48867   3.553   0.475   1.111 -0.0850 -0.1751 -0.1536
32794ION     NA48868  15.104  14.644  14.177 -0.2504 -0.0467 -0.1415
32795ION     NA48869   6.634  13.564   9.720 -0.1996  0.2814 -0.0196
32796ION     NA48870  15.156   8.611   9.980  0.0529 -0.0604 -0.3275
32797ION     NA48871   3.215   9.777   9.997  0.0665  0.0163  0.1638
32798ION     NA48872   6.193  16.889  13.017 -0.0671 -0.1139 -0.2585
32799ION     NA48873  16.389  13.106  14.294  0.0628 -0.3691 -0.0523
32800ION     NA48874   9.440   6.598   9.922  0.2397 -0.3239  0.1290
32801ION     NA48875  18.932  19.284   9.987  0.2935 -0.4838  0.4068
32802ION     NA48876   1.605  11.914  10.016 -0.2221  0.2946 -0.1707
32803ION     NA48877  15.636  16.783   5.362  0.0706  0.0171 -0.2123
32804ION     NA48878  12.566  17.817  13.150 -0.0050  0.0644 -0.1426
32805ION     NA48879  14.584   3.017  11.346 -0.0278 -0.0940 -0.1726
32806ION     NA48880   2.479   3.737  12.647  0.0616 -0.0739 -0.1064
32807ION     NA48881  16.053   3.458   9.949 -0.2697  0.1560 -0.1376
32808ION     NA48882   8.567  18.677   9.418  0.2834  0.0548 -0.1039
32809ION     NA48883   5.446  10.668   9.739  0.1670 -0.1133  0.4339
32810ION     NA48884  13.641   1.791   0.434 -0.2347 -0.0385 -0.1060
32811ION     NA48885  17.592  11.447   5.234 -0.0683 -0.0408  0.2448
32812ION     NA48886   2.659  12.142   2.867  0.3209  0.0074  0.0962
32813ION     NA48887   4.931  12.895  10.568  0.1495  0.3921  0.0869
32814ION     NA48888   1.781   3.937  11.369  0.0072 -0.2042  0.0172
32815ION     NA48889   3.026   5.263   9.931  0.4118 -0.1415 -0.0630
32816ION     NA48890   2.055   8.518   5.349  0.1742 -0.3082 -0.0050
32817ION     NA48891   8.411  12.500   4.806 -0.1455 -0.1541 -0.1772
32818ION     NA48892  10.322   6.433  13.217  0.2129 -0.0047  0.1277
32819ION     NA48893   3.378   5.089  12.810 -0.2204 -0.3317 -0.0851
32820ION     NA48894   7.318  11.247  10.519 -0.1719 -0.1582 -0.0937
32821ION     NA48895  14.790   5.463   1.906 -0.3197 -0.0439  0.1697
32822ION     NA48896  16.907   0.437  15.000  0.0234 -0.1684  0.4116
32823ION     NA48897  16.663   9.339   2.870 -0.0534 -0.2744  0.1571
32824ION     NA48898   4.782  18.126   4.675 -0.4121 -0.2025 -0.2455
32825ION     NA48899  15.563   0.569   5.850 -0.1603 -0.1217  0.1559
32826ION     NA48900  17.041   0.405  10.737  0.0561 -0.0411  0.0128
32827ION     NA48901   9.754  10.508   9.469  0.0419  0.1197  0.0037
32828ION     NA48902   7.148  11.251   9.366 -0.0651  0.1180  0.0657
32829ION     NA48903   7.827  12.510   0.622  0.0481  0.0491 -0.2189
32830ION     NA48904  16.423   1.708  14.984 -0.0500  0.3704  0.0040
32831ION     NA48905  10.995  16.110  12.643  0.3254 -0.1637  0.1619
32832ION     NA48906   5.971  18.160   4.824 -0.0753 -0.1381  0.0459
32833ION     NA48907   7.311  19.201   5.022 -0.1245 -0.1931  0.4197
32834ION     NA48908  18.541  15.704   9.648  0.2028 -0.0330 -0.0469
32835ION     NA48909   4.331   6.365   9.735 -0.1464 -0.1539  0.0791
32836ION     NA48910   6.686  14.540   9.388  0.0948 -0.3467  0.1074
32837ION     NA48911   2.499   0.190   9.061  0.0394  0.0042 -0.2561
32838ION     NA48912   4.668   1.663  14.685  0.2169  0.5076 -0.0541
32839ION     NA48913  11.785   2.749   9.435  0.1555  0.3302 -0.2677
32840ION     NA48914   8.072   5.836   9.928 -0.0622  0.2077  0.1503
32841ION     NA48915   3.255   2.265  12.331  0.5287 -0.0496 -0.2353
32842ION     NA48916   8.051  16.555   9.068 -0.0393  0.0168 -0.2745
32843ION     NA48917   4.788  15.574   9.733  0.0153 -0.0619  0.1365
32844ION     NA48918  17.684  18.821   9.780 -0.1062 -0.2669  0.2111
32845ION     NA48919   5.384   8.338   9.814  0.0075 -0.2988  0.2701
32846ION     NA48920   8.266  17.641   4.679 -0.1966 -0.0207  0.1091
32847ION     NA48921  12.663   4.878   9.712  0.0331  0.0312  0.0738
32848ION     NA48922   4.020  15.623   4.837 -0.1447 -0.3325  0.1888
32849ION     NA48923  12.907   4.014   9.727 -0.1849  0.2018 -0.0865
32850ION     NA48924   3.192  13.825  10.216 -0.0430 -0.2244  0.2245
32851ION     NA48925  18.684  15.473  11.487 -0.2981  0.0045  0.1288
32852ION     NA48926   7.795  13.773   9.010 -0.0292 -0.0826 -0.1579
32853ION     NA48927   9.897  12.058   9.094  0.1383 -0.1334  0.1237
32854ION     NA48928   0.187  17.797   5.132 -0.1658 -0.0465  0.3664
32855ION     NA48929   8.340   9.037   9.474 -0.1668  0.4069  0.3229
32856ION     NA48930  15.732   2.060   9.948  0.5323 -0.0799  0.2357
32857ION     NA48931  14.867   2.103   9.987  0.2716 -0.2120 -0.2560
32858ION     NA48932   4.749   8.149  10.327 -0.3307  0.1234 -0.2722
32859ION     NA48933   4.986   9.079   9.953  0.1323 -0.0441  0.1431
32860ION     NA48934   2.716  16.527   5.401  0.1510  0.1816 -0.0554
32861ION     NA48935   9.349  14.086  10.451  0.0937 -0.0234  0.0048
32862ION     NA48936   7.477   4.159  14.116 -0.2598 -0.0927 -0.0208
32863ION     NA48937   8.714   0.197  14.773  0.4396  0.1108  0.0684
32864ION     NA48938  18.144  17.953   9.626  0.5183 -0.2489 -0.2498
32865ION     NA48939  10.371  12.795   9.211  0.1893  0.1423  0.0924
32866ION     NA48940  13.165   4.962  10.025 -0.0763 -0.0991 -0.1954
32867ION     NA48941  12.646  15.844  13.351  0.1691 -0.2292 -0.2866
32868ION     NA48942  14.073   4.236  13.992  0.1968  0.1130 -0.0641
32869ION     NA48943   8.152   9.060   4.433  0.0356  0.0160  0.1851
32870ION     NA48944   2.520  17.443   4.967 -0.2226 -0.2149  0.1771
32871ION     NA48945  15.544  17.549  11.780 -0.0853 -0.2285 -0.0653
32872ION     NA48946  12.627   8.597   9.852 -0.3405  0.0620 -0.0305
32873ION     NA48947  18.013  18.011   5.293  0.0086 -0.1598 -0.2306
32874ION     NA48948  14.921  18.171  10.102  0.1606  0.0542  0.0886
32875ION     NA48949   3.188  14.319   9.460 -0.2103 -0.1912  0.2770
32876ION     NA48950   9.250  10.783   4.719 -0.0509  0.0949 -0.0642
32877ION     NA48951   9.715  19.331   9.239  0.0473  0.2956  0.2168
32878ION     NA48952   2.676  13.851   1.397  0.2800 -0.2453 -0.1461
32879ION     NA48953  15.452  13.079  10.224 -0.0569  0.1658 -0.1360
32880ION     NA48954   2.024   2.502  13.830  0.2719  0.1735 -0.0561
32881ION     NA48955   3.545   1.950   9.105 -0.1220  0.1820  0.1123
32882ION     NA48956   9.305   6.268  14.681 -0.3482  0.0893 -0.1648
32883ION     NA48957  14.191  19.089   9.920  0.2743 -0.2277  0.0637
32884ION     NA48958  15.920  14.354   9.934  0.2819  0.3744  0.3753
32885ION     NA48959   6.549   0.852   8.971  0.3172 -0.1056  0.1565
32886ION     NA48960   9.371  17.992  12.018  0.2760  0.1726  0.0011
32887ION     NA48961   9.165  15.248   4.791 -0.0605 -0.1245 -0.2886
32888ION     NA48962  12.144   0.536   9.434 -0.3225  0.3510 -0.1128
32889ION     NA48963   5.338  11.884  13.783  0.1671  0.1147  0.1592
32890ION     NA48964  13.712   6.782   0.905  0.1245  0.1262 -0.2123
32891ION     NA48965   7.569  18.127   9.422  0.1740  0.0417  0.1650
32892ION     NA48966   6.547  15.288   9.499 -0.1726  0.2400 -0.0621
32893ION     NA48967   3.395   6.881  10.094  0.0084  0.0070  0.2656
32894ION     NA48968   2.031  11.652   0.227 -0.4394 -0.5184 -0.0053
32895ION     NA48969   0.565  17.491  11.000  0.0541 -0.0200 -0.3690
32896ION     NA48970   7.696   9.662   9.306 -0.1871  0.0148 -0.0650
32897ION     NA48971   3.688   9.905  11.290  0.2353  0.0779  0.0998
32898ION     NA48972  14.611  14.099   9.806  0.3562 -0.0721 -0.2526
32899ION     NA48973  14.818  18.964  14.197  0.0429 -0.2306 -0.1425
32900ION     NA48974  14.168   7.520   9.683  0.0583  0.2613 -0.0260
32901ION     NA48975   3.061   4.519   9.397 -0.0563  0.0793 -0.0439
32902ION     NA48976  10.357   6.846  11.721 -0.0293 -0.0299  0.2311
32903ION     NA48977   9.377   2.193  14.383  0.0651 -0.3728 -0.1164
32904ION     NA48978   5.056  17.278   9.338 -0.1631 -0.0417  0.0204
32905ION     NA48979   9.722   7.592   4.811 -0.0103 -0.1651  0.3123
32906ION     NA48980   9.344  16.631   3.696  0.2688 -0.0842 -0.4116
32907ION     NA48981  13.056  14.775   9.589 -0.0372  0.2762  0.0208
32908ION     NA48982   7.877   0.392   9.426  0.0855 -0.1613  0.1503
32909ION     NA48983  18.537   7.694  10.204  0.1855 -0.0785 -0.0185
32910ION     NA48984  11.452   2.168  11.223  0.0159  0.3015 -0.0693
32911ION     NA48985  17.699   3.675   9.841 -0.2359 -0.1959 -0.2560
32912ION     NA48986  17.872   1.093   5.450 -0.2372 -0.1330 -0.1834
32913ION     NA48987   2.199  15.006   5.260  0.0308 -0.1100  0.0880
32914ION     NA48988  12.597  16.021  10.929  0.1491 -0.4075 -0.2012
32915ION     NA48989   2.199   5.188   5.048 -0.1658 -0.1981  0.0650
32916ION     NA48990   6.453  13.415  12.190 -0.0935  0.4823 -0.2715
32917ION     NA48991   3.964  14.367   9.541 -0.2225  0.1787 -0.2211
32918ION     NA48992   4.631   3.981   9.544 -0.0151  0.2362  0.2281
32919ION     NA48993   6.005  13.871   5.282  0.0853  0.0510  0.0318
32920ION     NA48994   6.318  14.606   4.395 -0.2235 -0.0767 -0.1402
32921ION     NA48995  16.949   6.738   5.433  0.1848  0.1427 -0.0433
32922ION     NA48996  12.502  15.509   9.582  0.1219  0.1199 -0.0328
32923ION     NA48997  12.981   7.540  10.064 -0.0949 -0.2895 -0.0744
32924ION     NA48998   8.053   2.699   0.871 -0.0386 -0.2772 -0.1253
32925ION     NA48999  13.967   2.308   9.809  0.1120 -0.2220 -0.0733
32926ION     NA49000   3.148  16.854   4.519  0.0114  0.2221 -0.1469
32927ION     NA49001  10.734  12.277   9.013  0.3178  0.0865  0.1804
32928ION     NA49002  10.054  13.702   9.297 -0.0992 -0.1517  0.0821
32929ION     NA49003   7.874  11.859   9.276 -0.0359 -0.1261 -0.0061
32930ION     NA49004   9.427  12.123  11.146 -0.1376 -0.3128  0.1037
32931ION     NA49005  18.350   6.524   9.947 -0.2143 -0.0821 -0.0157
32932ION     NA49006   0.786   1.007   9.628  0.1092  0.2377  0.0283
32933ION     NA49007  16.883   3.728  10.105 -0.0618  0.0318 -0.5096
32934ION     NA49008   2.609  14.711   9.276  0.0333  0.3262 -0.3524
32935ION     NA49009   0.174   3.092   9.723  0.0451  0.0370 -0.2302
32936ION     NA49010   6.208   2.763  10.680  0.4159  0.0244  0.0981
32937ION     NA49011   2.864   9.066   2.528 -0.2488  0.0061  0.0578
32938ION     NA49012  16.545   2.660   9.792  0.0950 -0.1833 -0.1681
32939ION     NA49013  11.071   1.619   9.273  0.2432 -0.1164 -0.1707
32940ION     NA49014  18.094   1.791  12.445  0.0258 -0.2473 -0.1239
32941ION     NA49015   8.943  16.798   1.592 -0.0164 -0.3010  0.3183
32942ION     NA49016  13.812   2.970   5.609 -0.0732  0.3771  0.0236
32943ION     NA49017  10.022  17.566  13.227 -0.1319 -0.1188  0.3800
32944ION     NA49018  15.271   9.824   4.236 -0.0812 -0.1269  0.0231
32945ION     NA49019   8.420   2.343   9.425 -0.0663 -0.0291 -0.2692
32946ION     NA49020   4.724   4.473  13.738  0.0526 -0.3044  0.2228
32947ION     NA49021   6.889   8.244   9.265 -0.3458  0.0340 -0.2094
32948ION     NA49022  19.097   2.120  12.700 -0.2470  0.0396  0.1369
32949ION     NA49023   5.843   2.058   4.432  0.0111  0.3635 -0.2621
32950ION     NA49024   9.934  17.743   0.462  0.1093  0.0968 -0.4490
32951ION     NA49025  15.881  17.463   9.722  0.0222  0.1132 -0.3338
32952ION     NA49026  16.745   7.018  10.042  0.0844  0.1491  0.1820
32953ION     NA49027  18.550   2.171   4.575  0.1136 -0.2323  0.3225
32954ION     NA49028   8.440   1.050   9.072 -0.0237  0.0395  0.0902
32955ION     NA49029   4.503  14.665   5.368 -0.0522 -0.2842  0.0551
32956ION     NA49030   1.845   1.197   4.980 -0.1004  0.5837 -0.0924
32957ION     NA49031  11.304   7.783   9.555  0.0142 -0.4208  0.1197
32958ION     NA49032   2.653   0.684   8.947  0.1729 -0.3696  0.1877
32959ION     NA49033   3.519  16.574   9.414  0.0820 -0.4201 -0.0124
32960ION     NA49034  11.708  15.111   8.983  0.0916  0.2164 -0.0119
32961ION     NA49035   7.937   4.195   9.578 -0.2724 -0.4401 -0.0407
32962ION     NA49036  15.161   4.338   0.624 -0.0535 -0.2085  0.3547
32963ION     NA49037  18.070  16.377   9.929  0.3948  0.0155 -0.0705
32964ION     NA49038  11.128  10.850   9.260 -0.0472  0.3622 -0.0614
32965ION     NA49039   0.373   0.369  10.080 -0.0106 -0.0182 -0.2280
32966ION     NA49040  13.033  18.537   3.471 -0.4335 -0.0922 -0.1943
32967ION     NA49041  10.321  17.868   9.735 -0.0507 -0.1219 -0.2782
32968ION     NA49042   6.954   2.965   9.334 -0.2533 -0.5432  0.1651
32969ION     NA49043  12.417  18.027   9.221 -0.2588 -0.0026 -0.4007
32970ION     NA49044  15.003  16.375   0.819 -0.3704  0.1271  0.0551
32971ION     NA49045   2.203  17.930   9.537 -0.1740  0.1414 -0.1521
32972ION     NA49046  18.632  12.687   4.105  0.2200  0.3154  0.0559
32973ION     NA49047  18.066  13.385   5.088 -0.0455  0.2729  0.0255
32974ION     NA49048   6.443   5.524   5.467  0.1155  0.2205  0.0472
32975ION     NA49049   6.805   6.891   9.549  0.3216  0.0100 -0.0519
32976ION     NA49050   6.844  17.034   9.216 -0.1193  0.4366 -0.2105
32977ION     NA49051  11.227   0.618   9.282  0.1859  0.1274 -0.1929
32978ION     NA49052   4.121  12.505   9.672  0.1698 -0.4662  0.0592
32979ION     NA49053   1.662   8.736  10.242 -0.1393  0.0229  0.1786
32980ION     NA49054   1.452   6.491  10.214  0.1432 -0.0049  0.0846
32981ION     NA49055   1.643   4.247   9.575 -0.1240  0.1525 -0.2140
32982ION     NA49056   9.277  12.213   8.762  0.1461  0.1883 -0.2277
32983ION     NA49057   6.770   5.262   9.598  0.0688  0.0778 -0.0427
32984ION     NA49058   0.716  12.896  10.054 -0.0921 -0.0373  0.0760
32985ION     NA49059  11.798  12.214   1.949  0.0047 -0.0195 -0.0907
32986ION     NA49060  17.656  15.792   9.762  0.2975 -0.2354 -0.1940
32987ION     NA49061  17.327   8.796   1.134 -0.1215 -0.1827  0.2539
32988ION     NA49062   2.226   6.540   1.488  0.2731 -0.0313  0.0346
32989ION     NA49063   1.267   0.178   9.458  0.2786  0.0341 -0.2619
32990ION     NA49064   3.569   9.434   9.942 -0.1170 -0.0167 -0.1608
32991ION     NA49065  16.463  13.774  11.673 -0.3601  0.3525 -0.0337
32992ION     NA49066   0.295  18.823   9.993 -0.2066 -0.0456  0.3393
32993ION     NA49067   3.572   4.302  13.444  0.0749 -0.0836 -0.0941
32994ION     NA49068   8.261   0.992  12.496  0.0405  0.3248 -0.0516
32995ION     NA49069  12.365  11.397   9.421 -0.0811 -0.3998 -0.0260
32996ION     NA49070   6.277   6.486   5.646  0.1713 -0.1565  0.1524
32997ION     NA49071   2.651  10.558  10.017  0.0263  0.0286  0.0816
32998ION     NA49072   4.333   9.377   5.401  0.0142 -0.0726 -0.0200
32999ION     NA49073  13.885   9.387  10.155 -0.3076  0.0655  0.1403
33000ION     NA49074   0.961  10.881  12.998 -0.1110 -0.2208  0.1918
33001ION     NA49075  15.819   1.090  10.039 -0.2649 -0.1138 -0.0236
33002ION     NA49076  10.616   7.527  10.049  0.0026 -0.0008 -0.0103
33003ION     NA49077  10.923  17.964   8.895  0.1211  0.1108 -0.2002
33004ION     NA49078  14.872  19.175   9.993  0.1774 -0.3755  0.1107
33005ION     NA49079   9.550  10.822  14.116 -0.0679 -0.1920  0.1591
33006ION     NA49080  15.989  15.540   5.472 -0.2290  0.2467 -0.3207
33007ION     NA49081   4.745  12.657   9.901  0.0370 -0.0481  0.1068
33008ION     NA49082  14.325  14.861  10.406  0.1216 -0.0860  0.0750
33009ION     NA49083   5.235   6.620  10.046 -0.3452  0.1187 -0.3426
33010ION     NA49084  18.991   8.129   3.586 -0.2307  0.0205 -0.0024
33011ION     NA49085   2.779   7.902  10.793  0.1442 -0.2042 -0.0070
33012ION     NA49086   5.741  15.846   9.542  0.4854  0.2299  0.3233
33013ION     NA49087  16.909  15.722   5.072 -0.1305  0.0232  0.1181
33014ION     NA49088  13.395   7.186   9.616  0.0227 -0.0662 -0.1640
33015ION     NA49089   8.372   7.316   9.777 -0.1774  0.0552 -0.0462
33016ION     NA49090   2.985   7.065   3.547  0.1289  0.1663 -0.1919
33017ION     NA49091  14.690   9.248  10.403  0.0785 -0.6611  0.1453
33018ION     NA49092   8.194  10.749   2.262  0.2009 -0.1135  0.1489
33019ION     NA49093   1.002  10.475   5.929  0.0318 -0.2466  0.0875
33020ION     NA49094   9.273  19.299   3.425 -0.2835  0.1162  0.1374
33021ION     NA49095  11.795   1.158  13.378  0.0209 -0.0617  0.0017
33022ION     NA49096  16.072  16.491   9.803 -0.3773  0.2419 -0.1358
33023ION     NA49097  18.485   5.986   1.351  0.5154  0.0263  0.0092
33024ION     NA49098   0.888  13.604  13.446  0.0938  0.2375 -0.0396
33025ION     NA49099  15.052  12.543   9.843 -0.1213  0.0004 -0.0339
33026ION     NA49100  14.306  10.050   0.204 -0.1525 -0.1222 -0.0497
33027ION     NA49101   5.301  14.192  10.069 -0.2771 -0.2768  0.2282
33028ION     NA49102  11.625  13.808   9.209 -0.2847  0.0194 -0.3615
33029ION     NA49103   3.990  18.388   9.273  0.0227  0.1477  0.3129
33030ION     NA49104  11.641   1.129  11.978 -0.3117 -0.1438  0.0118
33031ION     NA49105   9.009  15.898   8.971  0.1551  0.2516  0.0754
33032ION     NA49106   3.132  15.989  13.979  0.0670  0.1960 -0.3940
33033ION     NA49107  13.171  14.882   5.291  0.0968 -0.1090 -0.0222
33034ION     NA49108   0.880   1.878   9.381  0.1477 -0.0444  0.1414
33035ION     NA49109   6.215  19.107  10.254  0.0343 -0.1093 -0.2082
33036ION     NA49110  10.528   2.480   9.060 -0.0211  0.0074 -0.2184
33037ION     NA49111  19.175   6.304   9.940  0.0339 -0.1617 -0.2556
33038ION     NA49112   6.927   9.105   9.790 -0.1989  0.2148 -0.0117
33039ION     NA49113  14.868   0.728   9.742  0.0032 -0.0840  0.1746
33040ION     NA49114  17.022  16.467   9.965  0.0943  0.0184 -0.1608
33041ION     NA49115  11.980   8.243  14.324 -0.2648  0.1565 -0.0323
33042ION     NA49116  15.776   3.172   4.364 -0.1636  0.1078  0.0790
33043ION     NA49117  14.302   8.549   9.838 -0.1537  0.0557  0.0306
33044ION     NA49118   1.993  13.576   9.995 -0.1052  0.3134 -0.0021
33045ION     NA49119   9.554  11.340   9.231  0.0771 -0.1794 -0.2167
33046ION     NA49120  15.883   7.692   2.412 -0.0859 -0.0656 -0.0397
33047ION     NA49121  13.735  17.423   9.608  0.0712 -0.4192  0.0843
33048ION     NA49122  16.106  10.464   9.948 -0.3763 -0.0811 -0.0442
33049ION     NA49123  18.163  11.927  10.594  0.1107 -0.0552  0.1768
33050ION     NA49124   0.804   3.602   9.774 -0.0761 -0.2141 -0.0684
33051ION     NA49125   7.599  14.063   0.115 -0.3645  0.0883 -0.0071
33052ION     NA49126  16.373   8.215  10.643  0.0160 -0.1013  0.3924
33053ION     NA49127  12.008   6.433   0.905 -0.0571 -0.1173 -0.0297
33054ION     NA49128  18.579  12.730  10.933  0.2916  0.0833 -0.0879
33055ION     NA49129   3.278   7.877   5.762 -0.1581 -0.2141 -0.0184
33056ION     NA49130  14.426   5.677   5.610 -0.0848  0.1496  0.0827
33057ION     NA49131   0.369   6.878  10.565 -0.2716 -0.0961  0.0768
33058ION     NA49132  10.517  19.289   8.973  0.1532  0.1115 -0.1828
33059ION     NA49133  12.949   5.386   3.769  0.1970  0.1547 -0.1041
33060ION     NA49134   2.351   8.298   5.815  0.0798 -0.2010  0.1415
33061ION     NA49135   0.082   2.060   9.692 -0.2339 -0.1837  0.0120
33062ION     NA49136   6.291  15.044   2.668 -0.1032  0.0954 -0.0456
33063ION     NA49137  13.761   0.787   3.745 -0.0536 -0.0537 -0.1911
33064ION     NA49138  13.274   8.997   9.864 -0.0325 -0.0162  0.2889
33065ION     NA49139   8.375  17.055   9.412 -0.2905  0.0760  0.0544
33066ION     NA49140   7.736   6.737   9.868 -0.1078  0.0179 -0.3865
33067ION     NA49141   3.780   3.330  14.549 -0.2136  0.0130  0.1604
33068ION     NA49142   2.600   2.545   1.314  0.1230  0.0850  0.1798
33069ION     NA49143   3.778   6.920   0.594  0.3248  0.3599 -0.1770
33070ION     NA49144   9.296   2.297   9.228 -0.0420 -0.2297 -0.2235
33071ION     NA49145   3.259  13.644   3.379  0.2263 -0.1504 -0.0779
33072ION     NA49146   6.053   9.031   9.614 -0.2028 -0.1121  0.2143
33073ION     NA49147   1.358   0.397  14.626  0.1904 -0.2869 -0.2587
33074ION     NA49148  13.440  18.330  14.756  0.0981  0.1423 -0.0552
33075ION     NA49149  17.508   2.725  10.019  0.1358 -0.3381  0.0355
33076ION     NA49150  14.754   7.606  11.360 -0.1307 -0.2183 -0.3278
33077ION     NA49151  12.122   3.531   9.366 -0.3176 -0.0617 -0.1083
33078ION     NA49152  17.970  12.144  12.158  0.0170  0.1060 -0.2513
33079ION     NA49153   2.225   7.311  10.233 -0.1101 -0.0656 -0.0056
33080ION     NA49154  11.377   7.972   3.562  0.0279 -0.1851  0.1850
33081ION     NA49155   0.415   3.053   2.301  0.2418 -0.1359  0.1215
33082ION     NA49156  17.268  14.201  14.733 -0.1869 -0.3017  0.2929
33083ION     NA49157  15.965  12.255   9.963  0.0968 -0.0781  0.0481
33084ION     NA49158   9.010   2.990   9.496  0.0119  0.0974 -0.1449
33085ION     NA49159   8.901   5.406   9.680 -0.0072  0.6286  0.3182
33086ION     NA49160   6.720  18.816  11.596 -0.3449  0.3778 -0.1661
33087ION     NA49161  16.287  10.961   5.405 -0.2752  0.1454  0.0288
33088ION     NA49162  11.117  14.598   9.213 -0.0971  0.0206 -0.1270
33089ION     NA49163  17.195   6.598  11.451 -0.4364 -0.1971  0.1502
33090ION     NA49164   3.441  15.099   9.312  0.0141 -0.3997 -0.0954
33091ION     NA49165   3.577   6.217   9.836  0.1264  0.0544 -0.0973
33092ION     NA49166   1.369  10.070   0.651  0.0218 -0.0500  0.0155
33093ION     NA49167  18.586  10.542  10.308  0.1470 -0.2548  0.0905
33094ION     NA49168   8.449   1.738  10.385 -0.1679 -0.2938  0.0349
33095ION     NA49169  10.485   1.592   9.239 -0.1181  0.0295  0.3029
33096ION     NA49170  10.570   6.660   9.787  0.1983 -0.2099  0.0942
33097ION     NA49171  10.510   5.114   9.588 -0.2213 -0.0042  0.1437
33098ION     NA49172   0.512  18.610  12.675 -0.0702  0.0137  0.1233
33099ION     NA49173   9.737   5.216   0.319  0.1423 -0.2562 -0.1211
33100ION     NA49174  15.828  16.565  13.869 -0.2142  0.0360 -0.1743
33101ION     NA49175   7.632  12.070   2.835 -0.1966 -0.1908 -0.0642
33102ION     NA49176  16.787   4.783   9.854  0.0105 -0.1209  0.0937
33103ION     NA49177  15.590  18.891  10.374 -0.2230  0.0665  0.4107
33104ION     NA49178  10.474  13.382  14.751 -0.0389 -0.1780 -0.0988
33105ION     NA49179   6.643  12.893  10.996 -0.0860 -0.0174 -0.0232
33106ION     NA49180   7.160   3.683   9.461  0.3128  0.0196  0.2491
33107ION     NA49181   7.082  12.912   9.140  0.0781  0.1741 -0.0375
33108ION     NA49182  11.672  15.330  14.636 -0.2207  0.0445 -0.0297
33109ION     NA49183  12.933  17.538   3.353 -0.1326  0.0706  0.1670
33110ION     NA49184  13.059   0.520   9.769 -0.0290 -0.0860 -0.5106
33111ION     NA49185  11.080   9.364   9.612 -0.2989  0.0408  0.0744
33112ION     NA49186   5.104   3.313   1.322 -0.0079 -0.2081 -0.1479
33113ION     NA49187  17.620   4.207   4.642 -0.2957  0.0731 -0.1003
33114ION     NA49188  11.247  18.469   9.768  0.1042  0.1174 -0.0543
33115ION     NA49189  14.527  13.173   9.630  0.1627 -0.1030  0.1224
33116ION     NA49190   0.283  17.655  10.023 -0.0689  0.1358 -0.0922
33117ION     NA49191  15.060  13.409   0.379  0.2267 -0.0690  0.1324
33118ION     NA49192   3.001   5.082   1.420  0.1136  0.0130  0.0063
33119ION     NA49193  18.146  11.176   2.510 -0.0895  0.1058  0.0196
33120ION     NA49194   9.363  14.593  14.383  0.1695 -0.2379  0.1510
33121ION     NA49195  11.490  12.166  14.089 -0.0357 -0.1726  0.1525
33122ION     NA49196   2.972   7.192  11.023  0.0394  0.0685 -0.1367
33123ION     NA49197   2.461  16.964   9.935 -0.0245 -0.2650  0.0036
33124ION     NA49198  13.457   3.675   9.795 -0.0585  0.3264 -0.1460
33125ION     NA49199  14.605   4.419   9.762  0.2795  0.0428  0.2771
33126ION     NA49200  18.717  12.441  12.645  0.3519 -0.2412  0.1099
33127ION     NA49201  16.721   9.862  10.318 -0.0355 -0.2086  0.1064
33128ION     NA49202  13.427  13.156   9.546 -0.1129  0.2952 -0.1207
33129ION     NA49203   9.304   3.950   9.559  0.1860  0.0476  0.2850
33130ION     NA49204   3.463  18.372   9.219  0.1465  0.1853 -0.2429
33131ION     NA49205   3.057  12.655   9.607 -0.5076  0.0661  0.1777
33132ION     NA49206  12.293   2.056  14.964  0.1856 -0.1118 -0.0194
33133ION     NA49207   4.392   8.844  11.966  0.1828 -0.0189  0.2365
33134ION     NA49208   0.389   2.907  13.107 -0.0641 -0.3433 -0.1681
33135ION     NA49209  11.010  16.089   4.636  0.0914 -0.3294  0.1560
33136ION     NA49210  11.322  13.033  11.900 -0.0509  0.1293 -0.2434
33137ION     NA49211  14.075   0.672   9.921  0.1384  0.0916 -0.4643
33138ION     NA49212   1.420  18.621   9.528  0.1924 -0.1493  0.2713
33139ION     NA49213   0.868  15.972   5.531  0.0909  0.0521  0.0702
33140ION     NA49214   5.274   8.103   5.237 -0.2886  0.3297 -0.2222
33141ION     NA49215   1.377  13.238   5.473  0.0850  0.0631 -0.3263
33142ION     NA49216  19.096   7.084  10.261  0.0853  0.0380 -0.1633
33143ION     NA49217   5.711   4.480   9.307 -0.0037  0.0243 -0.3768
33144ION     NA49218  12.626   9.505   9.622 -0.0884 -0.1403 -0.1455
33145ION     NA49219  15.491  12.164  11.470 -0.0852 -0.1321 -0.0225
33146ION     NA49220   3.480  11.662  13.481  0.2050 -0.2728  0.0758
33147ION     NA49221   3.026   8.644   0.312  0.0920  0.2406 -0.1771
33148ION     NA49222   1.099   4.904  14.920 -0.0362 -0.0019 -0.3722
33149ION     NA49223   0.843   8.969  10.383  0.1130 -0.4074  0.4206
33150ION     NA49224   2.464   1.988   9.109  0.2534 -0.0254  0.4175
33151ION     NA49225   3.458  16.016  12.211  0.0991 -0.0278  0.2656
33152ION     NA49226   6.804  16.151   9.210 -0.0239  0.1343  0.0225
33153ION     NA49227  15.456   4.058   9.963  0.0173  0.1678 -0.1901
33154ION     NA49228   5.432   5.977   9.679 -0.0662  0.0930  0.0862
33155ION     NA49229   6.551  12.607   9.797  0.1746 -0.5626 -0.3776
33156ION     NA49230   3.695   6.624   5.554  0.2393 -0.0115 -0.2080
33157ION     NA49231  17.487   8.756  12.341  0.0221 -0.2032  0.2413
33158ION     NA49232  18.077  11.092  11.851 -0.0316 -0.1049  0.0846
33159ION     NA49233  11.196  14.039   1.988 -0.5062 -0.0601  0.1486
33160ION     NA49234  10.288   7.615   9.688 -0.2021 -0.2609 -0.1090
33161ION     NA49235  10.784   2.829  10.964 -0.1756  0.0667 -0.2209
33162ION     NA49236  18.024  13.198  12.872  0.3341  0.1470  0.0721
33163ION     NA49237   7.898   0.434   8.944 -0.1367  0.1201  0.3807
33164ION     NA49238   0.427   5.622   9.732  0.2172  0.0866 -0.0243
33165ION     NA49239   1.254   5.080  13.611  0.1680  0.2242 -0.0672
33166ION     NA49240  18.163   5.212   9.656 -0.3554  0.1814 -0.1047
33167ION     NA49241  10.773   5.943   9.455  0.1857  0.3008  0.3367
33168ION     NA49242  11.551   5.318   9.522 -0.3013  0.0500  0.2786
33169ION     NA49243   7.500  16.162   4.063  0.3686 -0.0271  0.0439
33170ION     NA49244  14.802   0.959   5.673 -0.1499 -0.0748 -0.0958
33171ION     NA49245  14.947  14.679   9.933  0.0526  0.3389  0.1541
33172ION     NA49246   8.414  12.542   9.067 -0.1849 -0.0974 -0.2163
33173ION     NA49247  15.616   5.807   5.711  0.0743  0.0272 -0.0325
33174ION     NA49248  12.849   7.634   2.708 -0.0414  0.0739  0.0746
33175ION     NA49249   6.374   2.844   2.488  0.0173  0.2136  0.1718
33176ION     NA49250  11.676  12.448  11.171 -0.0768 -0.4276  0.0961
33177ION     NA49251  14.962   9.678  10.013  0.2194  0.1781  0.0191
33178ION     NA49252   5.573  15.849  11.318  0.1998  0.0305  0.1174
33179ION     NA49253  18.589  12.957   5.302 -0.3518 -0.1711 -0.2574
33180ION     NA49254  17.110   7.756  10.188 -0.0218  0.1931 -0.1489
33181ION     NA49255   7.463  13.816   4.983 -0.1587  0.3651  0.0334
33182ION     NA49256   8.329  15.848   0.151 -0.0558  0.2736 -0.0952
33183ION     NA49257   8.558   6.739   3.169  0.1729  0.0823  0.1113
33184ION     NA49258   4.396  15.310   9.463 -0.0618 -0.1227  0.0633
33185ION     NA49259   4.046   1.280   0.310 -0.0140  0.2224  0.0050
33186ION     NA49260   7.542  16.586   9.195  0.2045  0.0217  0.0832
33187ION     NA49261   9.498  16.065   4.661  0.0711  0.0703  0.0329
  19.33903  19.33903  15.00478
